Title
81359
    1CHL1    C3    1   2.429   5.104  10.176 -0.2105 -0.0610 -0.0527
    1CHL1    H3    2   2.460   5.191  10.113 -0.3808 -1.4855 -2.1563
    1CHL1    O3    3   2.430   5.133  10.311 -0.3796 -0.0799 -0.7019
    1CHL1   H3'    4   2.341   5.146  10.345 -0.0656  0.4155 -0.0464
    1CHL1    C4    5   2.299   5.048  10.124 -0.4983  0.8930  0.2593
    1CHL1   H4A    6   2.254   4.972  10.191 -2.2616  2.6979  1.1643
    1CHL1   H4B    7   2.218   5.122  10.140  0.9198  2.1311  1.8251
    1CHL1    C5    8   2.310   5.001   9.983 -0.1252  0.5021  0.1897
    1CHL1    C6    9   2.218   5.032   9.896 -0.8917  0.7849  0.8096
    1CHL1    H6   10   2.128   5.085   9.928 -0.7771  2.3388 -1.3225
    1CHL1    C7   11   2.227   5.006   9.752 -0.5285 -0.4928  0.8075
    1CHL1   H7A   12   2.126   4.971   9.722 -0.9374 -0.6092  2.2804
    1CHL1   H7B   13   2.254   5.100   9.698 -0.6626 -0.8321  0.1505
    1CHL1    C8   14   2.343   4.909   9.712  0.0868 -0.6455  0.2901
    1CHL1    H8   15   2.298   4.809   9.731  0.8526 -0.6644  2.0648
    1CHL1   C14   16   2.374   4.933   9.567 -0.1506 -0.4602  1.0467
    1CHL1   H14   17   2.432   5.027   9.554 -0.2845 -0.7386 -1.8392
    1CHL1   C15   18   2.260   4.943   9.472 -0.3830  0.5808  0.4608
    1CHL1  H15A   19   2.175   4.880   9.507  0.2744 -0.5213  0.0878
    1CHL1  H15B   20   2.228   5.046   9.446 -1.0335  0.4366  0.6762
    1CHL1   C16   21   2.311   4.893   9.339  0.6362  0.3127  0.7700
    1CHL1  H16A   22   2.252   4.810   9.295  3.2012 -0.5069 -1.2659
    1CHL1  H16B   23   2.294   4.971   9.262  0.4620 -1.4202 -0.9975
    1CHL1   C17   24   2.470   4.864   9.362 -0.1990 -0.2141 -1.0049
    1CHL1   H17   25   2.531   4.957   9.359 -0.9139  0.3508  1.0069
    1CHL1   C13   26   2.471   4.826   9.510 -0.2952  0.2867  0.1222
    1CHL1   C18   27   2.418   4.688   9.528 -0.0226  0.0029 -0.0728
    1CHL1  H18A   28   2.422   4.661   9.636 -1.5709 -0.2832 -0.0794
    1CHL1  H18B   29   2.315   4.660   9.497  0.2888  0.0030 -1.1100
    1CHL1  H18C   30   2.482   4.610   9.481  0.6233  1.0853 -1.0018
    1CHL1   C12   31   2.604   4.844   9.587  0.3143 -0.2147  0.1548
    1CHL1  H12A   32   2.691   4.780   9.560 -0.2051 -0.1640 -1.7109
    1CHL1  H12B   33   2.643   4.944   9.562 -2.0286  0.4366 -1.0234
    1CHL1   C11   34   2.588   4.837   9.742  0.2279  0.5361  0.5832
    1CHL1  H11A   35   2.572   4.730   9.768  1.2357  0.6752  1.8369
    1CHL1  H11B   36   2.691   4.867   9.773 -0.4999  3.6384  0.1531
    1CHL1    C9   37   2.469   4.927   9.795 -0.2470  0.7143 -0.1512
    1CHL1    H9   38   2.502   5.033   9.786 -3.7873  1.7166 -2.2883
    1CHL1   C10   39   2.437   4.916   9.943  0.0164 -0.9645 -0.4459
    1CHL1   C19   40   2.408   4.773  10.000  0.6307  0.2629  0.0968
    1CHL1  H19A   41   2.381   4.771  10.107 -1.9353 -0.8730 -0.5337
    1CHL1  H19B   42   2.324   4.731   9.940  0.6005 -1.2829  1.1980
    1CHL1  H19C   43   2.491   4.702   9.980 -0.1519 -0.3614 -1.0187
    1CHL1    C1   44   2.561   4.975  10.015  0.0445  0.2300 -0.0357
    1CHL1   H1A   45   2.641   4.899  10.000  0.2291  0.7638 -1.9354
    1CHL1   H1B   46   2.588   5.074   9.972  1.8353 -0.3362 -0.2954
    1CHL1    C2   47   2.540   5.001  10.160  0.1039  0.5229 -0.3621
    1CHL1   H2A   48   2.630   5.050  10.202 -0.6554  1.4022  0.2409
    1CHL1   H2B   49   2.511   4.917  10.228  1.1202  1.0620  0.7539
    1CHL1   C20   50   2.514   4.764   9.257 -0.3518  0.2767 -0.3059
    1CHL1   H20   51   2.473   4.661   9.260  0.5084 -0.1245 -1.8821
    1CHL1   C21   52   2.657   4.739   9.284  0.1852  0.4103 -0.8014
    1CHL1  H21A   53   2.703   4.665   9.215 -0.4835 -1.6732  0.9346
    1CHL1  H21B   54   2.672   4.693   9.383 -0.2720  0.3370 -0.7650
    1CHL1  H21C   55   2.719   4.830   9.270  0.3096  0.3856 -0.3959
    1CHL1   C22   56   2.497   4.810   9.109  0.2178  0.3555  0.2077
    1CHL1  H22A   57   2.398   4.860   9.109 -0.0735 -0.1651  2.7926
    1CHL1  H22B   58   2.564   4.896   9.088 -1.5141  1.3080 -1.6112
    1CHL1   C23   59   2.539   4.703   9.003 -0.0042 -0.9912  0.3776
    1CHL1  H23A   60   2.624   4.643   9.042 -1.6358 -0.9788  4.1676
    1CHL1  H23B   61   2.445   4.644   8.989 -0.8289 -0.1065  1.9688
    1CHL1   C24   62   2.577   4.762   8.866  0.2695 -1.4911  0.1153
    1CHL1  H24A   63   2.488   4.821   8.834 -0.2755 -2.4320 -0.1544
    1CHL1  H24B   64   2.651   4.843   8.875 -0.2206 -0.9620 -0.5613
    1CHL1   C25   65   2.623   4.666   8.751  0.4099 -0.4467 -0.3886
    1CHL1   H25   66   2.703   4.595   8.782  1.9838  1.1968 -0.6249
    1CHL1   C26   67   2.509   4.582   8.698  0.1479 -0.4162  0.1757
    1CHL1  H26A   68   2.417   4.638   8.671  0.3138 -0.2414 -0.0233
    1CHL1  H26B   69   2.544   4.541   8.601 -0.4634 -0.7386  0.0939
    1CHL1  H26C   70   2.491   4.509   8.780 -0.3390 -0.1747  0.2871
    1CHL1   C27   71   2.668   4.744   8.633  0.2570  0.2907  0.0322
    1CHL1  H27A   72   2.751   4.806   8.672  0.8978 -0.4806 -0.0880
    1CHL1  H27B   73   2.713   4.690   8.547  0.3642  0.0813  0.2203
    1CHL1  H27C   74   2.586   4.804   8.589  0.4620  1.1990  0.8849
    2CHL1    C3   75   3.273   2.410   9.964  0.6008 -0.6290 -0.5271
    2CHL1    H3   76   3.167   2.380   9.977  0.3424 -0.2868 -1.8189
    2CHL1    O3   77   3.331   2.454  10.085  0.0253  0.0592 -0.5632
    2CHL1   H3'   78   3.380   2.380  10.122  0.3833  0.6273  0.1168
    2CHL1    C4   79   3.332   2.273   9.929 -0.0881  0.2176  0.1530
    2CHL1   H4A   80   3.440   2.291   9.911  0.3246 -2.6637 -0.5199
    2CHL1   H4B   81   3.327   2.205  10.017  2.6882 -0.1689  0.0574
    2CHL1    C5   82   3.271   2.214   9.798 -0.9491 -0.2016 -0.4925
    2CHL1    C6   83   3.219   2.094   9.792  0.0886 -0.2636 -0.3703
    2CHL1    H6   84   3.229   2.030   9.881  1.7573  0.0911 -0.2915
    2CHL1    C7   85   3.178   2.030   9.659  0.0132 -0.1327 -0.4507
    2CHL1   H7A   86   3.230   1.933   9.645  0.5441  0.6623 -4.6280
    2CHL1   H7B   87   3.069   2.008   9.668 -0.2899  0.3917 -2.6094
    2CHL1    C8   88   3.194   2.123   9.535  0.0875 -0.0994 -0.2261
    2CHL1    H8   89   3.298   2.095   9.509  0.4464  0.1922  0.8753
    2CHL1   C14   90   3.107   2.073   9.414  0.1784 -0.0990 -0.4464
    2CHL1   H14   91   3.004   2.096   9.448  0.5314  1.6076 -0.4478
    2CHL1   C15   92   3.117   1.924   9.381 -0.0101 -0.6173  0.1321
    2CHL1  H15A   93   3.219   1.886   9.401  0.9301  0.7729 -1.8904
    2CHL1  H15B   94   3.039   1.875   9.442 -1.0769  1.6422  0.6625
    2CHL1   C16   95   3.093   1.919   9.229 -0.3497  0.5285  0.7736
    2CHL1  H16A   96   3.175   1.885   9.163 -0.6035 -0.7142  1.0915
    2CHL1  H16B   97   3.011   1.845   9.217 -0.1487  0.6042 -1.1785
    2CHL1   C17   98   3.053   2.066   9.187 -0.5019  0.2705 -0.0180
    2CHL1   H17   99   2.944   2.067   9.209 -0.3897 -1.1565  0.6513
    2CHL1   C13  100   3.134   2.156   9.286  0.5450 -0.5591  0.3732
    2CHL1   C18  101   3.279   2.139   9.240 -1.0264 -0.1069 -0.1917
    2CHL1  H18A  102   3.354   2.178   9.312 -0.9930  0.8476 -0.7296
    2CHL1  H18B  103   3.313   2.034   9.233 -2.5658 -0.6124 -0.3558
    2CHL1  H18C  104   3.287   2.195   9.144 -0.4337  1.3530  0.6816
    2CHL1   C12  105   3.094   2.299   9.320  0.9588 -0.2142  0.3642
    2CHL1  H12A  106   3.117   2.368   9.236  0.6841  0.2635  0.6821
    2CHL1  H12B  107   2.983   2.307   9.321  0.6835 -2.6244 -2.7582
    2CHL1   C11  108   3.166   2.360   9.439 -0.1546 -0.4345  0.0519
    2CHL1  H11A  109   3.269   2.382   9.404 -0.2294 -0.9442 -0.5059
    2CHL1  H11B  110   3.128   2.457   9.476  0.3073 -0.4750  0.6445
    2CHL1    C9  111   3.174   2.267   9.566 -0.3022 -0.7685  0.6014
    2CHL1    H9  112   3.070   2.271   9.606  0.1427  1.9923  1.5637
    2CHL1   C10  113   3.271   2.313   9.681 -0.1409  0.0142 -0.2139
    2CHL1   C19  114   3.420   2.318   9.634 -0.0189  0.3211  0.4482
    2CHL1  H19A  115   3.495   2.349   9.710  0.4279  2.3266 -0.7712
    2CHL1  H19B  116   3.453   2.219   9.598 -1.9752 -0.0332 -0.4218
    2CHL1  H19C  117   3.434   2.393   9.553 -2.2504  0.0817 -0.2009
    2CHL1    C1  118   3.232   2.455   9.725  0.4202 -0.3216 -0.8524
    2CHL1   H1A  119   3.254   2.531   9.647 -0.7697  2.3968  1.3533
    2CHL1   H1B  120   3.121   2.461   9.737  0.3229 -1.0958 -1.3147
    2CHL1    C2  121   3.295   2.508   9.859  0.4574  0.1184 -0.0220
    2CHL1   H2A  122   3.246   2.604   9.888 -1.3423 -1.2908  1.7861
    2CHL1   H2B  123   3.406   2.514   9.853  0.7273  0.0070  3.6266
    2CHL1   C20  124   3.063   2.090   9.034 -0.7272 -0.3353  0.2619
    2CHL1   H20  125   3.168   2.078   9.001 -1.5275  1.1854 -3.0249
    2CHL1   C21  126   3.003   2.226   9.001 -0.0397  0.2211  0.5907
    2CHL1  H21A  127   2.962   2.241   8.899 -0.9146  1.3360  1.0992
    2CHL1  H21B  128   3.071   2.313   9.012 -2.0912  2.4491 -3.4309
    2CHL1  H21C  129   2.915   2.254   9.063  0.5804  2.0892  0.6625
    2CHL1   C22  130   2.991   1.977   8.952  0.4815  0.0998  0.2277
    2CHL1  H22A  131   2.973   2.023   8.853 -0.1092  2.2574  1.3042
    2CHL1  H22B  132   3.049   1.884   8.935  0.4150  0.0380  0.3411
    2CHL1   C23  133   2.850   1.945   8.995  0.2182 -0.5689 -0.3296
    2CHL1  H23A  134   2.840   1.938   9.105 -0.0982  2.6722 -0.1150
    2CHL1  H23B  135   2.792   2.031   8.956  0.2370  0.2085  1.3412
    2CHL1   C24  136   2.795   1.814   8.946  1.1812 -0.2428  0.2780
    2CHL1  H24A  137   2.864   1.737   8.984 -0.6388 -1.4470  1.2227
    2CHL1  H24B  138   2.699   1.796   8.999  0.7454  0.1704 -0.3595
    2CHL1   C25  139   2.773   1.815   8.791  0.5746  0.0308 -0.7575
    2CHL1   H25  140   2.862   1.865   8.750  1.7773 -0.5645  1.0486
    2CHL1   C26  141   2.750   1.671   8.740  0.2695  0.6272  0.0308
    2CHL1  H26A  142   2.698   1.603   8.812 -0.3610  0.3739 -0.6626
    2CHL1  H26B  143   2.694   1.680   8.645 -0.1847  0.6166  0.2951
    2CHL1  H26C  144   2.846   1.624   8.709 -1.3115 -0.0364 -4.1343
    2CHL1   C27  145   2.648   1.900   8.747 -0.1849  0.8364  0.8701
    2CHL1  H27A  146   2.565   1.865   8.812 -0.1262 -1.3094 -0.1833
    2CHL1  H27B  147   2.660   2.009   8.765  1.4373  0.7762  0.2351
    2CHL1  H27C  148   2.617   1.882   8.641 -0.9961  1.9207  0.9099
    3CHL1    C3  149   4.105   2.345  10.116 -0.5218  0.6651 -0.0464
    3CHL1    H3  150   4.209   2.330  10.081 -0.0097  1.6950  1.0289
    3CHL1    O3  151   4.116   2.355  10.258  0.4404 -0.1278  0.7140
    3CHL1   H3'  152   4.054   2.291  10.296 -0.4457  1.0922  1.3718
    3CHL1    C4  153   4.040   2.470  10.065  0.0715  0.0118 -0.3130
    3CHL1   H4A  154   3.942   2.491  10.114  0.4697  0.4163  0.3201
    3CHL1   H4B  155   4.109   2.552  10.096  2.1132 -2.0729  0.7830
    3CHL1    C5  156   4.022   2.467   9.913  0.3411  0.5443  0.1878
    3CHL1    C6  157   4.067   2.560   9.833 -0.5845 -0.4336  0.2513
    3CHL1    H6  158   4.126   2.643   9.875  0.2877  0.6748 -3.0002
    3CHL1    C7  159   4.060   2.567   9.681  0.5700 -0.5873  0.0474
    3CHL1   H7A  160   4.023   2.667   9.650 -0.8077 -0.9474  0.4720
    3CHL1   H7B  161   4.163   2.549   9.643 -0.0817  1.2680 -2.7719
    3CHL1    C8  162   3.948   2.475   9.623  0.1718  0.1429  0.4116
    3CHL1    H8  163   3.850   2.516   9.656  0.4256  2.5318 -1.6256
    3CHL1   C14  164   3.959   2.462   9.470 -0.6780 -0.8393  0.3427
    3CHL1   H14  165   4.063   2.435   9.439 -0.0569 -1.0362  2.5059
    3CHL1   C15  166   3.942   2.585   9.386  1.2312 -0.5681  0.5763
    3CHL1  H15A  167   3.851   2.646   9.406  2.2328  1.6174 -1.2819
    3CHL1  H15B  168   4.025   2.658   9.388  0.1519  0.7250 -0.5253
    3CHL1   C16  169   3.931   2.531   9.244 -0.0937  0.0715  0.2509
    3CHL1  H16A  170   3.847   2.582   9.193 -1.3243  0.6034  2.7543
    3CHL1  H16B  171   4.028   2.545   9.192  0.9524  0.5749  2.3001
    3CHL1   C17  172   3.907   2.374   9.266  0.2381  0.8720 -0.3279
    3CHL1   H17  173   3.995   2.309   9.249  0.1428  0.0507  2.0952
    3CHL1   C13  174   3.872   2.355   9.414  0.5481 -0.0944  0.0262
    3CHL1   C18  175   3.721   2.376   9.445 -0.0677 -0.1250  0.2912
    3CHL1  H18A  176   3.660   2.289   9.412 -0.8482  0.0917  1.1540
    3CHL1  H18B  177   3.693   2.382   9.552  0.6052  0.4514  0.4409
    3CHL1  H18C  178   3.684   2.473   9.404  0.5778 -0.9966 -2.4791
    3CHL1   C12  179   3.916   2.225   9.480  0.3067 -0.1253  0.5549
    3CHL1  H12A  180   3.862   2.139   9.435 -0.4326  1.1701 -1.1015
    3CHL1  H12B  181   4.025   2.209   9.463  0.0612 -3.2189  1.6157
    3CHL1   C11  182   3.898   2.223   9.631  0.1526  0.1458  0.6048
    3CHL1  H11A  183   3.789   2.214   9.652 -0.0870 -0.0153 -0.6197
    3CHL1  H11B  184   3.941   2.126   9.664  2.0956  0.6169 -0.4662
    3CHL1    C9  185   3.963   2.340   9.696 -0.4753  0.0440 -0.3307
    3CHL1    H9  186   4.071   2.314   9.687 -0.4260  0.0930  0.0879
    3CHL1   C10  187   3.942   2.344   9.854  0.1398  0.1865 -0.5310
    3CHL1   C19  188   3.801   2.368   9.884 -0.0032  0.0439  0.2299
    3CHL1  H19A  189   3.766   2.469   9.853  0.2349  0.6042  1.7148
    3CHL1  H19B  190   3.741   2.287   9.838  0.8373 -2.1404  2.8258
    3CHL1  H19C  191   3.788   2.358   9.994 -1.6304 -1.1888 -0.0597
    3CHL1    C1  192   3.987   2.206   9.920 -0.2035  1.0171 -0.5762
    3CHL1   H1A  193   3.913   2.124   9.903  0.5290 -0.1986  1.9231
    3CHL1   H1B  194   4.083   2.178   9.872 -0.2181  0.7742 -0.4650
    3CHL1    C2  195   4.021   2.222  10.075 -0.2720 -0.2648  0.0757
    3CHL1   H2A  196   4.082   2.135  10.105  0.1449 -0.2765 -0.7940
    3CHL1   H2B  197   3.922   2.219  10.125 -1.0861  0.6482 -1.4359
    3CHL1   C20  198   3.806   2.315   9.158  0.4373 -0.8139  0.3217
    3CHL1   H20  199   3.709   2.360   9.190 -0.1451 -0.8088 -1.4238
    3CHL1   C21  200   3.786   2.161   9.163 -0.2634  0.0227  0.2321
    3CHL1  H21A  201   3.734   2.118   9.075  1.0716 -0.1306 -0.5009
    3CHL1  H21B  202   3.730   2.129   9.253  0.2795  0.4773  0.7313
    3CHL1  H21C  203   3.884   2.110   9.173 -0.2045  0.6663  3.2512
    3CHL1   C22  204   3.828   2.357   9.019  0.1471 -0.7394 -0.3060
    3CHL1  H22A  205   3.736   2.341   8.959 -2.3026  0.6123  2.9519
    3CHL1  H22B  206   3.834   2.468   9.017 -1.4060 -0.6226  0.7597
    3CHL1   C23  207   3.949   2.289   8.952 -0.0633 -0.3172 -0.7209
    3CHL1  H23A  208   4.035   2.294   9.022  0.4619  1.8080 -1.4837
    3CHL1  H23B  209   3.917   2.184   8.937  0.8305 -0.7311  0.2534
    3CHL1   C24  210   3.983   2.354   8.818 -0.5156 -0.1692 -0.3423
    3CHL1  H24A  211   3.892   2.358   8.755 -1.0922  2.0614  0.5852
    3CHL1  H24B  212   4.019   2.454   8.849 -2.4807  0.4363  0.0629
    3CHL1   C25  213   4.090   2.282   8.733  0.9313  0.4438  0.0899
    3CHL1   H25  214   4.104   2.352   8.648  1.4981  2.4503  1.7853
    3CHL1   C26  215   4.226   2.262   8.792 -0.5373 -0.9396 -0.1156
    3CHL1  H26A  216   4.218   2.195   8.881  1.4684 -0.8624  0.1680
    3CHL1  H26B  217   4.284   2.212   8.711  0.1555 -0.5127  0.1097
    3CHL1  H26C  218   4.274   2.361   8.807  0.4130 -1.0816 -2.0694
    3CHL1   C27  219   4.036   2.152   8.678 -0.1301  0.2609 -0.0781
    3CHL1  H27A  220   4.023   2.071   8.752 -2.3106  0.7754  0.1406
    3CHL1  H27B  221   3.950   2.154   8.609 -0.8471  0.3421  0.8141
    3CHL1  H27C  222   4.110   2.114   8.604  2.4210  3.0174  0.9518
    4CHL1    C3  223   3.735   4.496  10.543  0.3022  0.3986 -0.2314
    4CHL1    H3  224   3.843   4.500  10.516  0.5727 -4.2304 -0.3506
    4CHL1    O3  225   3.713   4.492  10.686 -0.1364  0.4665 -0.4317
    4CHL1   H3'  226   3.630   4.445  10.697  0.9579 -1.7780 -1.2748
    4CHL1    C4  227   3.665   4.614  10.484 -0.2446  0.2615  0.1274
    4CHL1   H4A  228   3.563   4.617  10.528 -0.4434 -1.5501 -0.1872
    4CHL1   H4B  229   3.715   4.708  10.517 -1.8963  0.9124  0.7931
    4CHL1    C5  230   3.676   4.618  10.330  0.2036  1.2142  0.2359
    4CHL1    C6  231   3.748   4.706  10.266  0.2790  0.5027  0.1219
    4CHL1    H6  232   3.802   4.782  10.324 -0.9405  0.3892  1.4314
    4CHL1    C7  233   3.753   4.726  10.119  0.0070  0.1053  0.1751
    4CHL1   H7A  234   3.732   4.830  10.087  1.7312  0.0489 -1.2104
    4CHL1   H7B  235   3.853   4.699  10.080 -0.1815  0.6997 -0.7207
    4CHL1    C8  236   3.652   4.632  10.048  0.2629 -0.4570 -0.0983
    4CHL1    H8  237   3.555   4.686  10.049  1.3320  1.5400 -1.2840
    4CHL1   C14  238   3.686   4.621   9.907 -0.3527 -0.1028  0.1346
    4CHL1   H14  239   3.782   4.565   9.916 -0.7622 -0.7154  0.8045
    4CHL1   C15  240   3.715   4.748   9.823  0.0066  0.3341  0.5073
    4CHL1  H15A  241   3.625   4.810   9.845 -1.0252 -0.5532 -1.1720
    4CHL1  H15B  242   3.807   4.806   9.847 -0.5232  2.7104 -2.9016
    4CHL1   C16  243   3.714   4.690   9.678  0.2730 -0.2249  0.7707
    4CHL1  H16A  244   3.637   4.750   9.625  0.2867 -0.5410  0.3961
    4CHL1  H16B  245   3.813   4.705   9.630 -0.1094  0.1234  0.0834
    4CHL1   C17  246   3.670   4.538   9.682  0.3260  0.3582  0.5110
    4CHL1   H17  247   3.767   4.485   9.693 -0.6671 -1.3259  1.2956
    4CHL1   C13  248   3.600   4.528   9.814  0.2206 -0.2344 -0.6271
    4CHL1   C18  249   3.455   4.584   9.800 -0.0865  0.4562 -0.4247
    4CHL1  H18A  250   3.416   4.614   9.899 -0.3609 -3.6127  0.7967
    4CHL1  H18B  251   3.441   4.670   9.732  1.3153  0.4677 -0.7191
    4CHL1  H18C  252   3.386   4.503   9.766 -0.8878  1.1414 -0.4328
    4CHL1   C12  253   3.595   4.385   9.882 -0.2634  1.0121  0.0689
    4CHL1  H12A  254   3.523   4.314   9.836  2.6035 -2.9873  1.4430
    4CHL1  H12B  255   3.699   4.345   9.878 -1.6690 -2.7782 -0.9644
    4CHL1   C11  256   3.557   4.393  10.027  0.3082 -0.4034 -0.6053
    4CHL1  H11A  257   3.448   4.413  10.038  1.1047  3.3120  1.5787
    4CHL1  H11B  258   3.580   4.291  10.064 -0.2613 -0.0714  0.6704
    4CHL1    C9  259   3.646   4.496  10.111 -0.1413  0.0379  0.2916
    4CHL1    H9  260   3.748   4.454  10.099 -0.1008 -0.4041  2.1550
    4CHL1   C10  261   3.610   4.500  10.265  0.8128 -0.1164  0.0188
    4CHL1   C19  262   3.461   4.523  10.281  0.4505  0.0446  0.1583
    4CHL1  H19A  263   3.435   4.627  10.251  0.6589 -0.3434 -1.4004
    4CHL1  H19B  264   3.400   4.448  10.226 -1.1620 -0.6125  2.7744
    4CHL1  H19C  265   3.423   4.515  10.385 -3.2161  1.6090 -0.9507
    4CHL1    C1  266   3.659   4.367  10.327 -0.0790  0.1415 -0.1193
    4CHL1   H1A  267   3.581   4.294  10.297  0.9657 -0.9276 -0.2907
    4CHL1   H1B  268   3.754   4.338  10.278  0.7880 -1.7734  2.5273
    4CHL1    C2  269   3.679   4.363  10.479  0.1825 -0.3745  0.2970
    4CHL1   H2A  270   3.746   4.277  10.505  0.3927 -0.2768  0.0769
    4CHL1   H2B  271   3.579   4.357  10.525  0.0744 -0.7942  0.0103
    4CHL1   C20  272   3.605   4.496   9.555 -0.1096  0.1202  0.0056
    4CHL1   H20  273   3.508   4.549   9.544 -1.5527 -2.9433 -2.7147
    4CHL1   C21  274   3.577   4.344   9.556 -0.1877 -0.5469 -0.3141
    4CHL1  H21A  275   3.542   4.305   9.458 -1.4777 -3.2521  1.1467
    4CHL1  H21B  276   3.491   4.323   9.624 -1.0849 -0.2452 -1.3301
    4CHL1  H21C  277   3.659   4.282   9.596 -0.8474 -0.0570  1.8507
    4CHL1   C22  278   3.700   4.529   9.437 -0.1008  0.2001  0.2014
    4CHL1  H22A  279   3.736   4.633   9.422 -2.3141  0.9796  0.0680
    4CHL1  H22B  280   3.788   4.466   9.462 -0.5938 -0.5739 -0.0056
    4CHL1   C23  281   3.661   4.462   9.303  0.4092 -0.0906 -0.0002
    4CHL1  H23A  282   3.679   4.352   9.293 -0.1338 -0.4582  2.7468
    4CHL1  H23B  283   3.551   4.474   9.294  0.0970 -2.0448  0.8023
    4CHL1   C24  284   3.729   4.527   9.184  0.5522 -0.1875 -0.1587
    4CHL1  H24A  285   3.698   4.634   9.184 -0.9161 -0.5934  0.0885
    4CHL1  H24B  286   3.838   4.517   9.201  0.7328  1.1473 -0.4899
    4CHL1   C25  287   3.691   4.470   9.042  0.4785  0.8622  0.0560
    4CHL1   H25  288   3.753   4.538   8.980  1.7887  0.1128  0.5303
    4CHL1   C26  289   3.751   4.330   9.025  0.0691 -0.2230  0.9971
    4CHL1  H26A  290   3.861   4.335   9.041  0.1684 -0.6762  0.4800
    4CHL1  H26B  291   3.699   4.257   9.090 -1.1291 -2.0847 -1.9622
    4CHL1  H26C  292   3.742   4.290   8.922 -0.6090  0.4555  0.7880
    4CHL1   C27  293   3.541   4.480   9.021  0.6412  0.5863 -0.0869
    4CHL1  H27A  294   3.510   4.585   9.039  2.2402  1.3292 -1.5304
    4CHL1  H27B  295   3.507   4.457   8.917  0.5813  3.2935 -0.6928
    4CHL1  H27C  296   3.478   4.420   9.090 -0.6284  0.0262 -1.6930
    5CHL1    C3  297   4.622   2.094  10.114 -0.2123 -0.4564  0.3779
    5CHL1    H3  298   4.681   2.013  10.065 -0.9333 -0.8665  0.1640
    5CHL1    O3  299   4.618   2.075  10.251  0.2867 -0.0511  0.5579
    5CHL1   H3'  300   4.636   2.162  10.288 -1.2969  1.0357 -1.1712
    5CHL1    C4  301   4.679   2.228  10.068  0.1966 -0.5984  0.1332
    5CHL1   H4A  302   4.633   2.301  10.137 -2.5508 -2.1976  0.0674
    5CHL1   H4B  303   4.786   2.228  10.099  0.6752  1.4204 -1.4653
    5CHL1    C5  304   4.665   2.255   9.917 -0.1525  0.4142 -0.2532
    5CHL1    C6  305   4.772   2.262   9.833 -0.4039 -0.1366 -0.6135
    5CHL1    H6  306   4.874   2.261   9.873 -0.6618 -2.1463  0.0417
    5CHL1    C7  307   4.765   2.303   9.690  0.0437 -0.2856  0.4411
    5CHL1   H7A  308   4.834   2.385   9.660  0.1167 -0.6303 -0.3600
    5CHL1   H7B  309   4.799   2.219   9.624 -0.2815 -0.3435  0.3486
    5CHL1    C8  310   4.630   2.344   9.652 -0.4030  0.0335  0.7522
    5CHL1    H8  311   4.614   2.447   9.688 -1.3952 -0.3023  1.2988
    5CHL1   C14  312   4.622   2.331   9.498 -0.0236  0.0961 -0.0755
    5CHL1   H14  313   4.634   2.224   9.471  0.5520  0.4946 -1.3941
    5CHL1   C15  314   4.734   2.393   9.407 -0.1881  0.2736  0.5174
    5CHL1  H15A  315   4.760   2.495   9.441 -0.6914  0.2736  0.9084
    5CHL1  H15B  316   4.828   2.335   9.420  0.3132  0.5490 -1.6846
    5CHL1   C16  317   4.677   2.378   9.268  0.3442  0.7238  0.3335
    5CHL1  H16A  318   4.697   2.477   9.222 -0.4921  0.2390 -1.0901
    5CHL1  H16B  319   4.741   2.302   9.217  0.2475 -0.3131  1.7074
    5CHL1   C17  320   4.526   2.346   9.278 -0.9253  0.5786 -0.2177
    5CHL1   H17  321   4.516   2.237   9.257 -1.8830  0.5775  0.2130
    5CHL1   C13  322   4.493   2.369   9.427  0.1088  0.5049  0.4755
    5CHL1   C18  323   4.472   2.519   9.455 -0.0493  0.2140  0.2786
    5CHL1  H18A  324   4.457   2.554   9.559  2.0275  4.6536 -0.7902
    5CHL1  H18B  325   4.556   2.581   9.416 -0.5387  0.2668 -0.7049
    5CHL1  H18C  326   4.388   2.564   9.398  0.1159 -1.2985 -1.1878
    5CHL1   C12  327   4.385   2.286   9.490  0.4798  0.5534 -0.2670
    5CHL1  H12A  328   4.282   2.311   9.457 -0.5656  0.8057  3.0010
    5CHL1  H12B  329   4.406   2.182   9.458 -1.4435  0.3444 -0.9533
    5CHL1   C11  330   4.383   2.298   9.644 -0.0380 -0.3171  0.6036
    5CHL1  H11A  331   4.354   2.401   9.672  1.4319 -0.0505  1.2004
    5CHL1  H11B  332   4.303   2.227   9.672 -0.2677  0.3916  1.7651
    5CHL1    C9  333   4.516   2.253   9.709  0.4342 -0.1097 -0.4628
    5CHL1    H9  334   4.528   2.148   9.674 -1.0283 -0.3053 -0.3868
    5CHL1   C10  335   4.525   2.249   9.860  0.0169  0.3087 -0.2202
    5CHL1   C19  336   4.433   2.363   9.910 -0.1496  0.0429  0.8424
    5CHL1  H19A  337   4.473   2.456   9.865  3.1724 -2.4391 -1.6430
    5CHL1  H19B  338   4.326   2.343   9.888  0.3394  0.3028 -1.9166
    5CHL1  H19C  339   4.436   2.358  10.021 -1.0510 -1.9071  0.7958
    5CHL1    C1  340   4.470   2.114   9.909 -0.4900  0.3635 -0.2975
    5CHL1   H1A  341   4.366   2.121   9.872 -0.7087  0.2867  0.3047
    5CHL1   H1B  342   4.526   2.034   9.856  0.5864 -0.7270  2.3938
    5CHL1    C2  343   4.482   2.091  10.067  0.0479 -0.0301  0.9213
    5CHL1   H2A  344   4.435   1.993  10.087  0.7138 -0.6720 -0.5610
    5CHL1   H2B  345   4.419   2.161  10.126  0.9251 -1.2147  3.2995
    5CHL1   C20  346   4.443   2.426   9.170 -0.4299  0.3535 -0.3679
    5CHL1   H20  347   4.444   2.536   9.190  1.8718  0.4978 -1.0988
    5CHL1   C21  348   4.299   2.360   9.176  0.0929 -0.2944 -0.3242
    5CHL1  H21A  349   4.238   2.381   9.086 -0.4959 -1.0019 -0.0932
    5CHL1  H21B  350   4.239   2.404   9.259  1.3069  0.8515 -0.0263
    5CHL1  H21C  351   4.301   2.249   9.187 -0.3552 -0.3730 -1.0225
    5CHL1   C22  352   4.501   2.408   9.028  0.8103 -0.9920  0.4972
    5CHL1  H22A  353   4.421   2.448   8.962  1.3454  0.2534  0.6037
    5CHL1  H22B  354   4.596   2.461   9.005 -0.5196  0.5599 -1.6197
    5CHL1   C23  355   4.539   2.266   8.983 -0.2256  0.1918  0.8433
    5CHL1  H23A  356   4.605   2.219   9.059  0.8237 -0.9165 -0.7403
    5CHL1  H23B  357   4.442   2.213   8.968  0.6719 -0.4921 -2.9328
    5CHL1   C24  358   4.619   2.255   8.856 -0.8323 -0.3069  0.2515
    5CHL1  H24A  359   4.562   2.294   8.769 -2.2734 -0.4560  1.1021
    5CHL1  H24B  360   4.714   2.311   8.866 -0.2781 -1.2324  0.2148
    5CHL1   C25  361   4.658   2.108   8.818  0.3901 -0.1234  0.1629
    5CHL1   H25  362   4.564   2.050   8.818 -0.7475  1.6426 -1.2586
    5CHL1   C26  363   4.721   2.104   8.678 -0.1954 -0.7401  0.5201
    5CHL1  H26A  364   4.732   1.999   8.643 -1.3822 -1.0460  1.0369
    5CHL1  H26B  365   4.650   2.156   8.611  0.7114  0.3092  0.3616
    5CHL1  H26C  366   4.814   2.165   8.671  0.0091 -0.9687  1.2071
    5CHL1   C27  367   4.768   2.055   8.916 -0.2208  1.2148 -0.5301
    5CHL1  H27A  368   4.810   1.961   8.877  0.4996  2.0993 -1.9218
    5CHL1  H27B  369   4.854   2.125   8.917  0.1958  0.6916  0.3509
    5CHL1  H27C  370   4.744   2.041   9.024 -0.0905 -0.2904 -0.6919
    6CHL1    C3  371   2.167   6.519  10.303 -1.0031 -0.2833  0.0951
    6CHL1    H3  372   2.070   6.542  10.254 -1.2242  1.3656  1.2590
    6CHL1    O3  373   2.159   6.510  10.447  0.1301  0.3979 -0.3314
    6CHL1   H3'  374   2.106   6.431  10.454  0.9091 -0.3518 -2.3682
    6CHL1    C4  375   2.212   6.378  10.256  0.3791 -0.1653 -0.8465
    6CHL1   H4A  376   2.307   6.352  10.307  0.1570  2.0700  0.7558
    6CHL1   H4B  377   2.139   6.298  10.281  0.7738 -0.5451 -0.8857
    6CHL1    C5  378   2.244   6.393  10.111  0.0751 -0.0306  0.7608
    6CHL1    C6  379   2.189   6.316  10.013  0.0921  0.0027  0.8605
    6CHL1    H6  380   2.113   6.240  10.035 -0.0015 -0.9176 -2.2856
    6CHL1    C7  381   2.238   6.315   9.866 -0.8655 -0.2571 -0.2409
    6CHL1   H7A  382   2.237   6.215   9.818  0.9554  0.2525 -1.3790
    6CHL1   H7B  383   2.165   6.375   9.807  1.4476 -0.4518 -3.4025
    6CHL1    C8  384   2.376   6.382   9.851  0.6090  0.5728  0.6254
    6CHL1    H8  385   2.449   6.310   9.894  0.3037 -0.4750 -0.5546
    6CHL1   C14  386   2.400   6.401   9.706  0.1626  0.1285 -0.2690
    6CHL1   H14  387   2.317   6.466   9.672  0.6217 -0.6519 -3.0422
    6CHL1   C15  388   2.385   6.274   9.615 -0.0601  0.4193 -0.4615
    6CHL1  H15A  389   2.442   6.190   9.661 -0.8463  0.0197 -0.2196
    6CHL1  H15B  390   2.282   6.237   9.601 -0.0810 -0.3068  1.3929
    6CHL1   C16  391   2.453   6.317   9.489 -0.4059 -0.0231 -0.0998
    6CHL1  H16A  392   2.524   6.237   9.459 -0.6058 -0.2587  0.0490
    6CHL1  H16B  393   2.380   6.325   9.406 -0.2123 -3.2404 -0.6461
    6CHL1   C17  394   2.522   6.453   9.517  0.3516  0.1649 -0.2932
    6CHL1   H17  395   2.452   6.528   9.475  2.4718  3.8940  2.4332
    6CHL1   C13  396   2.527   6.468   9.671 -0.3582  0.4305  0.1001
    6CHL1   C18  397   2.641   6.375   9.728  0.7144 -0.3448 -0.1603
    6CHL1  H18A  398   2.639   6.368   9.839 -2.0248  1.4486 -0.0642
    6CHL1  H18B  399   2.625   6.275   9.683 -0.4689  0.1797 -0.9251
    6CHL1  H18C  400   2.737   6.426   9.706  0.1294  0.3752 -1.0605
    6CHL1   C12  401   2.532   6.599   9.733  0.1409 -0.1833 -0.1110
    6CHL1  H12A  402   2.631   6.643   9.706 -1.9724  1.9406 -4.8340
    6CHL1  H12B  403   2.462   6.674   9.691 -0.0237 -0.5650 -0.5164
    6CHL1   C11  404   2.505   6.601   9.887  0.3015 -0.2956 -0.9463
    6CHL1  H11A  405   2.599   6.566   9.933  0.1376  0.3640 -0.0902
    6CHL1  H11B  406   2.502   6.709   9.914  1.4372 -0.6697  0.7259
    6CHL1    C9  407   2.382   6.513   9.927 -0.0693  0.0782  0.4620
    6CHL1    H9  408   2.295   6.573   9.891  0.9257  0.0867 -2.0156
    6CHL1   C10  409   2.357   6.498  10.080  0.1587 -0.1193 -0.4519
    6CHL1   C19  410   2.489   6.444  10.147 -0.4407  0.3514 -0.9733
    6CHL1  H19A  411   2.470   6.425  10.255 -2.3775  1.6058 -1.0799
    6CHL1  H19B  412   2.539   6.355  10.102  0.5727  0.4453 -0.0611
    6CHL1  H19C  413   2.565   6.525  10.144  0.8732 -0.4995  4.0951
    6CHL1    C1  414   2.312   6.638  10.131 -0.3285  0.7654 -0.1430
    6CHL1   H1A  415   2.403   6.699  10.110 -0.7633  0.8678 -1.8328
    6CHL1   H1B  416   2.228   6.666  10.065 -0.5568  0.5093  0.0372
    6CHL1    C2  417   2.262   6.641  10.281 -0.0356  0.8626  0.0036
    6CHL1   H2A  418   2.217   6.739  10.309 -0.5321  0.9005 -0.9280
    6CHL1   H2B  419   2.356   6.623  10.338 -0.1902  0.2370  0.0569
    6CHL1   C20  420   2.657   6.461   9.439 -0.3396 -0.1543 -0.5265
    6CHL1   H20  421   2.723   6.383   9.481 -1.9093  0.0042  2.3670
    6CHL1   C21  422   2.715   6.607   9.465  0.0994  0.3302 -0.3270
    6CHL1  H21A  423   2.776   6.618   9.557 -0.9259  1.6521  0.2030
    6CHL1  H21B  424   2.630   6.678   9.464  0.1938  0.4925  1.5030
    6CHL1  H21C  425   2.784   6.634   9.381  0.2162  3.5967  0.7852
    6CHL1   C22  426   2.631   6.437   9.285  0.2372  0.1367  0.4662
    6CHL1  H22A  427   2.581   6.340   9.266  1.3645 -0.4661  0.5878
    6CHL1  H22B  428   2.563   6.518   9.249  0.1746  0.0754  0.4452
    6CHL1   C23  429   2.763   6.423   9.197  0.4116 -0.1933 -0.2174
    6CHL1  H23A  430   2.836   6.506   9.195  1.4187 -0.9748  2.2527
    6CHL1  H23B  431   2.817   6.338   9.243  1.9929  2.1035  2.2873
    6CHL1   C24  432   2.735   6.408   9.041 -0.0813  0.5472  0.0205
    6CHL1  H24A  433   2.668   6.321   9.028  1.2592 -0.4732 -0.0994
    6CHL1  H24B  434   2.683   6.501   9.011 -0.3006  0.0484 -1.1372
    6CHL1   C25  435   2.850   6.386   8.943  0.0377 -0.1011 -0.1494
    6CHL1   H25  436   2.806   6.370   8.842 -1.2718 -0.7172  0.5015
    6CHL1   C26  437   2.942   6.512   8.932 -0.1413  1.1877 -0.0427
    6CHL1  H26A  438   3.019   6.498   8.853 -0.4943 -1.4935  0.0457
    6CHL1  H26B  439   2.891   6.610   8.917 -0.1285  1.2654  0.4303
    6CHL1  H26C  440   3.001   6.522   9.025  0.4516 -1.9452 -0.0324
    6CHL1   C27  441   2.936   6.257   8.970  0.3621  0.0295 -0.0860
    6CHL1  H27A  442   2.984   6.221   8.876  0.2409 -0.4981  0.0549
    6CHL1  H27B  443   3.023   6.281   9.034 -1.1931 -0.2253  2.1586
    6CHL1  H27C  444   2.861   6.180   8.998 -1.1586  1.1700 -0.9630
    7CHL1    C3  445   4.968   2.804  10.369 -0.2398 -0.1362  0.7542
    7CHL1    H3  446   4.984   2.697  10.343  3.1391  0.4251  0.3818
    7CHL1    O3  447   4.923   2.814  10.507  0.2314 -0.0602  0.2815
    7CHL1   H3'  448   4.888   2.903  10.512  1.7726  0.7214 -1.9876
    7CHL1    C4  449   5.103   2.874  10.359  0.3776 -0.1748 -0.3340
    7CHL1   H4A  450   5.077   2.976  10.396 -1.9022 -0.4970 -0.9442
    7CHL1   H4B  451   5.175   2.839  10.436  0.1326 -1.0021 -0.4769
    7CHL1    C5  452   5.157   2.886  10.209 -0.1406 -0.3701 -0.2124
    7CHL1    C6  453   5.280   2.844  10.173  0.3692 -0.4814 -0.1867
    7CHL1    H6  454   5.349   2.811  10.253  0.2331  0.7258  0.4373
    7CHL1    C7  455   5.333   2.853  10.031  0.0777 -0.0603 -0.4576
    7CHL1   H7A  456   5.431   2.906  10.026  0.1965 -0.2838 -0.4759
    7CHL1   H7B  457   5.335   2.752   9.986  0.8407 -0.5617  0.6716
    7CHL1    C8  458   5.248   2.947   9.945 -0.0981  0.2869 -0.1302
    7CHL1    H8  459   5.275   3.052   9.969  0.4831  0.1308 -0.1077
    7CHL1   C14  460   5.279   2.920   9.791  0.0188  0.7747  0.0755
    7CHL1   H14  461   5.240   2.821   9.759  1.0763  0.6814 -0.9393
    7CHL1   C15  462   5.429   2.909   9.761 -0.3438  0.1568  0.0963
    7CHL1  H15A  463   5.488   2.983   9.818  2.2796 -1.1638 -0.8306
    7CHL1  H15B  464   5.487   2.820   9.794  0.5184  0.2948 -0.9899
    7CHL1   C16  465   5.431   2.936   9.610  0.4144  0.5165 -0.7521
    7CHL1  H16A  466   5.509   3.010   9.581  3.5491 -2.0459  0.8313
    7CHL1  H16B  467   5.457   2.845   9.553 -0.3735 -0.5710  0.6037
    7CHL1   C17  468   5.289   2.986   9.562  0.2037 -0.2538 -0.0008
    7CHL1   H17  469   5.237   2.894   9.529 -1.2755  0.4305  0.3560
    7CHL1   C13  470   5.216   3.013   9.693 -0.0003  0.5096 -1.0134
    7CHL1   C18  471   5.253   3.152   9.736 -0.0037  0.3531 -0.6666
    7CHL1  H18A  472   5.225   3.230   9.662  0.4797  0.2747 -0.9353
    7CHL1  H18B  473   5.199   3.182   9.828  0.7014  0.6775 -0.3529
    7CHL1  H18C  474   5.362   3.165   9.753 -0.4545  1.5554  1.5752
    7CHL1   C12  475   5.062   2.981   9.700 -0.9455 -0.4348 -0.1773
    7CHL1  H12A  476   5.014   3.060   9.640 -0.3726  1.2305  1.4926
    7CHL1  H12B  477   5.043   2.877   9.666 -0.1146 -0.8279  0.5335
    7CHL1   C11  478   5.014   2.995   9.851 -0.6997  0.8763 -0.3549
    7CHL1  H11A  479   5.020   3.105   9.867 -0.1330  0.7955  0.0168
    7CHL1  H11B  480   4.909   2.963   9.866 -0.7837  0.8394 -1.0086
    7CHL1    C9  481   5.097   2.920   9.965  0.3388 -0.0213 -0.5887
    7CHL1    H9  482   5.078   2.811   9.949 -1.9649  0.2942 -0.1788
    7CHL1   C10  483   5.058   2.953  10.109 -0.6277 -0.8496 -0.2993
    7CHL1   C19  484   5.063   3.103  10.149  0.8203 -0.8219 -0.2956
    7CHL1  H19A  485   5.033   3.113  10.255 -1.3315 -0.5270 -0.8977
    7CHL1  H19B  486   5.162   3.150  10.133 -0.6382  1.4658 -2.9604
    7CHL1  H19C  487   5.002   3.162  10.077 -1.0139 -2.6067 -0.2792
    7CHL1    C1  488   4.916   2.892  10.135 -0.1201  0.6435  1.2089
    7CHL1   H1A  489   4.843   2.944  10.069  1.2634  2.2984  0.9529
    7CHL1   H1B  490   4.923   2.789  10.093  2.2711  0.5711  1.6895
    7CHL1    C2  491   4.870   2.884  10.279 -0.2470  0.1814  0.0796
    7CHL1   H2A  492   4.765   2.850  10.273 -0.3244  0.7752 -2.5617
    7CHL1   H2B  493   4.857   2.987  10.318  0.1243  1.0975 -2.1424
    7CHL1   C20  494   5.281   3.082   9.450 -0.3877 -0.0537 -0.3320
    7CHL1   H20  495   5.324   3.180   9.482  0.0507 -0.3842  0.0920
    7CHL1   C21  496   5.139   3.119   9.392 -0.0485 -0.6278 -0.0740
    7CHL1  H21A  497   5.093   3.028   9.347  0.3099 -0.6318 -0.4438
    7CHL1  H21B  498   5.151   3.199   9.316 -1.6698 -2.4433 -2.3116
    7CHL1  H21C  499   5.080   3.168   9.472 -1.2100  0.1858 -1.4019
    7CHL1   C22  500   5.369   3.030   9.332  0.0671 -0.2082 -0.3801
    7CHL1  H22A  501   5.469   2.988   9.355 -0.0480 -0.1625  0.2195
    7CHL1  H22B  502   5.318   2.935   9.302 -0.4173 -0.7530  2.0931
    7CHL1   C23  503   5.389   3.135   9.222  0.4959 -0.3434  0.0344
    7CHL1  H23A  504   5.442   3.079   9.142 -0.2748  1.9825 -2.1750
    7CHL1  H23B  505   5.294   3.161   9.171  0.7545 -3.6071 -2.2365
    7CHL1   C24  506   5.464   3.259   9.266 -1.1344  0.3457 -0.2906
    7CHL1  H24A  507   5.404   3.313   9.341 -2.0948  1.0404 -1.5359
    7CHL1  H24B  508   5.560   3.231   9.314 -0.8427 -1.1970 -1.6983
    7CHL1   C25  509   5.515   3.346   9.151 -0.5638 -0.3429  0.4424
    7CHL1   H25  510   5.450   3.326   9.063  1.6090  1.2796 -1.6190
    7CHL1   C26  511   5.514   3.493   9.198 -0.1744 -0.3132  0.3828
    7CHL1  H26A  512   5.413   3.530   9.223 -1.2521 -2.3959 -0.7497
    7CHL1  H26B  513   5.574   3.499   9.291  0.0284 -1.6478  0.3442
    7CHL1  H26C  514   5.554   3.555   9.115 -0.7516 -1.6549 -0.9346
    7CHL1   C27  515   5.663   3.319   9.111  0.5885 -0.6412 -0.4906
    7CHL1  H27A  516   5.679   3.209   9.109 -0.6190 -0.8063 -1.6719
    7CHL1  H27B  517   5.703   3.374   9.023 -0.0846  3.4215  1.6385
    7CHL1  H27C  518   5.714   3.354   9.203  0.3531  0.9748 -0.9756
    8CHL1    C3  519   5.757   3.967  10.504  0.0510 -0.2665  0.2585
    8CHL1    H3  520   5.694   4.059  10.500  1.1158  0.5634  1.8396
    8CHL1    O3  521   5.791   3.956  10.640 -0.5417  0.1085  0.0931
    8CHL1   H3'  522   5.715   3.920  10.685 -0.2874 -1.5369 -0.7516
    8CHL1    C4  523   5.677   3.853  10.447  0.0429  0.4362  0.3606
    8CHL1   H4A  524   5.731   3.762  10.479  0.3707  0.6671  0.4620
    8CHL1   H4B  525   5.581   3.849  10.503  0.1691 -0.6819  0.4998
    8CHL1    C5  526   5.655   3.863  10.296 -0.3905  1.4365 -0.6071
    8CHL1    C6  527   5.538   3.841  10.228 -0.1692 -0.1009 -0.0217
    8CHL1    H6  528   5.447   3.823  10.287 -0.2228 -1.1517 -0.4068
    8CHL1    C7  529   5.522   3.828  10.075 -0.2140  0.2051 -0.2219
    8CHL1   H7A  530   5.442   3.754  10.055 -1.3427  1.3627 -0.0395
    8CHL1   H7B  531   5.481   3.928  10.049 -1.9190 -0.8436 -1.6098
    8CHL1    C8  532   5.652   3.811  10.000 -0.8158 -0.6266 -0.6444
    8CHL1    H8  533   5.680   3.704  10.008 -0.3056 -0.4795 -0.4045
    8CHL1   C14  534   5.629   3.839   9.854 -0.7398 -0.1829  0.4293
    8CHL1   H14  535   5.602   3.946   9.859  3.2670  1.0130 -1.7517
    8CHL1   C15  536   5.507   3.772   9.791 -0.4636 -0.1127  0.2291
    8CHL1  H15A  537   5.504   3.662   9.780  1.1964 -0.1325 -0.1962
    8CHL1  H15B  538   5.408   3.814   9.820  0.1384  0.1977  1.8751
    8CHL1   C16  539   5.538   3.806   9.641  0.5624 -0.6735 -0.2938
    8CHL1  H16A  540   5.518   3.711   9.586 -0.5522 -1.9675  2.2772
    8CHL1  H16B  541   5.476   3.891   9.606  2.1875  0.2873 -0.9052
    8CHL1   C17  542   5.685   3.871   9.632  0.0373  0.0863  0.0776
    8CHL1   H17  543   5.676   3.982   9.635 -0.5230  0.0144  1.0884
    8CHL1   C13  544   5.749   3.832   9.764 -0.2096 -0.5757  0.0938
    8CHL1   C18  545   5.801   3.689   9.759 -0.9384  0.1344  0.2193
    8CHL1  H18A  546   5.885   3.676   9.688 -1.0395 -0.6639  0.2472
    8CHL1  H18B  547   5.827   3.648   9.859 -0.2436  0.1195  0.0355
    8CHL1  H18C  548   5.720   3.626   9.716  0.2457 -0.7106 -0.8112
    8CHL1   C12  549   5.853   3.931   9.822  0.7482  0.0914  0.5364
    8CHL1  H12A  550   5.955   3.926   9.778 -0.0988  0.9505 -1.5844
    8CHL1  H12B  551   5.815   4.034   9.809 -0.1129 -0.2961 -0.0778
    8CHL1   C11  552   5.884   3.901   9.973  0.0928 -0.3449  0.0384
    8CHL1  H11A  553   5.937   3.804   9.978  2.5701  0.9529  0.0876
    8CHL1  H11B  554   5.943   3.987  10.011  0.0175  0.3358 -1.3638
    8CHL1    C9  555   5.758   3.909  10.060  0.3800 -0.1212 -0.0477
    8CHL1    H9  556   5.720   4.013  10.052 -0.3448 -0.2947  1.1375
    8CHL1   C10  557   5.779   3.886  10.210  0.4610 -0.3794 -0.6991
    8CHL1   C19  558   5.868   3.763  10.222  0.2163  0.2512  0.4502
    8CHL1  H19A  559   5.865   3.732  10.328  0.9342 -0.7336  0.1880
    8CHL1  H19B  560   5.835   3.677  10.159  1.1317 -0.4372  0.8995
    8CHL1  H19C  561   5.972   3.781  10.188  0.6585 -3.7443 -0.5737
    8CHL1    C1  562   5.863   4.008  10.271 -0.1811  0.0324 -0.0031
    8CHL1   H1A  563   5.962   4.004  10.220 -0.7334 -3.0567 -0.9628
    8CHL1   H1B  564   5.819   4.107  10.246  0.5737  0.6947  1.2317
    8CHL1    C2  565   5.886   3.994  10.420  0.2097 -0.3718 -0.4831
    8CHL1   H2A  566   5.937   4.082  10.465 -1.2384  1.1453 -1.7347
    8CHL1   H2B  567   5.946   3.902  10.434  0.5519 -0.0134  0.4182
    8CHL1   C20  568   5.756   3.833   9.506  0.5170  0.1004 -0.1377
    8CHL1   H20  569   5.815   3.738   9.508 -0.0845 -0.2604  0.4775
    8CHL1   C21  570   5.864   3.946   9.478 -0.1083  0.3157  0.4056
    8CHL1  H21A  571   5.820   4.045   9.503  0.5357  1.0043 -1.1324
    8CHL1  H21B  572   5.898   3.947   9.373 -1.1766 -0.4283  0.0498
    8CHL1  H21C  573   5.950   3.939   9.549 -0.4847 -1.4506  0.7074
    8CHL1   C22  574   5.664   3.831   9.379  0.0814  0.7740  0.1109
    8CHL1  H22A  575   5.722   3.800   9.289 -1.8250  0.4961 -1.0421
    8CHL1  H22B  576   5.588   3.750   9.384 -0.2063  0.9820 -0.7195
    8CHL1   C23  577   5.594   3.965   9.341 -0.0748 -0.1077 -0.6496
    8CHL1  H23A  578   5.541   3.994   9.434 -1.3821 -1.7717 -0.8468
    8CHL1  H23B  579   5.668   4.043   9.314  1.4741 -1.6993 -1.1069
    8CHL1   C24  580   5.492   3.957   9.226  0.5088 -0.1518  0.1157
    8CHL1  H24A  581   5.546   3.930   9.132 -0.6725  0.6143 -0.8005
    8CHL1  H24B  582   5.419   3.878   9.251  1.0060 -0.5667  0.2647
    8CHL1   C25  583   5.425   4.092   9.208  0.1640 -0.2167 -0.1701
    8CHL1   H25  584   5.495   4.171   9.243  0.8590 -0.7542 -0.3102
    8CHL1   C26  585   5.392   4.111   9.062  0.1925 -0.0732 -0.2003
    8CHL1  H26A  586   5.377   4.019   9.000  1.5597 -0.2093 -0.3567
    8CHL1  H26B  587   5.302   4.175   9.051  0.2981 -0.0979 -1.2485
    8CHL1  H26C  588   5.488   4.151   9.023  1.6904 -0.5840  2.7947
    8CHL1   C27  589   5.291   4.106   9.292  0.8795  0.5831  0.6254
    8CHL1  H27A  590   5.302   4.074   9.397  2.6078 -0.3828  0.1594
    8CHL1  H27B  591   5.252   4.210   9.288  1.8811  0.9503  0.2007
    8CHL1  H27C  592   5.219   4.038   9.241  0.7109  0.8296  0.5364
    9CHL1    C3  593   1.901   0.657  10.130  0.2928  0.9893 -0.4864
    9CHL1    H3  594   1.814   0.719  10.099 -0.9983 -0.4634  0.1518
    9CHL1    O3  595   1.913   0.668  10.266 -0.5533 -0.7231  0.2426
    9CHL1   H3'  596   1.860   0.603  10.313  0.6743 -2.0576 -0.1626
    9CHL1    C4  597   1.874   0.510  10.091  0.5955  0.0652 -0.2655
    9CHL1   H4A  598   1.954   0.445  10.133 -2.2705 -3.9718 -0.7346
    9CHL1   H4B  599   1.778   0.476  10.135 -0.0299  1.7055 -0.3584
    9CHL1    C5  600   1.886   0.493   9.940  0.1839 -0.1371  0.5453
    9CHL1    C6  601   1.783   0.448   9.875  0.6430  0.4823  0.1832
    9CHL1    H6  602   1.694   0.410   9.926 -1.0642  0.1167 -2.9173
    9CHL1    C7  603   1.779   0.423   9.724  0.6179 -0.5847  0.7730
    9CHL1   H7A  604   1.721   0.331   9.702 -0.6294  0.5699 -0.8388
    9CHL1   H7B  605   1.729   0.513   9.681  3.4544  0.6678 -0.0360
    9CHL1    C8  606   1.923   0.412   9.662 -0.1413  0.4389  0.1779
    9CHL1    H8  607   1.966   0.316   9.697 -1.2052 -0.3268 -0.5461
    9CHL1   C14  608   1.902   0.424   9.507  0.2391  0.3032  0.1845
    9CHL1   H14  609   1.850   0.522   9.497 -1.1089 -0.3650  0.5071
    9CHL1   C15  610   1.811   0.327   9.440  0.9199 -0.2264  0.1679
    9CHL1  H15A  611   1.832   0.225   9.478 -1.6825 -0.7710  0.2927
    9CHL1  H15B  612   1.704   0.349   9.463  1.1590  0.6488  0.4533
    9CHL1   C16  613   1.848   0.342   9.290  0.7910 -0.1745 -0.9186
    9CHL1  H16A  614   1.874   0.237   9.265 -0.3720 -1.0517  1.4405
    9CHL1  H16B  615   1.761   0.373   9.228  0.2539  1.1469  0.4594
    9CHL1   C17  616   1.967   0.434   9.284 -0.7293 -0.1804  0.4570
    9CHL1   H17  617   1.916   0.533   9.285 -0.6203 -0.1188 -0.0276
    9CHL1   C13  618   2.029   0.426   9.424  0.4284  0.0482  0.7135
    9CHL1   C18  619   2.116   0.294   9.448 -0.9564 -0.0787  0.4389
    9CHL1  H18A  620   2.048   0.206   9.455 -3.0991  1.4685 -0.3457
    9CHL1  H18B  621   2.186   0.279   9.363 -0.1301  2.5712  0.6034
    9CHL1  H18C  622   2.180   0.305   9.537 -2.9048 -1.5873  2.0840
    9CHL1   C12  623   2.119   0.549   9.469 -0.5683 -0.3499 -0.6085
    9CHL1  H12A  624   2.220   0.526   9.428 -1.1047 -2.5671 -0.7751
    9CHL1  H12B  625   2.074   0.643   9.433  2.5156  1.5451  0.2604
    9CHL1   C11  626   2.134   0.561   9.623  0.8421 -0.1812 -0.8682
    9CHL1  H11A  627   2.215   0.494   9.659  1.5091  0.7436 -0.6270
    9CHL1  H11B  628   2.180   0.658   9.651  0.8595 -1.1341  2.5815
    9CHL1    C9  629   2.005   0.538   9.707 -0.1697 -0.3832  0.4522
    9CHL1    H9  630   1.939   0.620   9.671  0.3881  0.1100  0.5402
    9CHL1   C10  631   2.014   0.550   9.865  0.2533 -0.1115 -0.4391
    9CHL1   C19  632   2.134   0.466   9.900  0.3487 -0.2579  0.5560
    9CHL1  H19A  633   2.232   0.507   9.868 -0.2362 -0.2152 -1.2551
    9CHL1  H19B  634   2.138   0.432  10.006 -1.3712 -0.8562  0.4431
    9CHL1  H19C  635   2.135   0.365   9.852  0.1289  0.2034 -0.4248
    9CHL1    C1  636   2.048   0.694   9.915  0.1597 -0.0138  0.1950
    9CHL1   H1A  637   2.149   0.723   9.879  0.7107  0.9017  2.4134
    9CHL1   H1B  638   1.975   0.765   9.871 -1.2060 -2.4406 -1.5936
    9CHL1    C2  639   2.036   0.705  10.066 -0.5599  0.4529  0.0267
    9CHL1   H2A  640   2.053   0.811  10.096  0.0284 -0.1240  1.7574
    9CHL1   H2B  641   2.123   0.646  10.099 -1.1502 -0.5758 -0.2371
    9CHL1   C20  642   2.056   0.420   9.156 -0.0145 -0.9059 -0.0812
    9CHL1   H20  643   2.095   0.316   9.155  0.0487 -0.8856  0.2436
    9CHL1   C21  644   2.167   0.527   9.161  0.2398 -0.1350 -0.0882
    9CHL1  H21A  645   2.217   0.542   9.063 -0.0584  0.0605 -0.2121
    9CHL1  H21B  646   2.243   0.502   9.239 -0.0787  2.2533  1.0257
    9CHL1  H21C  647   2.121   0.624   9.191 -0.3598 -0.9401  1.6772
    9CHL1   C22  648   1.972   0.442   9.021 -0.9322  0.4198 -0.3632
    9CHL1  H22A  649   1.885   0.374   9.016  0.2110 -1.0196 -0.9422
    9CHL1  H22B  650   1.926   0.543   9.012 -0.7051  0.6429  0.8992
    9CHL1   C23  651   2.057   0.407   8.891  0.1127  0.4461  0.5281
    9CHL1  H23A  652   2.148   0.470   8.890  0.3396  0.1277  0.7965
    9CHL1  H23B  653   2.102   0.305   8.895 -0.9049  0.0219  1.5957
    9CHL1   C24  654   1.980   0.442   8.756 -0.5136 -0.7598  0.1296
    9CHL1  H24A  655   1.892   0.374   8.757  1.7851 -3.8436  2.4063
    9CHL1  H24B  656   1.935   0.542   8.777 -1.5834 -1.2185  0.0866
    9CHL1   C25  657   2.061   0.437   8.628 -0.5996 -0.0434  0.6037
    9CHL1   H25  658   2.147   0.505   8.645 -1.4017  2.1947 -3.4141
    9CHL1   C26  659   2.091   0.287   8.594 -0.1836 -0.0242  0.3555
    9CHL1  H26A  660   2.138   0.234   8.680  1.5808 -1.2037 -1.2854
    9CHL1  H26B  661   1.993   0.237   8.578 -0.6541  1.6404 -2.2669
    9CHL1  H26C  662   2.164   0.288   8.510 -1.1501  1.0116 -0.4993
    9CHL1   C27  663   1.976   0.505   8.515  0.4405  0.3051 -0.4236
    9CHL1  H27A  664   1.877   0.457   8.504 -0.1407  1.6656 -1.3025
    9CHL1  H27B  665   1.945   0.607   8.548  0.3575 -0.1834  1.0398
    9CHL1  H27C  666   2.019   0.508   8.413 -0.4533  0.5748 -0.7996
   10CHL1    C3  667   0.992   4.460  10.050  0.0535  0.3940  0.7883
   10CHL1    H3  668   0.956   4.356  10.066 -2.2350  0.6477 -2.2325
   10CHL1    O3  669   1.064   4.509  10.166  0.3300  0.0132 -0.5461
   10CHL1   H3'  670   1.117   4.585  10.140 -1.5005  2.4288  2.3609
   10CHL1    C4  671   1.076   4.480   9.925 -0.3215  0.3033  0.1490
   10CHL1   H4A  672   1.112   4.585   9.921  0.1588  0.0941 -1.2808
   10CHL1   H4B  673   1.167   4.418   9.940 -0.1869  0.4128 -0.2046
   10CHL1    C5  674   0.997   4.436   9.803  0.1831 -0.0346  0.3731
   10CHL1    C6  675   1.040   4.327   9.735 -0.3324 -0.1135  0.0822
   10CHL1    H6  676   1.133   4.273   9.759  1.0873  1.7567 -1.0865
   10CHL1    C7  677   0.964   4.285   9.614  0.1845  0.6347  0.2844
   10CHL1   H7A  678   1.025   4.256   9.526  1.6480  0.3911  1.3534
   10CHL1   H7B  679   0.902   4.198   9.644 -0.1922  1.2761  1.3828
   10CHL1    C8  680   0.867   4.388   9.555  0.5890 -0.2882 -0.7523
   10CHL1    H8  681   0.913   4.475   9.504  2.0571 -0.4882  0.1925
   10CHL1   C14  682   0.781   4.326   9.440  0.1959  0.9522 -0.3618
   10CHL1   H14  683   0.718   4.250   9.490  0.0949  1.1638 -0.1703
   10CHL1   C15  684   0.851   4.258   9.322 -0.4270  0.0322  0.0420
   10CHL1  H15A  685   0.945   4.314   9.300  0.2303 -1.0125  0.1701
   10CHL1  H15B  686   0.889   4.158   9.352  2.9639  0.7752 -1.4684
   10CHL1   C16  687   0.750   4.253   9.208 -0.0347  0.0095 -0.1526
   10CHL1  H16A  688   0.786   4.316   9.124 -0.0074 -0.3762 -0.4307
   10CHL1  H16B  689   0.730   4.153   9.164 -2.4227  0.8035 -0.9417
   10CHL1   C17  690   0.620   4.324   9.254  0.0895  0.3212  0.4454
   10CHL1   H17  691   0.558   4.240   9.293 -1.1631 -0.2651 -2.7034
   10CHL1   C13  692   0.673   4.415   9.376 -0.7585  0.3924 -0.4096
   10CHL1   C18  693   0.734   4.550   9.319  0.1250  0.5558  0.8388
   10CHL1  H18A  694   0.822   4.587   9.375 -0.0995  0.7758  1.0520
   10CHL1  H18B  695   0.768   4.525   9.217  1.8544  1.0944  1.2657
   10CHL1  H18C  696   0.656   4.630   9.312 -0.1066  0.2420 -0.2802
   10CHL1   C12  697   0.584   4.460   9.488  0.3117  0.3057 -0.3607
   10CHL1  H12A  698   0.510   4.538   9.458 -0.7084  0.1870  1.8067
   10CHL1  H12B  699   0.521   4.377   9.526  2.6608 -0.6826  1.4807
   10CHL1   C11  700   0.654   4.527   9.607  0.0568  0.1834 -0.0460
   10CHL1  H11A  701   0.688   4.628   9.576  0.6127  0.1351  0.4054
   10CHL1  H11B  702   0.579   4.542   9.688  0.4630  3.2045 -0.1523
   10CHL1    C9  703   0.774   4.441   9.666  0.3613 -0.7446 -0.3186
   10CHL1    H9  704   0.728   4.346   9.704  0.8363 -0.4943  0.8914
   10CHL1   C10  705   0.860   4.505   9.776 -0.4949 -0.2176 -0.1090
   10CHL1   C19  706   0.882   4.652   9.739 -0.6879 -0.2191  0.3879
   10CHL1  H19A  707   0.787   4.708   9.751 -1.2275 -1.1312  0.4412
   10CHL1  H19B  708   0.959   4.696   9.806 -1.7984 -1.0296  2.2504
   10CHL1  H19C  709   0.924   4.657   9.636  0.0895 -0.1597  0.6982
   10CHL1    C1  710   0.780   4.500   9.911  0.2663  0.2274 -0.0163
   10CHL1   H1A  711   0.697   4.574   9.897 -0.1100 -0.2841 -0.4950
   10CHL1   H1B  712   0.754   4.393   9.923 -0.1356  0.3896  0.5727
   10CHL1    C2  713   0.864   4.547  10.041 -0.2196  0.3274  0.4055
   10CHL1   H2A  714   0.806   4.527  10.134  0.4007 -0.0574  0.7125
   10CHL1   H2B  715   0.897   4.653  10.037  1.5591 -0.2114  0.7509
   10CHL1   C20  716   0.542   4.391   9.132 -0.1387 -0.2876 -0.1401
   10CHL1   H20  717   0.598   4.482   9.101  0.9548 -1.0046 -0.2918
   10CHL1   C21  718   0.407   4.448   9.185  0.4643  0.1230  0.4759
   10CHL1  H21A  719   0.361   4.516   9.111  0.5207 -1.1726 -0.7828
   10CHL1  H21B  720   0.422   4.499   9.282 -0.4433 -0.4882  0.9445
   10CHL1  H21C  721   0.324   4.376   9.203  1.9746 -1.7265  0.3159
   10CHL1   C22  722   0.523   4.308   9.004 -0.9125 -0.3711 -0.1358
   10CHL1  H22A  723   0.625   4.264   8.992  0.0009  1.3352  1.1046
   10CHL1  H22B  724   0.463   4.220   9.034 -0.0330 -0.6504  0.8489
   10CHL1   C23  725   0.464   4.381   8.889  0.9522 -0.1300  0.1997
   10CHL1  H23A  726   0.359   4.413   8.909  0.7785  2.5521 -4.2555
   10CHL1  H23B  727   0.520   4.475   8.872  3.0479 -1.5408 -0.9321
   10CHL1   C24  728   0.475   4.315   8.753 -0.3082  0.1955  0.6360
   10CHL1  H24A  729   0.583   4.314   8.728 -1.1584  0.3835 -3.4796
   10CHL1  H24B  730   0.426   4.216   8.753 -0.1315  0.0566 -2.7547
   10CHL1   C25  731   0.396   4.404   8.649  0.3145  0.1553 -0.1149
   10CHL1   H25  732   0.433   4.508   8.652 -0.3687  0.3612  2.5385
   10CHL1   C26  733   0.411   4.342   8.508  0.4364 -0.4338  0.4326
   10CHL1  H26A  734   0.349   4.398   8.435  0.6907  0.2384  0.7334
   10CHL1  H26B  735   0.511   4.333   8.461  0.0697  0.6413 -0.5761
   10CHL1  H26C  736   0.372   4.239   8.520  1.2101 -1.0693 -2.2197
   10CHL1   C27  737   0.247   4.409   8.673 -0.2945 -0.4882  0.5321
   10CHL1  H27A  738   0.202   4.311   8.700 -2.5139 -0.0150 -1.3537
   10CHL1  H27B  739   0.225   4.466   8.766 -2.1901 -1.3687  0.6474
   10CHL1  H27C  740   0.187   4.447   8.587  0.0115  0.6664  0.8159
   11CHL1    C3  741   3.687   0.940   9.984  0.1975 -0.6413 -0.5188
   11CHL1    H3  742   3.774   1.008   9.974  0.7489 -1.4175 -1.0045
   11CHL1    O3  743   3.647   0.934  10.121  0.2322 -0.3434  0.1206
   11CHL1   H3'  744   3.731   0.938  10.167  0.3022 -2.2394  0.1918
   11CHL1    C4  745   3.572   1.001   9.906 -0.0803 -0.3221 -0.1775
   11CHL1   H4A  746   3.478   0.945   9.922  0.6392 -2.6690 -3.5773
   11CHL1   H4B  747   3.558   1.108   9.932  1.5400  0.1293 -1.0664
   11CHL1    C5  748   3.609   0.988   9.754  0.6730  0.1946 -0.3971
   11CHL1    C6  749   3.612   1.098   9.677  0.6580 -0.5334  1.4521
   11CHL1    H6  750   3.587   1.191   9.729 -0.1295 -0.7586  1.4944
   11CHL1    C7  751   3.640   1.091   9.528  0.3713 -0.1417 -0.4666
   11CHL1   H7A  752   3.579   1.160   9.466  0.1228  0.0834  0.0256
   11CHL1   H7B  753   3.747   1.116   9.509  0.5091 -0.5753 -0.2797
   11CHL1    C8  754   3.626   0.947   9.470 -0.4968 -0.4903 -0.7870
   11CHL1    H8  755   3.517   0.927   9.457 -0.8515  1.2278 -0.5248
   11CHL1   C14  756   3.689   0.941   9.331  0.3645 -0.8921  0.4525
   11CHL1   H14  757   3.796   0.965   9.340  0.3191  0.8536 -2.6810
   11CHL1   C15  758   3.642   1.049   9.230 -0.1398  0.6646  0.5757
   11CHL1  H15A  759   3.535   1.077   9.243 -0.2765  2.6102 -3.9847
   11CHL1  H15B  760   3.714   1.131   9.251 -0.4523  1.2796 -0.7855
   11CHL1   C16  761   3.670   0.983   9.095  0.0003  0.7159 -0.6348
   11CHL1  H16A  762   3.578   0.980   9.033  0.0674 -0.1834 -0.6925
   11CHL1  H16B  763   3.740   1.051   9.041  0.5685  0.3785 -0.3275
   11CHL1   C17  764   3.734   0.844   9.122  0.1202  0.0009  0.1548
   11CHL1   H17  765   3.841   0.855   9.152 -0.1640  0.6009  0.9477
   11CHL1   C13  766   3.677   0.804   9.259 -0.7563 -0.6362 -0.0159
   11CHL1   C18  767   3.524   0.758   9.245  0.4564 -0.3671  0.0535
   11CHL1  H18A  768   3.526   0.657   9.199 -0.9213  0.2325 -1.3905
   11CHL1  H18B  769   3.468   0.755   9.340  0.4961 -3.8910  0.0317
   11CHL1  H18C  770   3.465   0.813   9.169  0.8757  1.5893  1.1251
   11CHL1   C12  771   3.763   0.708   9.346  0.0965 -0.0875 -0.0239
   11CHL1  H12A  772   3.763   0.602   9.313 -2.4842 -0.5133  1.2440
   11CHL1  H12B  773   3.872   0.730   9.343  0.2530 -0.3114  2.6216
   11CHL1   C11  774   3.715   0.700   9.493 -0.0540 -0.2309  0.3792
   11CHL1  H11A  775   3.617   0.648   9.488  0.5770 -1.1804 -4.5996
   11CHL1  H11B  776   3.794   0.643   9.546  0.8807  1.0394  0.3742
   11CHL1    C9  777   3.695   0.842   9.553 -0.0436  0.2321  0.5039
   11CHL1    H9  778   3.798   0.881   9.565  0.3925 -0.7322 -0.0919
   11CHL1   C10  779   3.648   0.847   9.699  0.5914  1.3831 -0.6693
   11CHL1   C19  780   3.527   0.750   9.712  0.0360 -1.4986 -0.8602
   11CHL1  H19A  781   3.565   0.648   9.691  0.0082 -1.4189 -1.3156
   11CHL1  H19B  782   3.486   0.756   9.815  0.5234 -0.4775 -0.7193
   11CHL1  H19C  783   3.453   0.785   9.637 -0.2846  1.6965  0.8394
   11CHL1    C1  784   3.759   0.799   9.796 -0.7383 -0.3141 -0.0553
   11CHL1   H1A  785   3.789   0.697   9.764  0.1286 -0.0432 -0.1210
   11CHL1   H1B  786   3.846   0.869   9.793 -2.9480  2.5555  0.6089
   11CHL1    C2  787   3.725   0.800   9.940  0.0575  0.0672 -0.1165
   11CHL1   H2A  788   3.822   0.772   9.987  0.8099 -0.8245 -2.1388
   11CHL1   H2B  789   3.642   0.729   9.960  0.7471 -0.8669 -0.5123
   11CHL1   C20  790   3.727   0.759   8.993  0.3761 -0.7215 -0.4854
   11CHL1   H20  791   3.621   0.747   8.963 -0.4136 -0.3203  1.9872
   11CHL1   C21  792   3.774   0.616   9.014  0.3574  0.6150 -0.5366
   11CHL1  H21A  793   3.764   0.548   8.927  0.3910  0.0703 -0.1227
   11CHL1  H21B  794   3.715   0.576   9.100 -0.9571  4.1659  0.2926
   11CHL1  H21C  795   3.879   0.624   9.050 -0.4407 -2.4720  2.8494
   11CHL1   C22  796   3.801   0.821   8.873  0.0767 -0.2589 -0.3614
   11CHL1  H22A  797   3.759   0.923   8.857 -1.6686 -0.8907  0.0716
   11CHL1  H22B  798   3.908   0.826   8.902 -0.1696 -0.0538  0.5282
   11CHL1   C23  799   3.782   0.754   8.739 -0.1975  0.5038  0.3457
   11CHL1  H23A  800   3.819   0.648   8.739 -1.1029  0.1679 -1.1378
   11CHL1  H23B  801   3.672   0.751   8.729  0.0240 -0.1796 -2.5878
   11CHL1   C24  802   3.844   0.825   8.625  0.4669 -0.4331  0.9940
   11CHL1  H24A  803   3.825   0.935   8.630 -2.5486 -0.7304 -2.0812
   11CHL1  H24B  804   3.955   0.821   8.629  0.6312  1.7706 -0.1741
   11CHL1   C25  805   3.802   0.781   8.489  0.0190 -0.3869  0.6842
   11CHL1   H25  806   3.816   0.672   8.469  1.4481 -0.2815  1.0999
   11CHL1   C26  807   3.659   0.810   8.464 -0.4610 -0.2905 -0.0127
   11CHL1  H26A  808   3.585   0.747   8.517  0.1933 -1.4830 -0.5003
   11CHL1  H26B  809   3.623   0.914   8.483  2.4562  0.7692  0.0187
   11CHL1  H26C  810   3.640   0.788   8.357 -0.2444  0.3358 -0.1852
   11CHL1   C27  811   3.890   0.854   8.379 -0.0050  0.7654 -0.0986
   11CHL1  H27A  812   3.871   0.812   8.278 -1.1545  0.2423  0.3172
   11CHL1  H27B  813   3.871   0.963   8.380  3.2150  1.3625  0.4291
   11CHL1  H27C  814   3.999   0.835   8.375 -0.0940  0.2806 -0.3363
   12CHL1    C3  815   6.610   3.715  10.336  0.3455 -0.0108  0.8003
   12CHL1    H3  816   6.619   3.826  10.339  0.6382  0.0228 -0.9790
   12CHL1    O3  817   6.632   3.670  10.472  0.0528 -0.5146 -0.2073
   12CHL1   H3'  818   6.648   3.753  10.519 -1.1298  0.2841 -1.2070
   12CHL1    C4  819   6.475   3.672  10.289  0.2133  0.5966  0.4438
   12CHL1   H4A  820   6.470   3.561  10.288 -1.8765  0.6534  1.0582
   12CHL1   H4B  821   6.401   3.711  10.362  0.9057  0.0926  1.4313
   12CHL1    C5  822   6.452   3.717  10.144  0.1777 -0.2781  0.3199
   12CHL1    C6  823   6.343   3.789  10.107  0.1555 -0.0646  0.4579
   12CHL1    H6  824   6.262   3.817  10.177  0.0113  0.6677  0.0100
   12CHL1    C7  825   6.320   3.827   9.961  0.5563  0.1599  0.2974
   12CHL1   H7A  826   6.211   3.832   9.939  0.4118 -1.1999  0.6372
   12CHL1   H7B  827   6.353   3.933   9.966 -1.4568  0.8539 -0.8652
   12CHL1    C8  828   6.409   3.763   9.858  0.0580  0.4836 -0.2720
   12CHL1    H8  829   6.373   3.661   9.831  2.6700 -0.3983 -0.5490
   12CHL1   C14  830   6.414   3.855   9.731 -0.2464 -0.1683 -0.2035
   12CHL1   H14  831   6.464   3.948   9.765 -1.9604  1.4330 -1.9413
   12CHL1   C15  832   6.278   3.890   9.671 -0.3786 -0.0565 -1.7076
   12CHL1  H15A  833   6.210   3.803   9.681 -0.3754  0.2013  0.7490
   12CHL1  H15B  834   6.241   3.980   9.724  0.3451 -0.0582 -1.1952
   12CHL1   C16  835   6.306   3.901   9.526 -0.7346 -0.5712  0.3558
   12CHL1  H16A  836   6.250   3.823   9.471  0.8396 -2.4962  1.4275
   12CHL1  H16B  837   6.263   3.995   9.484  0.2571 -0.6036 -0.7636
   12CHL1   C17  838   6.455   3.887   9.508 -0.3234  0.8463 -0.0335
   12CHL1   H17  839   6.498   3.989   9.518 -1.1169  1.2415 -0.5832
   12CHL1   C13  840   6.499   3.793   9.618 -0.3242 -0.0724  0.4625
   12CHL1   C18  841   6.442   3.654   9.585 -0.2287 -0.0743  0.2950
   12CHL1  H18A  842   6.495   3.626   9.491  0.9766  1.8433  0.3940
   12CHL1  H18B  843   6.482   3.573   9.649  1.2550  0.2538 -0.2077
   12CHL1  H18C  844   6.331   3.662   9.583 -0.2434 -0.4675 -1.6767
   12CHL1   C12  845   6.648   3.784   9.666  0.3169 -0.2049 -0.1589
   12CHL1  H12A  846   6.711   3.751   9.581 -2.2617 -1.1475 -1.7475
   12CHL1  H12B  847   6.689   3.880   9.703 -1.2722  0.4298  0.0016
   12CHL1   C11  848   6.648   3.699   9.792 -0.4454  0.3138  0.1929
   12CHL1  H11A  849   6.640   3.590   9.771  0.5303  0.1270  0.7435
   12CHL1  H11B  850   6.750   3.712   9.836 -0.8717 -0.6931  1.5283
   12CHL1    C9  851   6.550   3.743   9.908 -0.0489 -0.0540  0.6416
   12CHL1    H9  852   6.598   3.841   9.928  1.4775 -0.3679 -1.3125
   12CHL1   C10  853   6.562   3.664  10.048  0.2090 -0.1459  0.6561
   12CHL1   C19  854   6.550   3.509  10.019  0.1475 -0.3373  0.9317
   12CHL1  H19A  855   6.458   3.475   9.967 -1.2428  2.3267  1.5700
   12CHL1  H19B  856   6.633   3.484   9.949 -1.1741 -0.0200 -0.7821
   12CHL1  H19C  857   6.575   3.447  10.108 -1.3926  0.1619  1.7229
   12CHL1    C1  858   6.701   3.702  10.103 -0.3570 -0.0420  0.4456
   12CHL1   H1A  859   6.785   3.664  10.042 -0.4055  1.5410 -0.6218
   12CHL1   H1B  860   6.710   3.813  10.096  1.6976 -0.2934 -1.0182
   12CHL1    C2  861   6.725   3.658  10.245 -0.7031  0.0259 -0.1307
   12CHL1   H2A  862   6.823   3.697  10.278 -0.1613 -0.3850 -1.2382
   12CHL1   H2B  863   6.725   3.547  10.252  1.7451 -0.0890 -1.3936
   12CHL1   C20  864   6.489   3.838   9.363  0.2336  0.4745  0.5410
   12CHL1   H20  865   6.442   3.739   9.346 -1.1421  1.6015 -2.5294
   12CHL1   C21  866   6.647   3.820   9.350 -0.0972  0.0225  0.4391
   12CHL1  H21A  867   6.672   3.797   9.245 -0.9621  1.3206 -0.0611
   12CHL1  H21B  868   6.665   3.722   9.400  0.0305  0.0500  0.4461
   12CHL1  H21C  869   6.707   3.899   9.401 -1.4919  0.7310  1.0110
   12CHL1   C22  870   6.428   3.935   9.256  0.0339  0.2351  0.3076
   12CHL1  H22A  871   6.320   3.908   9.246  0.5272 -0.9298 -2.1792
   12CHL1  H22B  872   6.434   4.041   9.287  0.8436  0.7986 -1.6774
   12CHL1   C23  873   6.484   3.922   9.111 -0.2120  0.3589 -0.0894
   12CHL1  H23A  874   6.589   3.957   9.104 -0.7249  1.9514  0.0473
   12CHL1  H23B  875   6.482   3.812   9.093  0.5861  0.5414 -1.3529
   12CHL1   C24  876   6.403   3.972   8.992 -0.0566  0.0562  0.4944
   12CHL1  H24A  877   6.302   3.925   8.987 -0.6036  1.3961 -2.5462
   12CHL1  H24B  878   6.387   4.082   8.991  0.8480  0.1856  0.6284
   12CHL1   C25  879   6.468   3.929   8.857  0.2859 -0.9091 -0.2128
   12CHL1   H25  880   6.474   3.818   8.865 -2.0052 -1.0853 -0.5618
   12CHL1   C26  881   6.381   3.975   8.738  0.2833  0.1899  0.3000
   12CHL1  H26A  882   6.368   4.085   8.734  0.0209  0.2732  2.6661
   12CHL1  H26B  883   6.434   3.940   8.646  0.5066  4.2060 -1.2249
   12CHL1  H26C  884   6.285   3.921   8.753 -0.3153  0.1662 -3.1235
   12CHL1   C27  885   6.601   3.976   8.835 -0.4249 -0.4734 -0.0493
   12CHL1  H27A  886   6.668   3.913   8.897  1.3543  1.6732  0.2852
   12CHL1  H27B  887   6.640   3.964   8.732 -1.6590 -0.3518 -0.5368
   12CHL1  H27C  888   6.616   4.083   8.864  0.0500 -0.4199 -0.4864
   13CHL1    C3  889   5.531   5.707   9.887  0.3450 -0.4290 -0.0369
   13CHL1    H3  890   5.621   5.748   9.837 -0.2981  1.4335  0.2680
   13CHL1    O3  891   5.522   5.734  10.027  0.5504 -0.0874 -0.4210
   13CHL1   H3'  892   5.447   5.685  10.061  0.4272 -0.0123 -0.5834
   13CHL1    C4  893   5.411   5.783   9.820  0.4742  0.1327 -0.4364
   13CHL1   H4A  894   5.325   5.727   9.863  1.4375  0.4520  1.9919
   13CHL1   H4B  895   5.427   5.889   9.850  2.1097 -0.5613  1.2493
   13CHL1    C5  896   5.403   5.758   9.670  0.2736 -1.1559  0.5004
   13CHL1    C6  897   5.411   5.865   9.582 -0.1841 -0.2323  0.0151
   13CHL1    H6  898   5.420   5.968   9.622  0.3433 -0.1900 -0.1968
   13CHL1    C7  899   5.413   5.851   9.432 -0.2745 -0.2022 -0.7889
   13CHL1   H7A  900   5.350   5.918   9.369  0.5886  0.6360 -0.7572
   13CHL1   H7B  901   5.517   5.861   9.395 -0.7086 -1.3990 -2.4187
   13CHL1    C8  902   5.375   5.703   9.387  0.1185  0.5187  0.3473
   13CHL1    H8  903   5.265   5.696   9.399 -0.0070 -0.9950 -1.5939
   13CHL1   C14  904   5.409   5.682   9.242  0.0791 -0.0847 -0.5371
   13CHL1   H14  905   5.517   5.706   9.239  1.1313 -3.7207  3.6605
   13CHL1   C15  906   5.350   5.773   9.136  0.0584  0.0892 -0.2053
   13CHL1  H15A  907   5.242   5.771   9.159  0.0669  1.6758  0.0446
   13CHL1  H15B  908   5.376   5.880   9.150  0.4560 -0.2799  2.2167
   13CHL1   C16  909   5.390   5.708   9.006 -0.1663 -0.6569 -0.2112
   13CHL1  H16A  910   5.297   5.702   8.945 -1.1797 -0.0986  1.2610
   13CHL1  H16B  911   5.467   5.766   8.950 -0.3726  0.2785  0.4591
   13CHL1   C17  912   5.435   5.565   9.043 -0.6028  0.4025  0.0971
   13CHL1   H17  913   5.546   5.572   9.050 -0.6100  0.8200 -0.1883
   13CHL1   C13  914   5.393   5.540   9.187  1.2963 -0.2322 -0.1141
   13CHL1   C18  915   5.247   5.497   9.193 -0.1011  0.5075  0.7666
   13CHL1  H18A  916   5.190   5.537   9.281  1.5042  3.8427  0.3662
   13CHL1  H18B  917   5.198   5.530   9.099  1.9708  0.4013 -0.3778
   13CHL1  H18C  918   5.239   5.387   9.188  1.1380  0.5144 -2.1008
   13CHL1   C12  919   5.481   5.450   9.272 -0.5050  0.0402 -0.0391
   13CHL1  H12A  920   5.466   5.348   9.233 -1.3076  0.4379 -0.7712
   13CHL1  H12B  921   5.583   5.493   9.254  0.5302 -2.7244 -0.9725
   13CHL1   C11  922   5.447   5.456   9.421 -0.0190 -0.1820  0.8079
   13CHL1  H11A  923   5.344   5.415   9.434 -0.6946  1.1366 -0.2422
   13CHL1  H11B  924   5.520   5.395   9.477  3.2171  1.4127 -1.5044
   13CHL1    C9  925   5.450   5.598   9.478  1.3230  0.0232  0.6742
   13CHL1    H9  926   5.553   5.642   9.474  1.0078  0.6399 -1.4335
   13CHL1   C10  927   5.406   5.612   9.626 -0.2300 -0.0497 -0.0621
   13CHL1   C19  928   5.273   5.542   9.643 -0.2883  0.0599 -0.5217
   13CHL1  H19A  929   5.199   5.565   9.564 -2.0118 -0.2458  0.9711
   13CHL1  H19B  930   5.305   5.436   9.655  1.3925  0.4416 -1.4505
   13CHL1  H19C  931   5.216   5.577   9.731  0.2105  2.3040 -1.0583
   13CHL1    C1  932   5.516   5.530   9.709 -0.3423  0.0283 -0.3479
   13CHL1   H1A  933   5.515   5.422   9.682 -0.0385 -0.1852  0.4717
   13CHL1   H1B  934   5.610   5.575   9.671 -0.4700  1.8398  1.3989
   13CHL1    C2  935   5.524   5.561   9.861  0.3543 -0.2663 -0.3855
   13CHL1   H2A  936   5.617   5.513   9.900  0.4293 -0.1387 -0.4104
   13CHL1   H2B  937   5.431   5.518   9.903 -0.1856  1.2928  0.0318
   13CHL1   C20  938   5.404   5.461   8.925 -0.7406 -0.4341  0.1872
   13CHL1   H20  939   5.294   5.467   8.912 -0.6084 -1.0985 -1.2532
   13CHL1   C21  940   5.454   5.316   8.947  0.5914 -0.1528  0.3808
   13CHL1  H21A  941   5.408   5.270   9.037  2.2904 -1.8252  0.4168
   13CHL1  H21B  942   5.565   5.321   8.947  0.5791  0.4068 -1.1538
   13CHL1  H21C  943   5.418   5.254   8.862 -0.5195 -1.4124  1.7438
   13CHL1   C22  944   5.462   5.519   8.794 -0.7301 -0.0039 -0.5691
   13CHL1  H22A  945   5.513   5.617   8.798 -1.5173  0.3849  0.6762
   13CHL1  H22B  946   5.541   5.455   8.751  2.4271  2.8437  0.7680
   13CHL1   C23  947   5.363   5.534   8.683 -0.6118  0.7166 -0.2360
   13CHL1  H23A  948   5.278   5.600   8.711 -0.3102  1.5871 -1.3554
   13CHL1  H23B  949   5.408   5.584   8.595  1.9753  0.4181  0.8642
   13CHL1   C24  950   5.291   5.406   8.637 -0.0862  0.0603  0.1359
   13CHL1  H24A  951   5.365   5.343   8.585 -0.7611  1.1565 -2.2415
   13CHL1  H24B  952   5.237   5.354   8.719  1.9633 -1.3499  0.6245
   13CHL1   C25  953   5.182   5.424   8.535  0.0452 -0.0207 -0.4963
   13CHL1   H25  954   5.224   5.488   8.455 -1.9885  3.2532  0.9536
   13CHL1   C26  955   5.132   5.296   8.464 -0.0215 -0.4215  0.5639
   13CHL1  H26A  956   5.205   5.258   8.390 -1.4736 -3.1433  0.4601
   13CHL1  H26B  957   5.125   5.215   8.540  0.6821 -0.6338  0.3997
   13CHL1  H26C  958   5.037   5.321   8.411  0.6624 -1.3284 -1.1088
   13CHL1   C27  959   5.059   5.496   8.590 -0.1864  0.1288 -0.3542
   13CHL1  H27A  960   5.089   5.594   8.635  0.6480  0.5876 -1.8616
   13CHL1  H27B  961   4.987   5.515   8.508 -1.6722  2.7799  1.4776
   13CHL1  H27C  962   5.009   5.429   8.662 -0.8691  0.9749 -0.0281
   14CHL1    C3  963   5.146   2.455  10.218 -1.0055 -0.0783 -0.5923
   14CHL1    H3  964   5.165   2.564  10.208  1.4594 -0.3273  0.8478
   14CHL1    O3  965   5.120   2.442  10.356 -0.2513  0.5883  0.1204
   14CHL1   H3'  966   5.145   2.353  10.381 -1.3766  0.0557 -0.6202
   14CHL1    C4  967   5.024   2.410  10.138 -1.0580 -0.0950 -0.3166
   14CHL1   H4A  968   5.019   2.301  10.153 -4.4123  0.0567  0.0746
   14CHL1   H4B  969   4.937   2.463  10.183  0.2893 -0.3020  2.6269
   14CHL1    C5  970   5.056   2.453   9.998 -0.2408 -0.2082  0.4878
   14CHL1    C6  971   4.981   2.552   9.939  0.1232  0.8527  0.0386
   14CHL1    H6  972   4.896   2.595   9.993  0.0837  0.9349 -0.0906
   14CHL1    C7  973   4.999   2.583   9.798  0.3243  0.1723 -0.1701
   14CHL1   H7A  974   4.900   2.590   9.749 -0.3392 -0.4878  1.0606
   14CHL1   H7B  975   5.032   2.689   9.802  0.4836  0.0617  1.8398
   14CHL1    C8  976   5.104   2.499   9.724  0.6195  0.1374  0.1114
   14CHL1    H8  977   5.062   2.399   9.700  0.7348  0.0110  0.4251
   14CHL1   C14  978   5.148   2.571   9.594 -0.3823 -0.6486  0.2635
   14CHL1   H14  979   5.208   2.661   9.618 -1.6252  0.6853 -1.5888
   14CHL1   C15  980   5.049   2.628   9.498 -0.3427  0.4863 -0.2887
   14CHL1  H15A  981   4.971   2.549   9.499 -1.5681  1.6832  0.6490
   14CHL1  H15B  982   5.000   2.720   9.536 -0.8345  0.1613 -0.1293
   14CHL1   C16  983   5.124   2.659   9.370  0.5790 -0.8202 -0.5803
   14CHL1  H16A  984   5.070   2.624   9.279  0.9919  0.5344 -1.3539
   14CHL1  H16B  985   5.139   2.768   9.363 -0.2951 -0.7564 -1.7982
   14CHL1   C17  986   5.265   2.588   9.389  0.2682 -0.6451 -0.0128
   14CHL1   H17  987   5.324   2.678   9.417 -1.8810  0.7998  0.0215
   14CHL1   C13  988   5.247   2.490   9.509 -0.1243 -0.3838 -0.4434
   14CHL1   C18  989   5.176   2.360   9.454 -0.9099  0.6288 -0.2004
   14CHL1  H18A  990   5.246   2.308   9.385  2.1340 -0.6820  3.6291
   14CHL1  H18B  991   5.156   2.290   9.538  0.7111 -1.6096 -1.6050
   14CHL1  H18C  992   5.086   2.386   9.395 -0.1050  0.1378 -1.6672
   14CHL1   C12  993   5.373   2.464   9.588  0.0053 -0.7598  0.4409
   14CHL1  H12A  994   5.450   2.393   9.551 -0.9772 -2.0590  0.8425
   14CHL1  H12B  995   5.425   2.562   9.596 -1.9623  0.4843 -1.5303
   14CHL1   C11  996   5.333   2.396   9.725 -0.1234  0.1341 -0.0128
   14CHL1  H11A  997   5.297   2.294   9.700 -1.8633  0.4635  1.0074
   14CHL1  H11B  998   5.429   2.370   9.774 -1.6337 -1.8760  2.0007
   14CHL1    C9  999   5.226   2.464   9.810 -0.0370  0.3032 -0.7405
   14CHL1    H9 1000   5.257   2.567   9.841 -1.6052  0.8135 -0.8258
   14CHL1   C10 1001   5.180   2.390   9.944  0.0985 -0.3495 -0.2853
   14CHL1   C19 1002   5.146   2.245   9.909 -0.8867  0.1453 -0.4710
   14CHL1  H19A 1003   5.080   2.237   9.820 -0.8986  0.3349 -0.4783
   14CHL1  H19B 1004   5.237   2.196   9.867 -2.6315 -1.5791 -2.3997
   14CHL1  H19C 1005   5.103   2.195   9.998 -2.5399  2.2131 -0.0875
   14CHL1    C1 1006   5.305   2.392  10.042  0.5020  0.5763 -0.1550
   14CHL1   H1A 1007   5.382   2.314  10.024 -1.2600 -1.4562  0.9094
   14CHL1   H1B 1008   5.353   2.491  10.030  2.6911 -0.5902 -1.3032
   14CHL1    C2 1009   5.271   2.372  10.188  0.5230  0.4279  0.7310
   14CHL1   H2A 1010   5.352   2.406  10.255  1.3639  1.7376 -0.9164
   14CHL1   H2B 1011   5.248   2.266  10.214 -0.7246  0.4919 -0.0591
   14CHL1   C20 1012   5.332   2.540   9.253 -0.6581  0.3219  0.3188
   14CHL1   H20 1013   5.265   2.461   9.214  3.4765 -1.6237 -3.2690
   14CHL1   C21 1014   5.473   2.475   9.275  0.1840  0.5565 -0.0805
   14CHL1  H21A 1015   5.542   2.547   9.324  0.8611 -1.9742  2.8488
   14CHL1  H21B 1016   5.530   2.452   9.183  0.8582  0.4720  0.3597
   14CHL1  H21C 1017   5.476   2.380   9.333  1.2560  0.9174  0.4597
   14CHL1   C22 1018   5.347   2.665   9.158  0.1466  0.3299 -0.3942
   14CHL1  H22A 1019   5.246   2.704   9.134 -0.8790 -2.7220 -1.1902
   14CHL1  H22B 1020   5.405   2.738   9.219 -0.4951 -1.1326  2.0292
   14CHL1   C23 1021   5.414   2.630   9.023 -0.0449 -0.7385  0.0460
   14CHL1  H23A 1022   5.522   2.607   9.031  0.2737  0.0925 -1.5096
   14CHL1  H23B 1023   5.369   2.534   8.989  1.3129 -1.5507  0.4967
   14CHL1   C24 1024   5.403   2.738   8.914  0.2981  0.3962  0.0431
   14CHL1  H24A 1025   5.301   2.749   8.872 -0.2117  0.6320  1.3395
   14CHL1  H24B 1026   5.427   2.834   8.964 -0.9747  0.2306  0.9794
   14CHL1   C25 1027   5.499   2.725   8.800 -0.1748  0.2581  0.0640
   14CHL1   H25 1028   5.604   2.722   8.838  0.1300  3.4107 -0.3894
   14CHL1   C26 1029   5.471   2.597   8.722 -0.0498 -0.3520 -0.4568
   14CHL1  H26A 1030   5.492   2.518   8.798  0.2266  0.8049  0.6765
   14CHL1  H26B 1031   5.367   2.595   8.683 -1.3359  0.3896  2.7935
   14CHL1  H26C 1032   5.542   2.578   8.638 -2.3262  0.4981 -2.6594
   14CHL1   C27 1033   5.480   2.843   8.698  0.0448 -0.5457  0.2312
   14CHL1  H27A 1034   5.528   2.822   8.600 -1.7391  1.5942 -1.1684
   14CHL1  H27B 1035   5.370   2.851   8.684 -0.2356 -0.0529  2.4622
   14CHL1  H27C 1036   5.521   2.934   8.747  0.4379  0.0126 -1.1137
   15CHL1    C3 1037   5.274   1.320  10.154  0.2114  0.1623  0.4251
   15CHL1    H3 1038   5.383   1.313  10.170  0.2264  0.1028  0.2951
   15CHL1    O3 1039   5.222   1.295  10.284  0.4930 -0.1556 -0.5993
   15CHL1   H3' 1040   5.128   1.294  10.264  0.5231 -1.4179 -0.6621
   15CHL1    C4 1041   5.223   1.451  10.094 -0.0307  0.3606 -0.4141
   15CHL1   H4A 1042   5.114   1.436  10.078  0.4575  0.3196 -4.0792
   15CHL1   H4B 1043   5.231   1.532  10.170 -3.4071  0.0355  0.3846
   15CHL1    C5 1044   5.291   1.479   9.956  0.3697 -0.9405 -0.7718
   15CHL1    C6 1045   5.367   1.587   9.940 -0.5462  0.2379  0.2765
   15CHL1    H6 1046   5.373   1.664  10.018 -3.0935  1.9362 -1.1380
   15CHL1    C7 1047   5.436   1.619   9.808 -0.0575 -0.3405  0.3675
   15CHL1   H7A 1048   5.428   1.728   9.788 -0.0986 -0.8385 -2.5122
   15CHL1   H7B 1049   5.544   1.595   9.820  0.2263  1.1711  0.8895
   15CHL1    C8 1050   5.379   1.539   9.688  0.0356  0.3882  0.8954
   15CHL1    H8 1051   5.278   1.582   9.670  0.9168  1.3441 -2.1161
   15CHL1   C14 1052   5.471   1.546   9.563  0.6163  1.1231  0.0120
   15CHL1   H14 1053   5.561   1.486   9.587  0.5844  1.1942  0.3146
   15CHL1   C15 1054   5.528   1.687   9.523  0.2527 -0.6405  0.3071
   15CHL1  H15A 1055   5.449   1.762   9.544  0.5437 -0.0142 -0.7680
   15CHL1  H15B 1056   5.620   1.702   9.584  0.2325  2.6142 -0.3890
   15CHL1   C16 1057   5.559   1.658   9.375 -0.0520 -0.2579 -0.2400
   15CHL1  H16A 1058   5.501   1.721   9.304 -0.0067  0.6318  0.5086
   15CHL1  H16B 1059   5.666   1.681   9.355 -0.0566  0.5245  0.6142
   15CHL1   C17 1060   5.518   1.512   9.341 -0.3990  0.8031 -0.3470
   15CHL1   H17 1061   5.613   1.463   9.371 -0.8278  0.6455  0.7537
   15CHL1   C13 1062   5.416   1.478   9.442 -0.8395  1.2344  1.4551
   15CHL1   C18 1063   5.284   1.540   9.401 -0.7306 -0.0550  0.1275
   15CHL1  H18A 1064   5.240   1.481   9.318 -1.3086 -0.0846  0.4522
   15CHL1  H18B 1065   5.212   1.539   9.485 -0.7693  0.1802  0.0987
   15CHL1  H18C 1066   5.300   1.649   9.388  1.8493 -0.3102  0.8908
   15CHL1   C12 1067   5.405   1.325   9.483  0.3871  0.5565  0.0578
   15CHL1  H12A 1068   5.351   1.266   9.406  0.7442 -2.1061  1.7948
   15CHL1  H12B 1069   5.506   1.282   9.500 -0.3955 -0.2454  3.0771
   15CHL1   C11 1070   5.316   1.305   9.604 -0.5657  0.0768  0.4409
   15CHL1  H11A 1071   5.215   1.341   9.573  0.1258 -0.5364 -2.6734
   15CHL1  H11B 1072   5.298   1.200   9.635 -1.1563  0.8419  2.7544
   15CHL1    C9 1073   5.361   1.392   9.728  0.9010  0.8231  0.0888
   15CHL1    H9 1074   5.460   1.355   9.762  0.7449  0.5494  0.2508
   15CHL1   C10 1075   5.268   1.370   9.851  0.2419  0.3993 -0.4497
   15CHL1   C19 1076   5.118   1.377   9.813  0.2671  0.2089  0.4015
   15CHL1  H19A 1077   5.043   1.364   9.894  0.0619 -2.1079 -0.1343
   15CHL1  H19B 1078   5.102   1.478   9.771 -0.4701  0.7424  1.9248
   15CHL1  H19C 1079   5.097   1.293   9.743 -0.4908  0.2910  0.5297
   15CHL1    C1 1080   5.300   1.229   9.914  0.2516 -0.3225  1.1782
   15CHL1   H1A 1081   5.257   1.152   9.846  0.8403 -0.2033  0.6699
   15CHL1   H1B 1082   5.409   1.213   9.906  0.1610 -0.2479 -0.5331
   15CHL1    C2 1083   5.236   1.211  10.051  0.1684 -0.6181  0.2335
   15CHL1   H2A 1084   5.253   1.110  10.094 -0.4287  0.2091  2.4674
   15CHL1   H2B 1085   5.126   1.221  10.046  0.0376 -2.2971 -0.6137
   15CHL1   C20 1086   5.498   1.480   9.190  0.4084 -0.5506  0.9767
   15CHL1   H20 1087   5.405   1.527   9.150 -0.3613 -1.0013  2.2073
   15CHL1   C21 1088   5.490   1.328   9.173 -0.1443 -0.8071 -0.0084
   15CHL1  H21A 1089   5.513   1.289   9.071  0.5588  0.0961 -0.1954
   15CHL1  H21B 1090   5.382   1.308   9.188 -1.8842  3.4719 -5.2275
   15CHL1  H21C 1091   5.563   1.271   9.233 -1.1850 -0.1843  1.8785
   15CHL1   C22 1092   5.612   1.541   9.097 -0.1105  0.3649  0.2632
   15CHL1  H22A 1093   5.591   1.650   9.094  0.0118  0.3419 -2.3597
   15CHL1  H22B 1094   5.711   1.515   9.140 -0.9162  0.0042  1.9656
   15CHL1   C23 1095   5.606   1.493   8.956 -0.1852  0.2140 -0.2059
   15CHL1  H23A 1096   5.632   1.387   8.937 -0.4339  0.3912 -1.5780
   15CHL1  H23B 1097   5.505   1.493   8.911 -0.8383  1.0590  1.2332
   15CHL1   C24 1098   5.711   1.568   8.865  0.4927  0.4665  0.2239
   15CHL1  H24A 1099   5.702   1.676   8.889  0.0927 -0.0998  2.7190
   15CHL1  H24B 1100   5.813   1.533   8.892  0.2970 -0.0634  0.2715
   15CHL1   C25 1101   5.696   1.541   8.710  0.1242 -0.1938 -0.6055
   15CHL1   H25 1102   5.699   1.430   8.714  2.1272 -0.0938  2.4826
   15CHL1   C26 1103   5.563   1.599   8.665 -0.0467  0.4906  1.1445
   15CHL1  H26A 1104   5.557   1.702   8.706  1.0355  0.5605  1.1313
   15CHL1  H26B 1105   5.558   1.605   8.554  2.7840  2.8395  1.0812
   15CHL1  H26C 1106   5.477   1.530   8.677  1.1703 -1.1243  0.7430
   15CHL1   C27 1107   5.805   1.602   8.627  0.2303 -0.1544 -0.3416
   15CHL1  H27A 1108   5.802   1.577   8.519  1.8347 -2.3254  0.0898
   15CHL1  H27B 1109   5.789   1.712   8.618 -1.4813 -0.0983  2.7050
   15CHL1  H27C 1110   5.906   1.576   8.666 -0.2755 -0.8859  0.4792
   16CHL1    C3 1111   6.019   1.802  10.202  0.0798  0.4108 -0.5412
   16CHL1    H3 1112   6.121   1.844  10.187  0.1675 -0.0513 -1.2202
   16CHL1    O3 1113   5.973   1.812  10.336  0.6461 -0.0378 -0.1959
   16CHL1   H3' 1114   5.979   1.728  10.382 -1.2911  1.0649  2.1570
   16CHL1    C4 1115   5.938   1.885  10.105  0.0747 -0.4598  0.1097
   16CHL1   H4A 1116   5.828   1.869  10.108 -0.1463 -0.6818 -4.8184
   16CHL1   H4B 1117   5.956   1.986  10.147  0.9047 -1.1245  1.3935
   16CHL1    C5 1118   5.991   1.880   9.963  0.3089  0.2453  0.1288
   16CHL1    C6 1119   6.020   1.985   9.894  0.0690 -0.6276 -0.1454
   16CHL1    H6 1120   6.021   2.080   9.950  1.8610 -1.3746  1.1507
   16CHL1    C7 1121   6.055   1.988   9.746 -0.3753  0.2304 -0.4898
   16CHL1   H7A 1122   6.000   2.063   9.685 -0.0273  0.3253 -0.6877
   16CHL1   H7B 1123   6.165   2.004   9.740 -0.3081  0.0648  0.2654
   16CHL1    C8 1124   6.025   1.851   9.677  0.6136  0.6999  0.6906
   16CHL1    H8 1125   5.922   1.842   9.636  1.2564  1.4382 -1.1144
   16CHL1   C14 1126   6.110   1.841   9.554  0.2383  0.5209  0.9334
   16CHL1   H14 1127   6.215   1.835   9.589  1.0234  2.7832 -0.9053
   16CHL1   C15 1128   6.101   1.957   9.448  0.8050  0.4483 -0.6275
   16CHL1  H15A 1129   5.993   1.979   9.443  0.7228 -0.3793 -3.1913
   16CHL1  H15B 1130   6.160   2.047   9.475  0.3183  0.4834  0.3199
   16CHL1   C16 1131   6.145   1.888   9.319 -0.0012 -0.0105 -0.0769
   16CHL1  H16A 1132   6.068   1.885   9.240 -1.2551 -2.0082  1.1604
   16CHL1  H16B 1133   6.216   1.959   9.271  1.1248 -1.5932 -0.8112
   16CHL1   C17 1134   6.181   1.744   9.352  0.1334 -0.2036 -0.5423
   16CHL1   H17 1135   6.286   1.736   9.386  1.2264  1.1067 -3.4378
   16CHL1   C13 1136   6.089   1.710   9.474 -0.4546 -0.3976  1.0148
   16CHL1   C18 1137   5.945   1.687   9.423 -0.1029 -0.4638  0.3945
   16CHL1  H18A 1138   5.956   1.587   9.377 -1.3490  0.5503 -2.2570
   16CHL1  H18B 1139   5.878   1.674   9.510  1.1850  0.3433  1.5329
   16CHL1  H18C 1140   5.916   1.768   9.352 -1.4440 -0.6542  0.7249
   16CHL1   C12 1141   6.132   1.593   9.564  0.0416  0.5616 -0.1425
   16CHL1  H12A 1142   6.130   1.494   9.514 -1.5364 -0.1142  1.2157
   16CHL1  H12B 1143   6.241   1.601   9.586  0.0025  0.3287  0.1372
   16CHL1   C11 1144   6.050   1.593   9.694  0.1726 -0.8497  0.2360
   16CHL1  H11A 1145   5.946   1.560   9.673 -0.8256  3.1770 -1.5143
   16CHL1  H11B 1146   6.095   1.513   9.758 -0.2313 -0.4477  1.0327
   16CHL1    C9 1147   6.066   1.732   9.769 -0.1090  0.2889  0.7370
   16CHL1    H9 1148   6.174   1.746   9.789 -0.1412 -1.8184  2.6175
   16CHL1   C10 1149   5.992   1.732   9.911  0.9130 -1.5629  0.2116
   16CHL1   C19 1150   5.849   1.678   9.893  0.2877 -0.5688 -0.2860
   16CHL1  H19A 1151   5.843   1.569   9.872 -0.9305 -1.1589  2.8035
   16CHL1  H19B 1152   5.788   1.695   9.984  0.4280 -0.1231 -0.2730
   16CHL1  H19C 1153   5.790   1.733   9.817 -0.2066 -0.3428  0.2565
   16CHL1    C1 1154   6.063   1.644  10.011  0.1734  0.0335  0.5787
   16CHL1   H1A 1155   6.068   1.539   9.974  2.2515  0.1633  0.4330
   16CHL1   H1B 1156   6.163   1.691  10.003  0.8638 -1.2835  1.2377
   16CHL1    C2 1157   6.015   1.655  10.157 -0.6004  0.1376 -0.1195
   16CHL1   H2A 1158   6.086   1.595  10.218 -2.0756 -0.3552  1.1395
   16CHL1   H2B 1159   5.909   1.619  10.156 -0.8492  0.7606  1.5108
   16CHL1   C20 1160   6.177   1.655   9.226 -0.2893  0.3041 -0.2951
   16CHL1   H20 1161   6.072   1.641   9.192 -1.2520 -0.2332  2.7894
   16CHL1   C21 1162   6.238   1.516   9.256  0.0159 -0.7538  0.4093
   16CHL1  H21A 1163   6.155   1.467   9.312 -1.8196  1.2662 -0.4787
   16CHL1  H21B 1164   6.333   1.520   9.314 -0.3122  1.1025  0.8488
   16CHL1  H21C 1165   6.256   1.462   9.161  3.6665  2.6493 -1.0104
   16CHL1   C22 1166   6.249   1.724   9.108 -0.0657 -0.1931  0.2582
   16CHL1  H22A 1167   6.196   1.819   9.088 -2.0396 -1.3442 -0.1073
   16CHL1  H22B 1168   6.356   1.752   9.122 -0.1237  0.2558 -0.1894
   16CHL1   C23 1169   6.246   1.651   8.972  0.7796  0.0681 -0.5937
   16CHL1  H23A 1170   6.267   1.542   8.979  0.9873  0.2181  1.2543
   16CHL1  H23B 1171   6.142   1.663   8.935 -1.0218 -0.6534  3.9380
   16CHL1   C24 1172   6.337   1.725   8.867  0.7330  0.3316 -0.5506
   16CHL1  H24A 1173   6.302   1.830   8.874  1.1468  0.5882 -2.2265
   16CHL1  H24B 1174   6.444   1.726   8.899  0.3020  1.4755  0.9266
   16CHL1   C25 1175   6.335   1.662   8.721 -0.7310  0.0866  0.3943
   16CHL1   H25 1176   6.365   1.555   8.729  0.4695  0.5719  3.0855
   16CHL1   C26 1177   6.199   1.647   8.642  0.5573  0.7534  0.1736
   16CHL1  H26A 1178   6.121   1.585   8.691  0.5600  1.2025  0.7592
   16CHL1  H26B 1179   6.162   1.751   8.633  2.2041  1.4898  1.4542
   16CHL1  H26C 1180   6.222   1.604   8.543 -0.9050 -1.1237  0.6234
   16CHL1   C27 1181   6.435   1.735   8.634  0.3527  0.1986 -0.0083
   16CHL1  H27A 1182   6.401   1.840   8.637 -0.6293 -0.1381  0.7006
   16CHL1  H27B 1183   6.536   1.722   8.677 -1.3772  1.3660  4.6584
   16CHL1  H27C 1184   6.427   1.694   8.530  1.5805 -1.1701  0.4105
   17CHL1    C3 1185   1.738   5.839  10.373 -0.0006  0.5938  0.0363
   17CHL1    H3 1186   1.742   5.950  10.372  0.8968  0.5705  0.6789
   17CHL1    O3 1187   1.732   5.804  10.511  0.4853 -0.4247  0.2465
   17CHL1   H3' 1188   1.702   5.713  10.514  1.1278 -0.7532 -2.1223
   17CHL1    C4 1189   1.614   5.789  10.310  0.0694 -0.0595 -0.0078
   17CHL1   H4A 1190   1.607   5.680  10.327 -1.8061 -0.1657 -1.2926
   17CHL1   H4B 1191   1.535   5.844  10.366 -0.6644 -2.4001  1.2872
   17CHL1    C5 1192   1.602   5.816  10.160 -0.0573 -0.5485  0.1693
   17CHL1    C6 1193   1.503   5.896  10.111 -0.4788  0.0184 -0.0440
   17CHL1    H6 1194   1.419   5.929  10.173 -0.0128 -2.1173  1.8008
   17CHL1    C7 1195   1.486   5.921   9.964 -0.5498 -0.0678 -0.1942
   17CHL1   H7A 1196   1.382   5.906   9.928 -0.9995  2.2109  0.1207
   17CHL1   H7B 1197   1.510   6.026   9.939  1.4637  0.4043  3.2961
   17CHL1    C8 1198   1.576   5.829   9.884 -0.3457  0.3004  0.5245
   17CHL1    H8 1199   1.535   5.726   9.894  0.9656 -0.3267 -0.3513
   17CHL1   C14 1200   1.578   5.882   9.739 -0.4713  1.0010 -0.3600
   17CHL1   H14 1201   1.623   5.984   9.740  0.2313  0.7170 -1.5040
   17CHL1   C15 1202   1.444   5.903   9.665  0.6939  0.3813 -0.0875
   17CHL1  H15A 1203   1.369   5.821   9.673 -0.7058  1.4224 -2.0823
   17CHL1  H15B 1204   1.385   5.991   9.701 -2.1505 -1.5778  0.1870
   17CHL1   C16 1205   1.487   5.923   9.521 -0.0533 -0.1049  0.2935
   17CHL1  H16A 1206   1.429   5.845   9.466  0.8609  0.3968 -1.4136
   17CHL1  H16B 1207   1.458   6.023   9.483 -0.6110 -0.6004 -0.5991
   17CHL1   C17 1208   1.636   5.882   9.509  0.1377 -0.5608  0.5693
   17CHL1   H17 1209   1.699   5.974   9.511 -1.3430  0.4813  0.5850
   17CHL1   C13 1210   1.672   5.808   9.641 -0.1663 -1.1110 -0.3169
   17CHL1   C18 1211   1.626   5.665   9.629 -0.4674 -0.2282  0.0643
   17CHL1  H18A 1212   1.535   5.667   9.564 -0.8909  0.9289  0.6736
   17CHL1  H18B 1213   1.697   5.613   9.562 -2.0502 -2.5395  0.0919
   17CHL1  H18C 1214   1.615   5.612   9.726 -1.0679 -0.3177 -0.0487
   17CHL1   C12 1215   1.814   5.826   9.698 -0.2335  0.0564  0.1309
   17CHL1  H12A 1216   1.891   5.778   9.634 -0.2094 -0.9119  0.8678
   17CHL1  H12B 1217   1.829   5.935   9.709 -0.8176  0.3242 -1.5717
   17CHL1   C11 1218   1.826   5.771   9.839 -0.4430 -0.6133  0.1212
   17CHL1  H11A 1219   1.828   5.663   9.813  4.2272 -0.5399 -0.4017
   17CHL1  H11B 1220   1.929   5.792   9.876 -1.4614  1.4770  1.9006
   17CHL1    C9 1221   1.720   5.821   9.935  0.5371  0.5919 -0.4694
   17CHL1    H9 1222   1.743   5.930   9.941  0.8367  0.6266 -2.0234
   17CHL1   C10 1223   1.721   5.759  10.078 -0.4854 -0.4118 -0.0306
   17CHL1   C19 1224   1.715   5.611  10.065  0.1962  0.0338  0.5169
   17CHL1  H19A 1225   1.707   5.561  10.163 -0.8222  0.2322  0.5338
   17CHL1  H19B 1226   1.637   5.569   9.998 -1.3775 -1.9838  3.5119
   17CHL1  H19C 1227   1.804   5.569  10.012  1.1487  2.2697  0.2727
   17CHL1    C1 1228   1.856   5.799  10.150  0.8651 -0.0000 -0.1234
   17CHL1   H1A 1229   1.937   5.746  10.096  0.2911 -1.6692  0.6191
   17CHL1   H1B 1230   1.881   5.906  10.130 -3.8499  1.4458  1.0214
   17CHL1    C2 1231   1.859   5.774  10.303  0.8059 -0.2730 -0.2572
   17CHL1   H2A 1232   1.960   5.813  10.327  0.8842  0.2011 -1.3162
   17CHL1   H2B 1233   1.854   5.665  10.324 -1.4668  0.1020  1.3015
   17CHL1   C20 1234   1.675   5.818   9.373  0.4337  0.4756 -0.2173
   17CHL1   H20 1235   1.611   5.729   9.355  1.6054 -0.4763  0.2935
   17CHL1   C21 1236   1.825   5.775   9.371  0.4370  0.0370 -0.1648
   17CHL1  H21A 1237   1.848   5.756   9.264 -1.6969  1.3580 -0.8834
   17CHL1  H21B 1238   1.825   5.690   9.443  1.2059 -0.6555 -0.9777
   17CHL1  H21C 1239   1.871   5.865   9.415 -0.9935  1.7279 -2.0616
   17CHL1   C22 1240   1.640   5.913   9.252 -0.0293  0.6639 -0.2276
   17CHL1  H22A 1241   1.539   5.957   9.258 -0.4090 -0.0309 -1.3982
   17CHL1  H22B 1242   1.715   5.995   9.255 -0.4433  1.0587 -0.5999
   17CHL1   C23 1243   1.646   5.845   9.116  0.2851  0.2948  0.1335
   17CHL1  H23A 1244   1.736   5.781   9.110  0.6012  0.8549 -1.2529
   17CHL1  H23B 1245   1.565   5.770   9.102 -0.8371  1.1862  1.6711
   17CHL1   C24 1246   1.641   5.934   8.994 -0.0077 -0.3657  0.5911
   17CHL1  H24A 1247   1.554   6.002   9.002  1.2719  1.3295  0.4192
   17CHL1  H24B 1248   1.726   6.005   8.981 -0.1502 -0.8590 -3.7510
   17CHL1   C25 1249   1.619   5.859   8.855 -0.2817 -1.0339  0.5067
   17CHL1   H25 1250   1.535   5.789   8.875 -2.3830  0.9190 -1.1813
   17CHL1   C26 1251   1.600   5.958   8.740  0.4647 -0.2554  0.4919
   17CHL1  H26A 1252   1.532   6.034   8.786 -1.1640 -0.0212 -2.1553
   17CHL1  H26B 1253   1.694   6.010   8.710  1.4667 -1.3609  1.7039
   17CHL1  H26C 1254   1.546   5.916   8.652 -0.3710 -2.1680  1.8885
   17CHL1   C27 1255   1.743   5.785   8.827 -0.3262 -0.6582  0.3339
   17CHL1  H27A 1256   1.782   5.710   8.899 -1.3583 -0.4649  1.0957
   17CHL1  H27B 1257   1.730   5.735   8.728  0.0730  2.4670 -1.3491
   17CHL1  H27C 1258   1.831   5.850   8.808 -1.3541 -0.3888 -4.0023
   18CHL1    C3 1259   0.757   3.723  10.272  0.4623 -0.7434  0.5196
   18CHL1    H3 1260   0.718   3.620  10.262  1.1907 -1.3194  3.2638
   18CHL1    O3 1261   0.772   3.753  10.413  0.6607 -0.0734 -0.2613
   18CHL1   H3' 1262   0.752   3.845  10.431  1.5544  0.2438 -0.8901
   18CHL1    C4 1263   0.891   3.732  10.202  0.5107  0.0839 -0.2139
   18CHL1   H4A 1264   0.939   3.829  10.226  0.8560 -0.1564  0.0695
   18CHL1   H4B 1265   0.957   3.659  10.253 -0.1238  2.3078  4.0355
   18CHL1    C5 1266   0.881   3.715  10.057  0.3595 -0.8417 -0.3759
   18CHL1    C6 1267   0.950   3.622   9.988 -0.4205 -0.2429  0.9759
   18CHL1    H6 1268   1.004   3.543  10.042 -1.3458  0.4981  3.0506
   18CHL1    C7 1269   0.945   3.610   9.836  0.0011  0.0714  0.9653
   18CHL1   H7A 1270   1.049   3.606   9.798 -0.4139  2.9257 -0.5617
   18CHL1   H7B 1271   0.883   3.520   9.818  0.7949 -0.6158  1.6127
   18CHL1    C8 1272   0.868   3.737   9.768 -0.0662 -0.8575  0.4512
   18CHL1    H8 1273   0.938   3.823   9.774  0.8141 -1.5078 -0.4381
   18CHL1   C14 1274   0.826   3.708   9.622 -0.2485 -0.1598  0.2791
   18CHL1   H14 1275   0.760   3.621   9.643  1.2270 -1.2674  0.4194
   18CHL1   C15 1276   0.930   3.659   9.519 -0.7831  0.3372  0.1501
   18CHL1  H15A 1277   1.002   3.741   9.498 -1.7306  1.0861 -0.2113
   18CHL1  H15B 1278   0.982   3.561   9.535 -1.2968 -0.0065 -0.2655
   18CHL1   C16 1279   0.843   3.647   9.399  0.1497 -0.8518 -0.8649
   18CHL1  H16A 1280   0.894   3.669   9.303 -1.9869 -1.2684 -2.1371
   18CHL1  H16B 1281   0.801   3.545   9.386 -2.6988  0.1737 -0.2438
   18CHL1   C17 1282   0.724   3.748   9.414  1.0230 -0.2631 -0.1293
   18CHL1   H17 1283   0.632   3.687   9.427  1.9714 -1.6986 -0.0035
   18CHL1   C13 1284   0.750   3.817   9.550 -0.4509  0.3765  0.3026
   18CHL1   C18 1285   0.842   3.943   9.527 -0.1157  0.1193  0.6280
   18CHL1  H18A 1286   0.907   3.908   9.444 -0.2077  1.0273  0.1616
   18CHL1  H18B 1287   0.783   4.029   9.490 -1.2463 -1.7979 -2.1891
   18CHL1  H18C 1288   0.900   3.963   9.620  0.5669  0.8008  0.0595
   18CHL1   C12 1289   0.620   3.845   9.627  0.2850  0.0513 -0.5211
   18CHL1  H12A 1290   0.565   3.931   9.584  0.6548 -0.0567 -1.2208
   18CHL1  H12B 1291   0.565   3.748   9.622  1.2634 -0.4755 -1.3504
   18CHL1   C11 1292   0.654   3.895   9.770 -0.9474 -0.2651  0.1334
   18CHL1  H11A 1293   0.721   3.983   9.760  1.2126 -1.9355 -0.3685
   18CHL1  H11B 1294   0.560   3.925   9.821 -1.7498  1.6850 -2.3624
   18CHL1    C9 1295   0.744   3.788   9.841 -0.2013  0.0711 -0.2886
   18CHL1    H9 1296   0.686   3.693   9.849 -1.7729  0.9867 -0.5943
   18CHL1   C10 1297   0.779   3.814   9.991 -0.4501  0.3208 -0.3566
   18CHL1   C19 1298   0.833   3.956   9.996 -0.5467 -0.4761 -0.3370
   18CHL1  H19A 1299   0.840   3.995  10.100  0.5355  1.4028 -1.0952
   18CHL1  H19B 1300   0.931   3.974   9.947  0.2907  1.1608  1.8369
   18CHL1  H19C 1301   0.760   4.021   9.945 -3.3252 -1.5909  2.0688
   18CHL1    C1 1302   0.642   3.796  10.070 -0.0367  0.0912  0.0148
   18CHL1   H1A 1303   0.567   3.873  10.040  0.7009  1.2441  1.0285
   18CHL1   H1B 1304   0.598   3.698  10.044 -1.4279  0.9168 -0.8170
   18CHL1    C2 1305   0.657   3.825  10.220  0.5531 -0.0913 -0.1176
   18CHL1   H2A 1306   0.564   3.807  10.278  0.1073 -1.2356 -1.1374
   18CHL1   H2B 1307   0.690   3.928  10.241 -0.6188 -0.2564  2.7018
   18CHL1   C20 1308   0.693   3.829   9.286  0.0189  0.2879 -0.1063
   18CHL1   H20 1309   0.782   3.894   9.268  0.9968 -0.9926  0.0729
   18CHL1   C21 1310   0.578   3.928   9.308 -0.9811  0.9518  0.2318
   18CHL1  H21A 1311   0.588   3.980   9.406  0.4275 -0.7393  1.0075
   18CHL1  H21B 1312   0.486   3.868   9.324  0.7797 -1.5548  1.2743
   18CHL1  H21C 1313   0.577   4.005   9.228  2.3756 -1.3127 -2.1288
   18CHL1   C22 1314   0.676   3.741   9.161 -0.4845  0.3158  0.4080
   18CHL1  H22A 1315   0.778   3.702   9.139 -1.1130 -1.2617  0.2967
   18CHL1  H22B 1316   0.608   3.655   9.172  0.9914 -1.2666 -2.2613
   18CHL1   C23 1317   0.613   3.823   9.043 -0.6353 -1.1249  0.3495
   18CHL1  H23A 1318   0.505   3.846   9.059 -0.7992 -1.1257 -0.6702
   18CHL1  H23B 1319   0.661   3.923   9.037 -0.3669 -1.1980  1.2632
   18CHL1   C24 1320   0.637   3.745   8.908  0.3836  0.1728  0.2780
   18CHL1  H24A 1321   0.747   3.740   8.898  0.4478 -0.3416  1.1596
   18CHL1  H24B 1322   0.585   3.649   8.929  0.0783  0.7520  2.2817
   18CHL1   C25 1323   0.577   3.814   8.786 -0.2773 -0.5509 -0.3144
   18CHL1   H25 1324   0.471   3.785   8.800 -0.3880  0.2906  0.7177
   18CHL1   C26 1325   0.590   3.975   8.794 -0.0444 -0.0180 -0.0857
   18CHL1  H26A 1326   0.533   4.008   8.883 -4.9166 -2.4752 -2.0967
   18CHL1  H26B 1327   0.694   4.014   8.802 -0.2692  0.6086 -0.1339
   18CHL1  H26C 1328   0.559   4.028   8.701  0.0703  2.1719  1.0991
   18CHL1   C27 1329   0.632   3.756   8.651  0.3594 -0.7419 -0.6333
   18CHL1  H27A 1330   0.616   3.647   8.640 -0.1129 -0.7102 -0.3199
   18CHL1  H27B 1331   0.584   3.798   8.560  1.6712  1.9623 -0.1453
   18CHL1  H27C 1332   0.739   3.783   8.645  0.1036  1.2174  2.3551
   19CHL1    C3 1333   5.056   0.763  10.038 -0.1665 -0.1757  0.4999
   19CHL1    H3 1334   4.946   0.765  10.021  0.1306  0.3516 -1.4730
   19CHL1    O3 1335   5.063   0.808  10.174 -0.6076 -0.0297  0.3226
   19CHL1   H3' 1336   5.126   0.752  10.219  1.3244  1.1782 -0.8000
   19CHL1    C4 1337   5.096   0.623  10.032 -0.5036 -0.2221  0.5867
   19CHL1   H4A 1338   5.203   0.622  10.064 -0.3591 -1.1241  0.0754
   19CHL1   H4B 1339   5.048   0.559  10.109  1.4528 -4.0048 -1.2384
   19CHL1    C5 1340   5.078   0.570   9.892 -0.4053 -0.1845 -0.6067
   19CHL1    C6 1341   5.007   0.458   9.868 -0.0314 -0.2903  1.1585
   19CHL1    H6 1342   4.980   0.403   9.959 -0.1624 -0.9102  0.7445
   19CHL1    C7 1343   4.983   0.398   9.735 -0.1129  0.6224 -0.8117
   19CHL1   H7A 1344   5.008   0.290   9.732 -1.3756  0.2485  1.0389
   19CHL1   H7B 1345   4.874   0.400   9.711 -0.8678 -0.7463  2.2239
   19CHL1    C8 1346   5.071   0.461   9.619  0.4635  0.1630  1.4379
   19CHL1    H8 1347   5.173   0.416   9.626  0.1248 -0.7469  0.5255
   19CHL1   C14 1348   5.005   0.436   9.489  0.1596 -0.7545 -0.2763
   19CHL1   H14 1349   4.917   0.503   9.497  0.9114  0.1179  0.8869
   19CHL1   C15 1350   4.954   0.290   9.458  0.1419 -0.2904  0.0736
   19CHL1  H15A 1351   5.033   0.217   9.485  0.9391  0.3658 -0.4642
   19CHL1  H15B 1352   4.857   0.273   9.510  0.9658 -3.3194  0.6967
   19CHL1   C16 1353   4.924   0.301   9.307  0.2192 -0.0262 -0.4013
   19CHL1  H16A 1354   4.964   0.212   9.255  1.5979  0.7336 -0.6665
   19CHL1  H16B 1355   4.816   0.319   9.286  0.3941  2.1416  0.3585
   19CHL1   C17 1356   4.996   0.440   9.260 -0.3490  0.1626  0.3156
   19CHL1   H17 1357   4.906   0.504   9.267 -0.9614 -0.5619 -0.8154
   19CHL1   C13 1358   5.089   0.492   9.376 -0.1184  0.1689 -0.0715
   19CHL1   C18 1359   5.228   0.418   9.361 -0.0149 -0.0647  0.5318
   19CHL1  H18A 1360   5.278   0.465   9.273 -2.1175  0.6491 -0.3004
   19CHL1  H18B 1361   5.291   0.428   9.452  0.6243  1.1213 -0.0363
   19CHL1  H18C 1362   5.215   0.309   9.346  0.2371  0.0129 -0.2706
   19CHL1   C12 1363   5.104   0.648   9.396 -0.2100 -0.6421  0.0128
   19CHL1  H12A 1364   5.170   0.677   9.311 -1.2419  1.9406  0.0446
   19CHL1  H12B 1365   5.010   0.701   9.371  0.2017 -0.0567 -0.2927
   19CHL1   C11 1366   5.165   0.687   9.526  0.0596 -0.3713  0.3652
   19CHL1  H11A 1367   5.270   0.652   9.527  0.6130  1.2654  1.2618
   19CHL1  H11B 1368   5.162   0.797   9.541  1.5846 -0.6606  3.0853
   19CHL1    C9 1369   5.090   0.613   9.640 -0.5736 -0.5434  0.2459
   19CHL1    H9 1370   4.988   0.658   9.637 -0.5939 -0.7013 -2.0364
   19CHL1   C10 1371   5.139   0.650   9.774 -0.2189  0.4244 -0.4065
   19CHL1   C19 1372   5.294   0.623   9.784 -0.0852 -0.0953 -0.3015
   19CHL1  H19A 1373   5.347   0.657   9.876  0.0665 -0.3631 -0.2904
   19CHL1  H19B 1374   5.318   0.515   9.775  0.7097  0.1102 -0.7514
   19CHL1  H19C 1375   5.347   0.683   9.706 -2.6947  0.3409 -1.7860
   19CHL1    C1 1376   5.114   0.800   9.804  0.1507 -0.3598  0.3810
   19CHL1   H1A 1377   5.179   0.868   9.746  1.0763 -2.9910 -1.7465
   19CHL1   H1B 1378   5.010   0.821   9.770  0.4033  1.9636  0.9283
   19CHL1    C2 1379   5.133   0.846   9.948  0.2238  0.0209  0.1913
   19CHL1   H2A 1380   5.098   0.950   9.960  0.9210  0.4954 -1.6341
   19CHL1   H2B 1381   5.236   0.837   9.988 -0.7308 -1.8319  2.3496
   19CHL1   C20 1382   5.053   0.427   9.115  0.5511 -0.0792 -0.6246
   19CHL1   H20 1383   5.142   0.361   9.128  0.2943 -0.2857  0.1405
   19CHL1   C21 1384   5.087   0.566   9.062  0.1168 -0.2358 -0.8027
   19CHL1  H21A 1385   5.143   0.561   8.967  1.1223 -0.6743 -0.2022
   19CHL1  H21B 1386   5.159   0.618   9.129 -1.3284  1.6463 -0.6741
   19CHL1  H21C 1387   4.993   0.625   9.057 -0.0525 -0.4703 -0.4038
   19CHL1   C22 1388   4.952   0.357   9.020 -0.4061 -0.0095 -0.0052
   19CHL1  H22A 1389   4.936   0.252   9.052 -2.0464  0.0106 -0.7304
   19CHL1  H22B 1390   4.854   0.405   9.037 -0.5281 -0.0709 -0.5229
   19CHL1   C23 1391   4.989   0.367   8.877 -0.2937 -0.5041  0.5512
   19CHL1  H23A 1392   4.897   0.335   8.825 -0.4753 -1.3111  1.3743
   19CHL1  H23B 1393   4.999   0.467   8.830 -0.8986  1.0863  3.6671
   19CHL1   C24 1394   5.095   0.267   8.830  0.0171 -0.2423 -0.2260
   19CHL1  H24A 1395   5.200   0.287   8.860 -0.2052  1.9034 -0.7413
   19CHL1  H24B 1396   5.068   0.165   8.865 -1.0792  0.8288  2.1434
   19CHL1   C25 1397   5.110   0.260   8.677  0.5444  0.2140  0.2822
   19CHL1   H25 1398   5.015   0.209   8.649  0.7582 -2.0778  3.4434
   19CHL1   C26 1399   5.119   0.393   8.614 -0.4105  0.5170 -0.1727
   19CHL1  H26A 1400   5.148   0.390   8.507 -0.2421  0.7104 -0.1332
   19CHL1  H26B 1401   5.018   0.440   8.609 -0.5859  0.5194  2.5344
   19CHL1  H26C 1402   5.191   0.457   8.669  0.7270 -0.2046 -0.8078
   19CHL1   C27 1403   5.207   0.163   8.632  0.3184  0.0300 -0.6027
   19CHL1  H27A 1404   5.202   0.140   8.524  0.6220  0.3078 -0.6777
   19CHL1  H27B 1405   5.308   0.200   8.660 -1.4272  4.6193  0.2315
   19CHL1  H27C 1406   5.182   0.068   8.684 -1.6065  0.9756  0.2516
   20CHL1    C3 1407   0.505   0.462  10.432  0.0569  0.1443  0.4426
   20CHL1    H3 1408   0.610   0.447  10.399 -0.3534  1.6561 -1.6640
   20CHL1    O3 1409   0.492   0.444  10.576 -0.1795  0.1348 -0.0157
   20CHL1   H3' 1410   0.580   0.467  10.606 -0.7710  0.5180  1.4991
   20CHL1    C4 1411   0.466   0.603  10.405  0.0807 -0.3421 -0.4093
   20CHL1   H4A 1412   0.361   0.618  10.438 -0.1614 -0.4471 -1.1178
   20CHL1   H4B 1413   0.538   0.660  10.466 -1.0598  0.3487  0.3036
   20CHL1    C5 1414   0.466   0.637  10.256  0.1014  0.1384  0.6939
   20CHL1    C6 1415   0.540   0.739  10.203  0.7488 -0.2131 -0.3672
   20CHL1    H6 1416   0.597   0.796  10.278 -2.9568  1.6633  1.1581
   20CHL1    C7 1417   0.552   0.775  10.061  1.0417  0.0337 -0.5094
   20CHL1   H7A 1418   0.542   0.882  10.032 -2.6825  0.2750  1.3462
   20CHL1   H7B 1419   0.652   0.743  10.025  1.6938  1.0479  0.3543
   20CHL1    C8 1420   0.443   0.692   9.980 -1.1897  0.0037 -0.7235
   20CHL1    H8 1421   0.343   0.739   9.973 -2.3270 -2.0796  0.9031
   20CHL1   C14 1422   0.488   0.677   9.830 -0.9575 -0.3413  0.5855
   20CHL1   H14 1423   0.584   0.622   9.832 -0.1930  0.8726 -1.0491
   20CHL1   C15 1424   0.522   0.807   9.767 -1.2409 -0.0255  0.5029
   20CHL1  H15A 1425   0.435   0.876   9.771 -0.1104  1.5848 -1.8499
   20CHL1  H15B 1426   0.609   0.862   9.808 -0.0530  0.0625 -2.0303
   20CHL1   C16 1427   0.536   0.790   9.618 -0.1893  0.4939 -0.2815
   20CHL1  H16A 1428   0.474   0.868   9.568 -1.4288 -0.9949 -1.1275
   20CHL1  H16B 1429   0.645   0.798   9.598 -0.3191  0.5829 -0.9747
   20CHL1   C17 1430   0.474   0.643   9.596 -0.2347  0.2655 -0.2759
   20CHL1   H17 1431   0.572   0.589   9.599 -0.5382 -0.1644  3.2022
   20CHL1   C13 1432   0.405   0.607   9.730 -0.3662  0.4771  0.2204
   20CHL1   C18 1433   0.262   0.663   9.730  0.5096 -0.2943  0.0146
   20CHL1  H18A 1434   0.215   0.644   9.829  1.2947 -1.1296  0.2263
   20CHL1  H18B 1435   0.261   0.772   9.708 -0.7865 -0.3563 -0.3162
   20CHL1  H18C 1436   0.194   0.612   9.658 -2.1715  3.0222  0.0206
   20CHL1   C12 1437   0.399   0.460   9.782  0.7268 -0.0386  0.5526
   20CHL1  H12A 1438   0.335   0.405   9.709  0.2605  0.6601  0.4309
   20CHL1  H12B 1439   0.501   0.417   9.777  0.3975 -1.0063  1.9786
   20CHL1   C11 1440   0.344   0.455   9.928  0.5155 -0.1419 -0.0949
   20CHL1  H11A 1441   0.240   0.493   9.938 -0.4934 -2.2633 -2.1841
   20CHL1  H11B 1442   0.340   0.349   9.960  0.3216  0.0239  0.4375
   20CHL1    C9 1443   0.430   0.542  10.024 -0.5800  0.1980 -0.4630
   20CHL1    H9 1444   0.535   0.506  10.024 -1.3795 -2.2315  0.5812
   20CHL1   C10 1445   0.388   0.537  10.167  0.1581  0.4276  0.1872
   20CHL1   C19 1446   0.238   0.576  10.191  0.2860  0.4988  0.3798
   20CHL1  H19A 1447   0.219   0.584  10.300 -0.3061 -1.8270  0.4699
   20CHL1  H19B 1448   0.228   0.676  10.142  2.7636  1.5479  1.9125
   20CHL1  H19C 1449   0.164   0.503  10.151  0.2133  1.0798 -0.5743
   20CHL1    C1 1450   0.416   0.388  10.209 -0.2792  0.3106  0.2267
   20CHL1   H1A 1451   0.361   0.313  10.150  0.8778  0.9186 -1.6580
   20CHL1   H1B 1452   0.524   0.375  10.184 -1.3005 -3.6550 -2.5207
   20CHL1    C2 1453   0.409   0.359  10.356 -0.6900 -0.2429 -0.3366
   20CHL1   H2A 1454   0.439   0.254  10.376  0.5805  0.0014 -0.8732
   20CHL1   H2B 1455   0.304   0.377  10.386 -0.6468 -0.4543 -0.0627
   20CHL1   C20 1456   0.413   0.614   9.461 -0.3049 -0.1755 -0.2821
   20CHL1   H20 1457   0.311   0.657   9.465 -0.7905 -1.4049  0.6943
   20CHL1   C21 1458   0.403   0.461   9.442  0.3216 -0.7112 -0.2503
   20CHL1  H21A 1459   0.370   0.436   9.339  0.7032  0.7247 -0.7286
   20CHL1  H21B 1460   0.318   0.428   9.505 -1.4129  3.3939 -0.3038
   20CHL1  H21C 1461   0.496   0.401   9.458 -0.0821 -0.8553  1.6162
   20CHL1   C22 1462   0.493   0.662   9.334 -0.4559  0.4230 -0.2650
   20CHL1  H22A 1463   0.521   0.768   9.354  1.0404 -0.1902  0.9620
   20CHL1  H22B 1464   0.581   0.598   9.314  0.3387  1.0538  1.1061
   20CHL1   C23 1465   0.397   0.675   9.212  0.2859 -0.2162  0.2716
   20CHL1  H23A 1466   0.365   0.573   9.182  1.3854  0.0853 -2.1008
   20CHL1  H23B 1467   0.308   0.732   9.246  0.4198 -0.8626  1.7239
   20CHL1   C24 1468   0.459   0.742   9.089 -0.2356  0.4406  0.0276
   20CHL1  H24A 1469   0.385   0.807   9.039  1.4215  1.0293 -1.7367
   20CHL1  H24B 1470   0.544   0.807   9.119 -0.4070  0.4715  0.4455
   20CHL1   C25 1471   0.505   0.633   8.995  0.0077  0.4677 -0.4782
   20CHL1   H25 1472   0.565   0.552   9.043 -0.9109  0.2753  0.3755
   20CHL1   C26 1473   0.383   0.559   8.940  0.5426  0.9906 -0.0758
   20CHL1  H26A 1474   0.342   0.476   9.002 -0.2587  1.2127 -0.3073
   20CHL1  H26B 1475   0.311   0.633   8.901 -0.4730 -0.7563 -1.6050
   20CHL1  H26C 1476   0.417   0.497   8.854 -0.5653 -0.8179  0.7709
   20CHL1   C27 1477   0.571   0.686   8.869  0.3302  0.3361  0.0747
   20CHL1  H27A 1478   0.508   0.756   8.811  0.3113  0.5749  0.3795
   20CHL1  H27B 1479   0.666   0.738   8.898 -1.2543  3.2994  0.1653
   20CHL1  H27C 1480   0.589   0.615   8.785  1.2184 -1.1567  1.4926
   21CHL1    C3 1481   0.206   4.139  10.334  0.1717  0.6149 -0.2256
   21CHL1    H3 1482   0.297   4.189  10.296  0.5558  0.4444  0.4512
   21CHL1    O3 1483   0.238   4.098  10.472 -0.4055  0.0102  0.1179
   21CHL1   H3' 1484   0.333   4.095  10.483 -0.3688  0.3175 -0.1153
   21CHL1    C4 1485   0.092   4.240  10.349  0.3782  0.4885 -0.4488
   21CHL1   H4A 1486   0.015   4.195  10.414  0.7601 -0.6758 -0.7915
   21CHL1   H4B 1487   0.132   4.322  10.413  0.0989 -0.1381  0.5262
   21CHL1    C5 1488   0.021   4.284  10.226  0.0781  0.1700 -0.8262
   21CHL1    C6 1489  -0.001   4.414  10.198 -0.5157 -0.0200 -0.2317
   21CHL1    H6 1490   0.019   4.497  10.267 -1.7756  0.5544 -0.5322
   21CHL1    C7 1491  -0.073   4.462  10.068  0.1276  0.0812  0.0005
   21CHL1   H7A 1492  -0.148   4.536  10.102 -2.2509 -2.5574  0.6681
   21CHL1   H7B 1493   0.004   4.511  10.005 -0.6412  1.0687 -0.1850
   21CHL1    C8 1494  -0.132   4.346   9.984 -0.2744  0.2286  0.8685
   21CHL1    H8 1495  -0.225   4.302  10.026 -2.2883  3.7233  0.2428
   21CHL1   C14 1496  -0.161   4.400   9.842  0.0319 -0.2267  0.3890
   21CHL1   H14 1497  -0.066   4.441   9.803 -0.3485  0.3981  0.1000
   21CHL1   C15 1498  -0.264   4.519   9.820 -0.3396 -0.3696 -0.3433
   21CHL1  H15A 1499  -0.338   4.491   9.898  0.0800 -0.2895  0.0880
   21CHL1  H15B 1500  -0.215   4.615   9.849 -0.3769 -0.0955 -1.1667
   21CHL1   C16 1501  -0.304   4.496   9.675  0.0415 -0.4811 -0.0122
   21CHL1  H16A 1502  -0.414   4.485   9.670 -0.3718  2.9434  0.9005
   21CHL1  H16B 1503  -0.275   4.584   9.615  1.8566 -0.1748  1.2697
   21CHL1   C17 1504  -0.229   4.366   9.628 -0.2221  0.4368 -0.8177
   21CHL1   H17 1505  -0.123   4.399   9.613 -0.7109  1.9606 -1.0340
   21CHL1   C13 1506  -0.206   4.281   9.752  0.1396 -0.3395  0.1960
   21CHL1   C18 1507  -0.343   4.225   9.801  0.3471 -0.8887 -0.3065
   21CHL1  H18A 1508  -0.339   4.188   9.905 -2.1763 -0.2302  0.0553
   21CHL1  H18B 1509  -0.426   4.298   9.790  1.4915  0.2647 -1.4996
   21CHL1  H18C 1510  -0.374   4.138   9.738 -1.4475 -0.4398 -0.0754
   21CHL1   C12 1511  -0.103   4.172   9.734 -0.4854 -0.4196 -0.1325
   21CHL1  H12A 1512  -0.138   4.091   9.666 -1.1790  0.1453 -0.4651
   21CHL1  H12B 1513  -0.012   4.220   9.693 -1.2576  0.2978 -1.0717
   21CHL1   C11 1514  -0.078   4.116   9.877 -0.4022 -0.0817 -0.6411
   21CHL1  H11A 1515  -0.170   4.061   9.908  0.0068 -0.1404  0.4658
   21CHL1  H11B 1516   0.006   4.046   9.860  1.7671  2.4483 -0.5862
   21CHL1    C9 1517  -0.039   4.225   9.987  0.1019  0.4486  0.3209
   21CHL1    H9 1518   0.062   4.251   9.949 -0.2006 -0.9159 -1.4829
   21CHL1   C10 1519  -0.009   4.168  10.125 -0.0786  0.3046  0.4532
   21CHL1   C19 1520  -0.135   4.110  10.191  0.3333 -0.4551 -0.9214
   21CHL1  H19A 1521  -0.191   4.046  10.118 -1.8207  0.7529 -0.3764
   21CHL1  H19B 1522  -0.104   4.056  10.283 -2.3785 -1.8382 -0.7693
   21CHL1  H19C 1523  -0.205   4.188  10.227  0.3928  1.0246 -3.8679
   21CHL1    C1 1524   0.106   4.064  10.113 -0.2547  0.0190 -0.3112
   21CHL1   H1A 1525   0.072   3.970  10.066  0.6192 -0.4772  0.0451
   21CHL1   H1B 1526   0.187   4.116  10.058 -0.1363  0.3486  0.1698
   21CHL1    C2 1527   0.161   4.018  10.250 -0.0048 -0.4880 -0.1723
   21CHL1   H2A 1528   0.252   3.960  10.223 -0.1179  0.5384 -2.8614
   21CHL1   H2B 1529   0.099   3.941  10.303 -0.7032  0.3787  0.2807
   21CHL1   C20 1530  -0.292   4.301   9.498 -0.4242  0.1621  0.0021
   21CHL1   H20 1531  -0.348   4.211   9.530  1.4345 -1.6510 -1.7286
   21CHL1   C21 1532  -0.171   4.252   9.407  0.6814  0.3662  0.4888
   21CHL1  H21A 1533  -0.102   4.192   9.470  1.5078  1.3327  0.5190
   21CHL1  H21B 1534  -0.117   4.345   9.380 -0.5166  0.8342 -0.3338
   21CHL1  H21C 1535  -0.214   4.196   9.321 -2.2043 -0.1953  2.2061
   21CHL1   C22 1536  -0.383   4.380   9.409  0.0680 -0.0103 -0.3593
   21CHL1  H22A 1537  -0.474   4.419   9.460  1.5609  1.3567  1.3395
   21CHL1  H22B 1538  -0.330   4.469   9.369  2.2331 -2.1018 -2.2758
   21CHL1   C23 1539  -0.436   4.307   9.287 -1.1446  0.6626  0.2097
   21CHL1  H23A 1540  -0.350   4.303   9.216 -2.1376  2.1927 -1.0844
   21CHL1  H23B 1541  -0.467   4.201   9.300  0.7682  0.2262  1.6500
   21CHL1   C24 1542  -0.556   4.377   9.217 -0.5144 -0.3399  0.6776
   21CHL1  H24A 1543  -0.639   4.405   9.286 -0.7479 -1.2014  0.7579
   21CHL1  H24B 1544  -0.527   4.476   9.175  1.0634 -1.2470 -0.3931
   21CHL1   C25 1545  -0.596   4.295   9.086 -0.6133 -0.9875  0.3142
   21CHL1   H25 1546  -0.494   4.264   9.054  0.6082  2.3105  0.8509
   21CHL1   C26 1547  -0.686   4.178   9.134  0.2193 -0.0271 -0.6420
   21CHL1  H26A 1548  -0.792   4.213   9.137  0.2385  0.0562 -0.8986
   21CHL1  H26B 1549  -0.678   4.090   9.066 -2.5874  1.2679 -2.7485
   21CHL1  H26C 1550  -0.652   4.138   9.232  1.1614 -1.1996 -1.4267
   21CHL1   C27 1551  -0.661   4.375   8.972  0.6271 -0.4890 -0.1714
   21CHL1  H27A 1552  -0.750   4.435   9.000 -1.0686 -1.7786 -2.6067
   21CHL1  H27B 1553  -0.585   4.442   8.928  0.0602 -0.8308 -1.6849
   21CHL1  H27C 1554  -0.688   4.312   8.884  2.3994 -0.0969 -1.0142
   22CHL1    C3 1555   6.457   5.372  10.095  0.1121  0.3744  0.1977
   22CHL1    H3 1556   6.551   5.429  10.106 -0.5849  1.3601  1.0869
   22CHL1    O3 1557   6.414   5.341  10.228  0.4946 -0.4360  0.7402
   22CHL1   H3' 1558   6.339   5.280  10.231 -0.1995  0.4760  3.3269
   22CHL1    C4 1559   6.346   5.443  10.019 -0.2278  0.0862  0.3128
   22CHL1   H4A 1560   6.246   5.396  10.027  0.0694 -0.7824 -1.1014
   22CHL1   H4B 1561   6.338   5.541  10.071  0.0831  1.4053 -2.0496
   22CHL1    C5 1562   6.381   5.472   9.874 -0.7813 -0.3910 -0.2576
   22CHL1    C6 1563   6.379   5.597   9.826  0.7752  0.0415 -0.5327
   22CHL1    H6 1564   6.354   5.684   9.889  1.7371 -0.6845  0.8860
   22CHL1    C7 1565   6.414   5.630   9.684 -0.7941 -0.4156  0.1233
   22CHL1   H7A 1566   6.345   5.704   9.640 -1.8032 -0.7777  1.0783
   22CHL1   H7B 1567   6.517   5.669   9.668 -0.2922 -1.8029 -0.1463
   22CHL1    C8 1568   6.391   5.504   9.584 -0.2785 -0.0397 -0.5140
   22CHL1    H8 1569   6.282   5.482   9.580 -0.2253 -0.2383 -0.8576
   22CHL1   C14 1570   6.438   5.526   9.449  0.4881 -0.0626  0.2595
   22CHL1   H14 1571   6.544   5.557   9.454  0.2965  0.4719  1.2568
   22CHL1   C15 1572   6.378   5.643   9.368  0.0513  0.5930  0.2813
   22CHL1  H15A 1573   6.268   5.653   9.385 -0.0582 -1.8808  1.2269
   22CHL1  H15B 1574   6.418   5.746   9.374  1.1089  0.1687  0.6487
   22CHL1   C16 1575   6.398   5.599   9.221  0.1621  0.1988 -0.5351
   22CHL1  H16A 1576   6.308   5.620   9.159 -0.5123 -2.0827 -0.3872
   22CHL1  H16B 1577   6.474   5.667   9.177 -0.1823  1.2994  0.5283
   22CHL1   C17 1578   6.439   5.447   9.212  0.1840 -0.7471 -0.4148
   22CHL1   H17 1579   6.548   5.451   9.192  0.4924 -0.0386  1.3185
   22CHL1   C13 1580   6.414   5.398   9.356  0.0124  0.1800 -0.8637
   22CHL1   C18 1581   6.267   5.357   9.367 -0.1145  0.0593  0.4313
   22CHL1  H18A 1582   6.196   5.438   9.340  0.7484  0.4884 -0.5486
   22CHL1  H18B 1583   6.257   5.262   9.311 -1.8485  0.1587  0.5439
   22CHL1  H18C 1584   6.248   5.322   9.471  1.5380 -2.5920 -0.0878
   22CHL1   C12 1585   6.509   5.290   9.416 -0.7315 -0.7371 -0.3753
   22CHL1  H12A 1586   6.498   5.195   9.359 -0.8092 -0.0215 -1.5667
   22CHL1  H12B 1587   6.609   5.333   9.393  0.4360 -3.1757 -0.0192
   22CHL1   C11 1588   6.482   5.263   9.564 -0.7263  0.6009 -0.2481
   22CHL1  H11A 1589   6.397   5.192   9.571  1.8209 -2.3927  1.7645
   22CHL1  H11B 1590   6.571   5.202   9.592  0.7869  1.9592 -1.9712
   22CHL1    C9 1591   6.470   5.385   9.656 -0.1252 -0.4436  0.8475
   22CHL1    H9 1592   6.575   5.419   9.670  0.4963 -2.1611  0.5907
   22CHL1   C10 1593   6.420   5.347   9.796  0.3054 -0.3563  0.3996
   22CHL1   C19 1594   6.297   5.255   9.789  0.0559  0.9268  0.2230
   22CHL1  H19A 1595   6.254   5.230   9.888 -4.1041  2.4288 -1.1000
   22CHL1  H19B 1596   6.209   5.309   9.748  0.6964  1.7700 -0.0527
   22CHL1  H19C 1597   6.314   5.160   9.733  0.5424  0.1456  1.6693
   22CHL1    C1 1598   6.527   5.270   9.873 -0.3752  0.1744 -0.3697
   22CHL1   H1A 1599   6.545   5.178   9.813 -0.0993  0.9126 -1.4240
   22CHL1   H1B 1600   6.625   5.320   9.866 -1.1139  1.5927 -0.6015
   22CHL1    C2 1601   6.493   5.238  10.025 -0.3009  0.2243  0.4734
   22CHL1   H2A 1602   6.570   5.185  10.086  0.7303  0.3861 -0.6803
   22CHL1   H2B 1603   6.402   5.175  10.022  0.6976 -1.1309 -3.3557
   22CHL1   C20 1604   6.373   5.374   9.093 -1.2905  0.0644  0.4780
   22CHL1   H20 1605   6.263   5.389   9.095 -1.4064 -0.7829  3.5392
   22CHL1   C21 1606   6.413   5.227   9.091 -0.1137  0.2197 -0.4037
   22CHL1  H21A 1607   6.521   5.215   9.072 -0.1297  0.5379 -0.7117
   22CHL1  H21B 1608   6.342   5.182   9.019 -3.1438  1.6198  1.5567
   22CHL1  H21C 1609   6.388   5.173   9.185  4.1942  0.5122  1.0023
   22CHL1   C22 1610   6.426   5.442   8.958  0.2620  0.3903  0.4533
   22CHL1  H22A 1611   6.398   5.549   8.944 -0.5713 -0.1506 -2.3268
   22CHL1  H22B 1612   6.537   5.434   8.960  0.2472 -0.3602 -1.0504
   22CHL1   C23 1613   6.397   5.369   8.825  0.1272 -0.1565 -0.2594
   22CHL1  H23A 1614   6.439   5.267   8.811  0.7938  0.1027 -0.1553
   22CHL1  H23B 1615   6.287   5.352   8.834  0.6149 -2.9712  0.8962
   22CHL1   C24 1616   6.433   5.439   8.699  0.3501  0.0399 -0.1256
   22CHL1  H24A 1617   6.391   5.542   8.701  0.7673  0.2051  0.5098
   22CHL1  H24B 1618   6.543   5.441   8.681  0.7484 -0.1379  2.1134
   22CHL1   C25 1619   6.369   5.375   8.571  0.0166 -0.2770  0.4568
   22CHL1   H25 1620   6.425   5.280   8.552  0.8060  0.3893 -0.6118
   22CHL1   C26 1621   6.224   5.333   8.571 -0.2522  0.6223 -0.2371
   22CHL1  H26A 1622   6.187   5.298   8.472 -0.5037  1.7231 -0.5403
   22CHL1  H26B 1623   6.226   5.242   8.635  2.4180 -0.5634 -1.8966
   22CHL1  H26C 1624   6.159   5.412   8.615 -1.1260 -0.6415  0.7827
   22CHL1   C27 1625   6.394   5.472   8.457 -0.0475 -0.4565  0.2103
   22CHL1  H27A 1626   6.356   5.428   8.362 -0.7076  0.6974 -0.0639
   22CHL1  H27B 1627   6.331   5.562   8.475  1.5867  0.4192  1.6492
   22CHL1  H27C 1628   6.501   5.500   8.448 -0.2688 -0.7113 -4.4493
   23CHL1    C3 1629   3.313   6.413  10.143  0.0852  0.1400 -0.1477
   23CHL1    H3 1630   3.249   6.366  10.066 -1.2315 -0.0027  1.0075
   23CHL1    O3 1631   3.251   6.374  10.264 -0.3995  0.2505 -0.2612
   23CHL1   H3' 1632   3.292   6.412  10.341 -1.7976 -1.2342  1.2497
   23CHL1    C4 1633   3.458   6.363  10.130  0.1026  0.3139 -0.3952
   23CHL1   H4A 1634   3.518   6.419  10.206  0.7193  1.4105 -1.6772
   23CHL1   H4B 1635   3.452   6.255  10.159  1.4806  0.3741  0.2021
   23CHL1    C5 1636   3.503   6.377   9.980 -0.2539 -0.6592  0.4076
   23CHL1    C6 1637   3.542   6.273   9.902  0.3578 -0.1537  0.1558
   23CHL1    H6 1638   3.534   6.171   9.942  1.1712 -0.1890  0.2519
   23CHL1    C7 1639   3.593   6.285   9.760 -0.2819 -0.1156  0.2520
   23CHL1   H7A 1640   3.685   6.230   9.729  0.1103  0.3097  0.6509
   23CHL1   H7B 1641   3.501   6.249   9.709  0.7453 -2.3771 -0.0969
   23CHL1    C8 1642   3.616   6.434   9.725  0.0596 -0.1338 -0.3643
   23CHL1    H8 1643   3.719   6.457   9.760  0.1660  1.8225 -1.8888
   23CHL1   C14 1644   3.613   6.441   9.573  0.5570 -0.0193  0.6324
   23CHL1   H14 1645   3.509   6.418   9.542  0.6283  0.2798  0.1692
   23CHL1   C15 1646   3.698   6.341   9.502 -0.5827 -0.8515  0.7724
   23CHL1  H15A 1647   3.796   6.321   9.550  0.0299  1.7449  0.6776
   23CHL1  H15B 1648   3.649   6.243   9.486  1.9473 -1.8679 -1.2115
   23CHL1   C16 1649   3.726   6.400   9.358 -0.2772 -0.0800  0.2014
   23CHL1  H16A 1650   3.835   6.414   9.343 -0.1514 -2.6385 -1.5118
   23CHL1  H16B 1651   3.682   6.333   9.281 -0.6041  2.6160 -2.0513
   23CHL1   C17 1652   3.657   6.540   9.360  0.1257  0.2519 -0.3825
   23CHL1   H17 1653   3.552   6.535   9.323  0.8092  0.5215 -2.4603
   23CHL1   C13 1654   3.643   6.575   9.514 -0.2652 -0.1544  0.5097
   23CHL1   C18 1655   3.779   6.623   9.565  0.1764 -0.4915  0.3538
   23CHL1  H18A 1656   3.785   6.635   9.676  2.0280  1.4916  0.0785
   23CHL1  H18B 1657   3.862   6.559   9.528  0.8003  1.2466 -1.2967
   23CHL1  H18C 1658   3.791   6.726   9.527  0.6734 -0.8239 -0.3899
   23CHL1   C12 1659   3.525   6.677   9.562  0.1910 -0.0930  0.4259
   23CHL1  H12A 1660   3.560   6.778   9.530 -2.9366  0.8168 -0.3228
   23CHL1  H12B 1661   3.439   6.649   9.498 -0.4030  2.0633  0.2239
   23CHL1   C11 1662   3.510   6.674   9.716  0.8324  0.5004 -0.1453
   23CHL1  H11A 1663   3.607   6.715   9.751  0.3343  1.6559 -0.1242
   23CHL1  H11B 1664   3.424   6.732   9.753 -0.5001 -0.3342 -1.8367
   23CHL1    C9 1665   3.508   6.529   9.785  0.6978 -0.1600  0.0618
   23CHL1    H9 1666   3.406   6.498   9.753  0.6961 -0.4073  0.3069
   23CHL1   C10 1667   3.492   6.525   9.932 -0.5636 -0.3387  0.1200
   23CHL1   C19 1668   3.605   6.607   9.999  0.3199 -0.1245  0.0239
   23CHL1  H19A 1669   3.606   6.590  10.109 -1.1037  3.2473  0.6256
   23CHL1  H19B 1670   3.702   6.592   9.947  0.5366 -2.0563  0.9551
   23CHL1  H19C 1671   3.587   6.717   9.995  0.2256 -0.1257  0.4172
   23CHL1    C1 1672   3.354   6.592   9.973  0.1784 -0.0137 -0.4960
   23CHL1   H1A 1673   3.358   6.702   9.960 -2.7488  0.0222 -1.4552
   23CHL1   H1B 1674   3.280   6.552   9.901  0.2363 -0.7367 -0.1610
   23CHL1    C2 1675   3.309   6.569  10.118 -0.1543  0.4108 -0.4289
   23CHL1   H2A 1676   3.207   6.605  10.143 -0.1847  1.0458 -1.4554
   23CHL1   H2B 1677   3.383   6.617  10.185  1.1470 -2.4366  0.2542
   23CHL1   C20 1678   3.729   6.637   9.260  0.3245 -0.1700 -0.1620
   23CHL1   H20 1679   3.831   6.655   9.301 -0.0216 -2.8282  2.0023
   23CHL1   C21 1680   3.655   6.770   9.240  0.3683 -0.3232  0.1423
   23CHL1  H21A 1681   3.549   6.757   9.212  0.1010  3.1776 -0.7122
   23CHL1  H21B 1682   3.703   6.846   9.175  1.4080 -1.4691 -0.4477
   23CHL1  H21C 1683   3.645   6.809   9.344 -2.8588 -0.6823  0.0208
   23CHL1   C22 1684   3.746   6.571   9.119  0.2367 -0.1223 -0.5367
   23CHL1  H22A 1685   3.822   6.491   9.136 -0.0326 -0.0840  0.8673
   23CHL1  H22B 1686   3.651   6.540   9.071  0.6596  0.3830 -1.7231
   23CHL1   C23 1687   3.824   6.653   9.012  0.0355  0.1866  0.5394
   23CHL1  H23A 1688   3.772   6.746   8.980 -1.1105 -0.8621 -0.6955
   23CHL1  H23B 1689   3.921   6.697   9.045 -1.1025  1.9700  1.6125
   23CHL1   C24 1690   3.858   6.573   8.883  0.0251  0.6154  0.0337
   23CHL1  H24A 1691   3.960   6.543   8.914 -1.5492 -2.8259  2.2558
   23CHL1  H24B 1692   3.791   6.485   8.866  2.1404 -1.0411  0.1015
   23CHL1   C25 1693   3.872   6.653   8.750 -0.0688 -0.3231  1.4088
   23CHL1   H25 1694   3.775   6.701   8.727 -0.3771 -1.5173  0.1977
   23CHL1   C26 1695   3.985   6.768   8.769 -0.3478  0.0677 -0.6487
   23CHL1  H26A 1696   3.936   6.854   8.819 -0.2753 -0.3322  0.1240
   23CHL1  H26B 1697   4.069   6.725   8.828 -0.9837 -0.0169  0.2071
   23CHL1  H26C 1698   4.013   6.796   8.665 -0.9572  2.1291 -0.2632
   23CHL1   C27 1699   3.900   6.560   8.631  0.0032  0.1475 -0.4457
   23CHL1  H27A 1700   3.819   6.487   8.608  0.1603 -0.6846  1.4894
   23CHL1  H27B 1701   3.924   6.619   8.541  0.0127  1.5373  0.4596
   23CHL1  H27C 1702   3.991   6.501   8.657  0.7038  2.2273  1.9908
   24CHL1    C3 1703   4.238   1.160  10.186 -0.4578  0.2485  0.1204
   24CHL1    H3 1704   4.332   1.217  10.188  0.0785 -0.6398  0.8299
   24CHL1    O3 1705   4.194   1.141  10.319  0.1486  0.0106 -0.1107
   24CHL1   H3' 1706   4.204   1.048  10.339  0.0789 -0.2971 -1.4653
   24CHL1    C4 1707   4.135   1.251  10.112  0.2287  1.0595  0.0253
   24CHL1   H4A 1708   4.042   1.192  10.128  1.9568 -1.4520  1.1798
   24CHL1   H4B 1709   4.118   1.346  10.167 -0.3833  1.1514 -0.3196
   24CHL1    C5 1710   4.184   1.268   9.970  0.9496 -1.2277  0.2234
   24CHL1    C6 1711   4.193   1.395   9.919  0.0331  0.3720  0.3427
   24CHL1    H6 1712   4.138   1.478   9.965 -1.2201 -0.6544  0.7115
   24CHL1    C7 1713   4.235   1.438   9.782 -0.0337 -0.4618 -0.4494
   24CHL1   H7A 1714   4.156   1.507   9.744  1.9345  2.3338  0.3997
   24CHL1   H7B 1715   4.332   1.490   9.774 -0.0411 -0.5144 -0.9156
   24CHL1    C8 1716   4.241   1.318   9.682  0.0325 -0.6349  0.5098
   24CHL1    H8 1717   4.138   1.286   9.655 -0.8833  0.0494  3.0700
   24CHL1   C14 1718   4.330   1.344   9.559 -0.2785 -0.1517 -0.4479
   24CHL1   H14 1719   4.434   1.353   9.597 -0.8212 -1.7746  1.5094
   24CHL1   C15 1720   4.286   1.470   9.487 -0.1194  0.3775  0.8550
   24CHL1  H15A 1721   4.175   1.458   9.490  0.2533 -3.4795  2.3179
   24CHL1  H15B 1722   4.324   1.560   9.540 -0.9209  0.4040  1.4095
   24CHL1   C16 1723   4.345   1.456   9.343  0.6529  0.4125 -0.1652
   24CHL1  H16A 1724   4.264   1.478   9.270 -0.4447  0.0798  0.9340
   24CHL1  H16B 1725   4.432   1.525   9.333  0.7710  0.0818 -1.5216
   24CHL1   C17 1726   4.397   1.307   9.338 -0.1775  0.7757  0.1466
   24CHL1   H17 1727   4.501   1.335   9.365  0.2673 -1.1335  0.4587
   24CHL1   C13 1728   4.336   1.237   9.455  0.3041  0.2368 -0.3749
   24CHL1   C18 1729   4.198   1.178   9.408  0.6420  0.0539  0.1775
   24CHL1  H18A 1730   4.131   1.148   9.491  0.2727  2.9007  0.9700
   24CHL1  H18B 1731   4.132   1.255   9.362  0.2422  0.2937  1.1379
   24CHL1  H18C 1732   4.210   1.092   9.339 -1.5970  0.0622 -0.2552
   24CHL1   C12 1733   4.412   1.124   9.527 -0.2399 -0.2856 -0.6590
   24CHL1  H12A 1734   4.427   1.033   9.465  1.1591 -0.4147 -0.1589
   24CHL1  H12B 1735   4.514   1.159   9.557 -0.3855 -1.6393  1.4868
   24CHL1   C11 1736   4.341   1.081   9.655 -0.5978 -0.2377  0.5932
   24CHL1  H11A 1737   4.247   1.026   9.633 -1.0133 -0.2648  2.3466
   24CHL1  H11B 1738   4.410   1.018   9.716 -2.7600 -2.6395  0.6300
   24CHL1    C9 1739   4.309   1.196   9.753  0.1118  0.6277 -0.3330
   24CHL1    H9 1740   4.408   1.231   9.789  0.9349 -1.0637 -0.9079
   24CHL1   C10 1741   4.226   1.148   9.886  0.3390 -0.0535  0.1414
   24CHL1   C19 1742   4.086   1.094   9.847 -0.6608  0.3721  0.5523
   24CHL1  H19A 1743   4.020   1.080   9.936 -0.0204  2.0533  1.3074
   24CHL1  H19B 1744   4.037   1.161   9.774 -3.3838 -2.6252 -0.4928
   24CHL1  H19C 1745   4.100   0.995   9.798 -1.0491  0.5027  0.1747
   24CHL1    C1 1746   4.311   1.053   9.977 -0.2804  0.3317 -0.1128
   24CHL1   H1A 1747   4.341   0.961   9.921  0.1230  2.1265 -2.9884
   24CHL1   H1B 1748   4.411   1.100   9.989  0.5646 -0.8719 -2.0598
   24CHL1    C2 1749   4.256   1.026  10.114 -0.2259  0.0124 -0.5349
   24CHL1   H2A 1750   4.331   0.959  10.161  0.2921  1.3778  0.6102
   24CHL1   H2B 1751   4.162   0.969  10.103  0.1334 -0.3538 -1.8101
   24CHL1   C20 1752   4.401   1.236   9.196  0.6235  0.5945 -0.1957
   24CHL1   H20 1753   4.298   1.196   9.184  0.8187 -0.3462  1.2057
   24CHL1   C21 1754   4.506   1.128   9.192  0.2981 -0.3186 -0.4333
   24CHL1  H21A 1755   4.605   1.166   9.225  0.8603 -0.1024 -2.2888
   24CHL1  H21B 1756   4.537   1.091   9.092  2.3194 -0.4336  0.2172
   24CHL1  H21C 1757   4.467   1.047   9.258 -0.9957  1.0666  0.5424
   24CHL1   C22 1758   4.422   1.329   9.071 -0.8167  0.3572  0.3797
   24CHL1  H22A 1759   4.422   1.264   8.980  0.4664  2.5851 -1.2725
   24CHL1  H22B 1760   4.336   1.395   9.049 -0.7995 -0.6767 -3.1118
   24CHL1   C23 1761   4.555   1.406   9.070 -0.3377  0.3069  0.2288
   24CHL1  H23A 1762   4.572   1.447   9.172 -0.2731  0.8721 -0.0093
   24CHL1  H23B 1763   4.638   1.337   9.046 -0.1031  0.0682  1.6587
   24CHL1   C24 1764   4.555   1.508   8.959 -0.6951  0.7619  0.3559
   24CHL1  H24A 1765   4.516   1.450   8.873  1.7837 -0.9723  0.3366
   24CHL1  H24B 1766   4.484   1.593   8.967 -1.8946 -0.2082  0.1584
   24CHL1   C25 1767   4.695   1.564   8.921  0.1193  0.1845 -0.2184
   24CHL1   H25 1768   4.772   1.493   8.958  0.7080  1.6327  1.4416
   24CHL1   C26 1769   4.706   1.596   8.766 -0.2264  0.6145 -0.9322
   24CHL1  H26A 1770   4.790   1.662   8.736 -0.1027  2.0715  2.3687
   24CHL1  H26B 1771   4.717   1.505   8.703  0.8730  0.9059 -1.1721
   24CHL1  H26C 1772   4.623   1.664   8.742 -0.6914  0.5255  0.3587
   24CHL1   C27 1773   4.719   1.695   9.000  0.6873  0.3890 -0.3855
   24CHL1  H27A 1774   4.829   1.704   9.010  0.6231  1.7053 -0.8432
   24CHL1  H27B 1775   4.677   1.786   8.953  0.5257 -0.0677 -1.1360
   24CHL1  H27C 1776   4.693   1.684   9.107  1.2260  1.4585 -0.1378
   25CHL1    C3 1777   5.751   2.555  10.363  0.8155 -0.9271 -0.2648
   25CHL1    H3 1778   5.771   2.664  10.358 -0.7985 -0.6703 -1.4873
   25CHL1    O3 1779   5.681   2.536  10.487 -0.5159 -0.4468 -0.0827
   25CHL1   H3' 1780   5.688   2.443  10.509 -0.8692 -1.0557 -2.4893
   25CHL1    C4 1781   5.650   2.502  10.263 -0.0805 -0.1440  0.1307
   25CHL1   H4A 1782   5.634   2.396  10.291  0.3112  0.3335  2.2246
   25CHL1   H4B 1783   5.547   2.541  10.281  0.6008  1.9224 -0.3505
   25CHL1    C5 1784   5.690   2.511  10.123  0.4947 -0.3329  0.2314
   25CHL1    C6 1785   5.622   2.576  10.038 -0.4937  0.0253 -0.1385
   25CHL1    H6 1786   5.530   2.624  10.074  0.0639  0.1701  1.1362
   25CHL1    C7 1787   5.649   2.596   9.889  1.2008  0.2283  0.1076
   25CHL1   H7A 1788   5.560   2.554   9.838  0.4096  0.5113  1.2172
   25CHL1   H7B 1789   5.656   2.705   9.868  0.4659  0.4659  1.0576
   25CHL1    C8 1790   5.778   2.511   9.846  0.4381  0.1416  0.3755
   25CHL1    H8 1791   5.742   2.411   9.815  1.0630 -0.7901  2.5396
   25CHL1   C14 1792   5.838   2.571   9.715  0.4003 -0.6039  0.4515
   25CHL1   H14 1793   5.864   2.677   9.736  0.4114 -0.2325 -1.3549
   25CHL1   C15 1794   5.756   2.577   9.583 -0.3073 -0.2812 -1.0744
   25CHL1  H15A 1795   5.705   2.480   9.565 -0.0751 -0.7563  0.6716
   25CHL1  H15B 1796   5.679   2.656   9.602 -1.2748 -1.7978  1.6618
   25CHL1   C16 1797   5.858   2.589   9.472 -0.1090 -0.1700 -0.6680
   25CHL1  H16A 1798   5.835   2.525   9.385 -0.2407 -0.7731 -0.1970
   25CHL1  H16B 1799   5.857   2.692   9.430  0.5840  0.4422  0.7721
   25CHL1   C17 1800   5.999   2.567   9.535  0.1746  0.7382 -0.2203
   25CHL1   H17 1801   6.035   2.663   9.576 -1.0125  1.3902 -0.6723
   25CHL1   C13 1802   5.964   2.498   9.668 -0.1635  1.0358  0.6228
   25CHL1   C18 1803   5.945   2.348   9.624 -0.1168  0.3462 -0.2701
   25CHL1  H18A 1804   5.891   2.295   9.706  1.3076  0.6123  0.8584
   25CHL1  H18B 1805   5.882   2.341   9.533 -1.9484 -0.5605  1.0183
   25CHL1  H18C 1806   6.041   2.297   9.605 -0.8115 -0.6332 -1.1793
   25CHL1   C12 1807   6.070   2.492   9.780  0.2388 -0.4009  0.2240
   25CHL1  H12A 1808   6.155   2.424   9.757 -0.4225 -1.6387  1.3758
   25CHL1  H12B 1809   6.122   2.590   9.789 -0.9580  0.4081 -1.3407
   25CHL1   C11 1810   6.015   2.439   9.911  0.2733  0.4174 -0.5558
   25CHL1  H11A 1811   5.988   2.335   9.885 -1.7951  0.6969  0.3882
   25CHL1  H11B 1812   6.090   2.448   9.993  0.4988  0.4026 -0.7619
   25CHL1    C9 1813   5.882   2.512   9.957  0.4881  0.2125  0.7706
   25CHL1    H9 1814   5.904   2.619   9.972 -0.2650  0.6891 -1.3053
   25CHL1   C10 1815   5.829   2.457  10.095 -0.4605  0.3133  0.9577
   25CHL1   C19 1816   5.808   2.304  10.077 -0.3131 -0.1697 -0.3089
   25CHL1  H19A 1817   5.903   2.247  10.072 -0.6162 -0.7398  0.3660
   25CHL1  H19B 1818   5.758   2.257  10.165  0.7845 -0.7630  0.0003
   25CHL1  H19C 1819   5.744   2.277   9.990 -0.1361  1.0776 -0.8470
   25CHL1    C1 1820   5.932   2.489  10.205  0.6438 -0.4434  0.2887
   25CHL1   H1A 1821   6.024   2.429  10.194  1.2080  0.5610 -0.6271
   25CHL1   H1B 1822   5.972   2.593  10.200 -0.1815 -0.1348 -0.0199
   25CHL1    C2 1823   5.878   2.478  10.350 -0.7956  0.0050  0.0590
   25CHL1   H2A 1824   5.957   2.512  10.421 -1.5082 -2.0575  1.9093
   25CHL1   H2B 1825   5.852   2.377  10.386 -0.4409 -0.2073 -0.2749
   25CHL1   C20 1826   6.096   2.507   9.441 -0.2252  0.2377 -0.1055
   25CHL1   H20 1827   6.073   2.406   9.400  0.0941  1.2704 -3.0005
   25CHL1   C21 1828   6.242   2.499   9.504  0.1418  0.8956  0.0789
   25CHL1  H21A 1829   6.260   2.593   9.561 -0.6254  1.6471 -0.8920
   25CHL1  H21B 1830   6.321   2.488   9.427 -0.8318  0.0107 -0.7930
   25CHL1  H21C 1831   6.241   2.405   9.563  0.8298  0.8695  0.0552
   25CHL1   C22 1832   6.107   2.583   9.304 -0.0013 -0.2537  0.3648
   25CHL1  H22A 1833   6.008   2.613   9.263  0.0539 -0.8745 -0.2476
   25CHL1  H22B 1834   6.174   2.668   9.329 -0.5825  0.5785 -0.8607
   25CHL1   C23 1835   6.176   2.495   9.199  0.1540 -0.3564 -0.1015
   25CHL1  H23A 1836   6.277   2.456   9.225  0.8462  2.0494  0.9519
   25CHL1  H23B 1837   6.112   2.405   9.182 -1.2395  0.4995  0.4865
   25CHL1   C24 1838   6.198   2.562   9.058 -0.1987 -0.5642 -0.4352
   25CHL1  H24A 1839   6.099   2.581   9.014 -0.3680 -1.0680 -0.2786
   25CHL1  H24B 1840   6.245   2.660   9.085 -2.0686  0.8336 -2.1754
   25CHL1   C25 1841   6.271   2.487   8.945 -0.5042  0.7565  0.7966
   25CHL1   H25 1842   6.345   2.423   8.999  0.3954  0.9918 -0.1477
   25CHL1   C26 1843   6.175   2.401   8.865 -0.6484  0.2103  0.9215
   25CHL1  H26A 1844   6.120   2.329   8.929 -2.9142 -0.9227 -2.1320
   25CHL1  H26B 1845   6.092   2.464   8.825 -0.5385  1.2917  2.3535
   25CHL1  H26C 1846   6.228   2.334   8.794  1.3947  3.0255 -0.3235
   25CHL1   C27 1847   6.357   2.586   8.854 -0.1822 -0.1443  0.4565
   25CHL1  H27A 1848   6.422   2.535   8.781  0.9544  3.1713 -0.9409
   25CHL1  H27B 1849   6.288   2.652   8.796 -1.0983 -0.0722  1.5941
   25CHL1  H27C 1850   6.419   2.650   8.921 -1.2113 -0.6029  1.8936
   26CHL1    C3 1851   0.087   4.835  10.166  0.5235  0.0989 -0.6442
   26CHL1    H3 1852   0.050   4.730  10.165  1.1436 -0.1251 -0.8375
   26CHL1    O3 1853   0.107   4.870  10.294 -0.3025  0.2792  0.1363
   26CHL1   H3' 1854   0.056   4.948  10.315 -1.2875 -1.0155  2.7454
   26CHL1    C4 1855   0.218   4.831  10.079 -0.0007  0.0342  0.3440
   26CHL1   H4A 1856   0.265   4.932  10.085  3.3456 -1.4773  1.1376
   26CHL1   H4B 1857   0.289   4.762  10.130  0.6495  1.3784  1.2849
   26CHL1    C5 1858   0.176   4.791   9.935  0.6019  0.1912  0.1936
   26CHL1    C6 1859   0.224   4.678   9.876 -0.0229  0.2557  0.1321
   26CHL1    H6 1860   0.298   4.619   9.934  0.0579  1.4437  1.2584
   26CHL1    C7 1861   0.178   4.635   9.739 -0.6405 -0.3846 -0.3016
   26CHL1   H7A 1862   0.257   4.588   9.676 -0.5897 -0.3216 -0.2847
   26CHL1   H7B 1863   0.102   4.555   9.754 -0.6581 -0.6540 -1.7475
   26CHL1    C8 1864   0.130   4.746   9.649  0.3905 -0.1961  0.3551
   26CHL1    H8 1865   0.217   4.811   9.626 -2.2436  1.9697 -4.0203
   26CHL1   C14 1866   0.068   4.693   9.525  0.1119 -0.4521  0.3290
   26CHL1   H14 1867  -0.023   4.639   9.556 -1.3279  2.8154  2.0377
   26CHL1   C15 1868   0.144   4.585   9.434  1.0879 -0.0922  0.4610
   26CHL1  H15A 1869   0.253   4.604   9.427  0.7257  2.5816  1.4100
   26CHL1  H15B 1870   0.137   4.482   9.475 -0.6914 -0.0797  0.2084
   26CHL1   C16 1871   0.072   4.595   9.301  0.2901  0.5385  0.3612
   26CHL1  H16A 1872   0.152   4.620   9.228 -0.1928  2.8935  0.5935
   26CHL1  H16B 1873   0.026   4.499   9.269  1.5080  0.1736 -0.3040
   26CHL1   C17 1874  -0.036   4.714   9.311  0.4525 -0.6902  0.3737
   26CHL1   H17 1875  -0.128   4.663   9.346 -1.3527 -0.3516 -3.5446
   26CHL1   C13 1876   0.012   4.796   9.426  1.0790  0.4750  0.7851
   26CHL1   C18 1877   0.122   4.897   9.387 -0.0844 -0.2653  0.2059
   26CHL1  H18A 1878   0.206   4.853   9.330  0.4402  1.1354 -0.1179
   26CHL1  H18B 1879   0.083   4.968   9.311  1.5662  0.4759  0.0364
   26CHL1  H18C 1880   0.168   4.955   9.470 -0.7074 -0.0662  0.4178
   26CHL1   C12 1881  -0.100   4.863   9.507  0.2305  0.7311 -0.1578
   26CHL1  H12A 1882  -0.143   4.943   9.443 -1.3641  0.1384  0.1637
   26CHL1  H12B 1883  -0.179   4.790   9.531  0.7067 -0.2572 -1.5267
   26CHL1   C11 1884  -0.049   4.924   9.644 -0.2365 -0.2638 -0.4487
   26CHL1  H11A 1885   0.015   5.008   9.608 -1.6279  1.0479  0.0815
   26CHL1  H11B 1886  -0.140   4.964   9.694  0.0377  0.1081 -0.2445
   26CHL1    C9 1887   0.027   4.824   9.731 -0.3086 -0.5624 -0.5738
   26CHL1    H9 1888  -0.042   4.746   9.768 -0.1361 -0.7240 -0.5887
   26CHL1   C10 1889   0.085   4.886   9.864  0.0014  0.3361  0.4484
   26CHL1   C19 1890   0.145   5.033   9.842 -0.0461 -0.1846  0.1645
   26CHL1  H19A 1891   0.072   5.111   9.812  1.9027  1.1909 -1.1158
   26CHL1  H19B 1892   0.183   5.072   9.939 -0.8134  1.2868 -0.1194
   26CHL1  H19C 1893   0.222   5.044   9.762 -0.1674 -1.2007 -0.0958
   26CHL1    C1 1894  -0.044   4.907   9.961 -0.2851 -0.1833 -0.3324
   26CHL1   H1A 1895  -0.103   4.992   9.920  1.7336  1.9401  1.0564
   26CHL1   H1B 1896  -0.114   4.821   9.951 -1.8380  1.1612 -1.2209
   26CHL1    C2 1897  -0.015   4.928  10.105  0.9121 -0.0614 -0.5250
   26CHL1   H2A 1898  -0.111   4.926  10.161  1.3951  1.2429  0.3734
   26CHL1   H2B 1899   0.017   5.034  10.107  0.7061  0.0630 -2.5538
   26CHL1   C20 1900  -0.057   4.773   9.175 -0.2760  0.0293 -0.1168
   26CHL1   H20 1901   0.031   4.836   9.148 -1.3564  0.3506 -3.0301
   26CHL1   C21 1902  -0.172   4.876   9.180  0.1032  0.7666 -0.2245
   26CHL1  H21A 1903  -0.137   4.979   9.204  0.0043  0.6599  0.4012
   26CHL1  H21B 1904  -0.233   4.843   9.267  1.1402  1.6352  0.8640
   26CHL1  H21C 1905  -0.226   4.878   9.083  1.7010 -0.1733 -1.1609
   26CHL1   C22 1906  -0.066   4.673   9.056  0.2270  0.0500 -0.5793
   26CHL1  H22A 1907  -0.085   4.739   8.969  0.8857  0.5366 -0.3582
   26CHL1  H22B 1908   0.030   4.620   9.043  0.9732  0.4858  2.7469
   26CHL1   C23 1909  -0.181   4.573   9.060 -0.4404 -0.3093  0.1800
   26CHL1  H23A 1910  -0.172   4.519   9.157  0.6602 -1.1216 -0.3649
   26CHL1  H23B 1911  -0.281   4.621   9.055 -0.2478  0.0668 -0.1164
   26CHL1   C24 1912  -0.162   4.463   8.950 -0.5700 -0.4331  0.3194
   26CHL1  H24A 1913  -0.066   4.409   8.966 -2.0720 -2.5339  2.7381
   26CHL1  H24B 1914  -0.240   4.384   8.962 -0.7990 -0.0682  1.3270
   26CHL1   C25 1915  -0.162   4.520   8.804 -0.5339 -0.1200  0.2758
   26CHL1   H25 1916  -0.086   4.601   8.811  1.0880 -1.7276  1.7414
   26CHL1   C26 1917  -0.132   4.414   8.695  0.1290  0.7861  0.0382
   26CHL1  H26A 1918  -0.033   4.367   8.708 -0.1915  0.3085  0.7393
   26CHL1  H26B 1919  -0.208   4.334   8.693 -0.5201  1.3827  0.3955
   26CHL1  H26C 1920  -0.131   4.462   8.595  3.8041  2.3686  0.7496
   26CHL1   C27 1921  -0.294   4.577   8.774  0.0637  0.1777 -0.4180
   26CHL1  H27A 1922  -0.324   4.633   8.865 -0.5413  1.8309 -1.6146
   26CHL1  H27B 1923  -0.291   4.652   8.692 -1.2785 -1.7234 -2.2495
   26CHL1  H27C 1924  -0.373   4.504   8.746 -1.0615  0.2170  2.5441
   27CHL1    C3 1925   6.230   2.054  10.391  0.1771  0.0012 -0.3453
   27CHL1    H3 1926   6.138   2.005  10.352 -0.2886 -1.0828  2.0733
   27CHL1    O3 1927   6.213   2.071  10.530 -0.2287 -0.3557  0.1775
   27CHL1   H3' 1928   6.137   2.127  10.549  0.7387  1.9160 -2.3282
   27CHL1    C4 1929   6.353   1.975  10.367  0.2506  0.2060  0.1800
   27CHL1   H4A 1930   6.437   2.018  10.427 -0.2712 -0.7816  1.6222
   27CHL1   H4B 1931   6.331   1.875  10.409 -0.4758  0.6929  0.9552
   27CHL1    C5 1932   6.383   1.972  10.213  0.6518 -0.4153  0.0696
   27CHL1    C6 1933   6.405   1.857  10.154 -0.2544  0.7104  0.7379
   27CHL1    H6 1934   6.394   1.761  10.207  0.0122 -0.2477 -0.9387
   27CHL1    C7 1935   6.440   1.848  10.005  0.2314 -0.0132  0.5531
   27CHL1   H7A 1936   6.510   1.762   9.992  0.4052  0.5171 -2.3495
   27CHL1   H7B 1937   6.347   1.812   9.956 -0.0838  0.6119  0.6890
   27CHL1    C8 1938   6.482   1.981   9.942  0.6778 -0.3516 -0.3953
   27CHL1    H8 1939   6.588   1.996   9.974  0.2101  2.4139 -0.0524
   27CHL1   C14 1940   6.480   1.986   9.784  0.1644 -0.2434  0.6939
   27CHL1   H14 1941   6.375   1.987   9.747  0.4497 -1.9588 -0.2009
   27CHL1   C15 1942   6.521   1.857   9.719  0.5495 -0.2474 -0.4039
   27CHL1  H15A 1943   6.607   1.805   9.767 -0.0575 -1.8056 -0.9870
   27CHL1  H15B 1944   6.437   1.785   9.716  0.5367 -0.1807 -3.0222
   27CHL1   C16 1945   6.572   1.909   9.580 -0.3851  0.2757  0.0446
   27CHL1  H16A 1946   6.681   1.892   9.584 -0.3923  0.1646 -0.2311
   27CHL1  H16B 1947   6.523   1.840   9.508 -0.7608  1.3700 -0.7644
   27CHL1   C17 1948   6.536   2.056   9.568 -0.4667 -0.1936  0.1514
   27CHL1   H17 1949   6.429   2.069   9.541 -0.0569  1.4419 -0.7592
   27CHL1   C13 1950   6.540   2.110   9.714  0.8524  0.0159  0.4393
   27CHL1   C18 1951   6.683   2.141   9.751  0.0950 -0.3917 -0.2171
   27CHL1  H18A 1952   6.709   2.236   9.699 -0.9115 -0.2578 -0.4904
   27CHL1  H18B 1953   6.695   2.151   9.861 -0.3197 -0.4171 -0.1692
   27CHL1  H18C 1954   6.753   2.064   9.713  1.8581  2.1138 -2.2422
   27CHL1   C12 1955   6.456   2.231   9.752 -0.4373 -0.7834 -0.2647
   27CHL1  H12A 1956   6.507   2.322   9.713 -0.4247 -1.0897 -0.9563
   27CHL1  H12B 1957   6.350   2.222   9.720  0.1775  2.2331 -3.4664
   27CHL1   C11 1958   6.445   2.230   9.907 -0.2520  1.0735  0.0238
   27CHL1  H11A 1959   6.540   2.254   9.959  0.3937 -1.3302  0.0470
   27CHL1  H11B 1960   6.380   2.311   9.945 -2.4571  0.5462 -2.5160
   27CHL1    C9 1961   6.399   2.100   9.985  1.0265 -0.5878 -0.6170
   27CHL1    H9 1962   6.296   2.069   9.957 -0.5788 -0.0606  4.3521
   27CHL1   C10 1963   6.397   2.109  10.139  1.2098  0.0422  0.0857
   27CHL1   C19 1964   6.521   2.180  10.196  0.8641 -0.0050 -0.3341
   27CHL1  H19A 1965   6.610   2.123  10.161  1.1052  0.3876 -0.3520
   27CHL1  H19B 1966   6.520   2.290  10.182  1.7752  0.0897  0.3140
   27CHL1  H19C 1967   6.517   2.168  10.307  0.2201  0.0716 -0.3427
   27CHL1    C1 1968   6.267   2.190  10.179 -0.5237 -1.0064 -0.7555
   27CHL1   H1A 1969   6.270   2.296  10.144 -2.0431 -0.0814  1.7329
   27CHL1   H1B 1970   6.180   2.137  10.134 -0.5305 -1.7765  0.1532
   27CHL1    C2 1971   6.242   2.197  10.331  0.0395 -0.6760 -0.5587
   27CHL1   H2A 1972   6.146   2.249  10.351 -0.4320 -1.2765 -1.2172
   27CHL1   H2B 1973   6.328   2.256  10.370 -1.7168  2.2049 -0.8286
   27CHL1   C20 1974   6.620   2.128   9.463  0.0952 -0.3780  0.2612
   27CHL1   H20 1975   6.726   2.129   9.495  0.4167  3.8786 -0.7284
   27CHL1   C21 1976   6.575   2.275   9.441  0.4255  0.2192 -0.4839
   27CHL1  H21A 1977   6.608   2.309   9.340 -0.4127  0.8457 -0.5571
   27CHL1  H21B 1978   6.610   2.345   9.520 -2.2058  0.8370  0.1609
   27CHL1  H21C 1979   6.467   2.300   9.445 -0.3284 -2.9553 -0.1100
   27CHL1   C22 1980   6.642   2.050   9.331  0.0753 -0.6738  0.2645
   27CHL1  H22A 1981   6.713   2.112   9.272  0.3553  0.2589  1.5633
   27CHL1  H22B 1982   6.685   1.951   9.360  1.2623 -0.7704 -1.7746
   27CHL1   C23 1983   6.516   2.034   9.243 -0.1047 -0.2307 -0.1116
   27CHL1  H23A 1984   6.441   1.983   9.307  0.4342  1.2852  1.7830
   27CHL1  H23B 1985   6.471   2.135   9.229  1.6109  0.5593 -0.0039
   27CHL1   C24 1986   6.532   1.968   9.108 -0.0778 -0.3626  0.4266
   27CHL1  H24A 1987   6.591   1.875   9.123 -0.8248 -0.2869  4.6165
   27CHL1  H24B 1988   6.428   1.954   9.072  0.4600  2.2666 -2.2460
   27CHL1   C25 1989   6.593   2.066   9.004  0.1979  0.5294  0.5594
   27CHL1   H25 1990   6.663   2.142   9.045 -0.1202  1.5484 -0.7789
   27CHL1   C26 1991   6.671   1.991   8.898 -0.4499 -0.2500 -0.7258
   27CHL1  H26A 1992   6.767   1.943   8.928 -1.0654  0.5003  2.6349
   27CHL1  H26B 1993   6.603   1.912   8.860 -0.8960 -0.4230  0.4311
   27CHL1  H26C 1994   6.688   2.062   8.814  0.0064  1.8985  1.1292
   27CHL1   C27 1995   6.492   2.158   8.932  0.4045  1.1311 -0.1625
   27CHL1  H27A 1996   6.533   2.250   8.883  0.8161  2.6459  2.9356
   27CHL1  H27B 1997   6.428   2.106   8.858 -0.7875  0.8152  1.0877
   27CHL1  H27C 1998   6.421   2.198   9.006  0.1939  0.8719 -0.2256
   28CHL1    C3 1999   5.745   0.915  10.089  0.5001 -1.0593  0.6341
   28CHL1    H3 2000   5.784   1.018  10.071  1.3661 -1.2528  1.3842
   28CHL1    O3 2001   5.726   0.878  10.224 -0.1493  0.8066  0.8896
   28CHL1   H3' 2002   5.683   0.793  10.218  0.9538  0.4154 -2.0888
   28CHL1    C4 2003   5.613   0.876  10.016 -0.3176 -0.6841  0.3525
   28CHL1   H4A 2004   5.599   0.767  10.034  0.7378 -0.7683  0.6606
   28CHL1   H4B 2005   5.525   0.926  10.062  1.5906  0.9780  2.3086
   28CHL1    C5 2006   5.626   0.899   9.865  0.4969  0.1741  0.3285
   28CHL1    C6 2007   5.541   0.971   9.795  0.0339  0.0705  0.2957
   28CHL1    H6 2008   5.468   1.033   9.849 -0.1653  1.0066 -1.0263
   28CHL1    C7 2009   5.527   0.991   9.643 -0.5228 -0.0568  1.0403
   28CHL1   H7A 2010   5.418   0.992   9.623 -0.2891  1.9956 -0.3299
   28CHL1   H7B 2011   5.567   1.090   9.615  0.8809 -0.1872  2.5127
   28CHL1    C8 2012   5.599   0.871   9.569  0.1046 -0.2644  0.4253
   28CHL1    H8 2013   5.538   0.778   9.581  2.2004 -1.7327 -0.0928
   28CHL1   C14 2014   5.611   0.907   9.421 -0.5370  0.4410 -0.0783
   28CHL1   H14 2015   5.675   0.997   9.434  3.2737 -2.0368 -0.9602
   28CHL1   C15 2016   5.481   0.938   9.339 -0.0420  0.7271  0.1644
   28CHL1  H15A 2017   5.421   0.846   9.352 -1.8047  1.7475 -0.5510
   28CHL1  H15B 2018   5.426   1.028   9.377 -1.0164  0.2946 -0.2049
   28CHL1   C16 2019   5.537   0.938   9.198  0.9737 -0.1039 -0.7949
   28CHL1  H16A 2020   5.456   0.891   9.138  0.0200  2.9530 -2.0254
   28CHL1  H16B 2021   5.562   1.037   9.154  1.9655 -0.0629 -0.1460
   28CHL1   C17 2022   5.679   0.860   9.195  0.2615 -0.5987 -0.2484
   28CHL1   H17 2023   5.758   0.936   9.175  0.8295 -0.4101  2.5412
   28CHL1   C13 2024   5.696   0.806   9.343  0.3716  0.4821  0.1357
   28CHL1   C18 2025   5.622   0.665   9.358  0.4941  0.4049  0.2285
   28CHL1  H18A 2026   5.687   0.594   9.302 -0.6921 -1.0504  0.6597
   28CHL1  H18B 2027   5.629   0.622   9.461  1.0958  1.3232  0.5802
   28CHL1  H18C 2028   5.520   0.664   9.314  1.5123 -0.1897 -2.2020
   28CHL1   C12 2029   5.834   0.815   9.399 -0.4659  0.2716  0.4023
   28CHL1  H12A 2030   5.905   0.746   9.348 -1.1237 -0.5638  0.5974
   28CHL1  H12B 2031   5.880   0.916   9.393 -1.5541  0.6281 -3.0178
   28CHL1   C11 2032   5.840   0.763   9.547 -0.2965  0.2921  0.4431
   28CHL1  H11A 2033   5.815   0.654   9.550 -2.1636  0.6696 -0.4085
   28CHL1  H11B 2034   5.948   0.780   9.565 -0.3101 -1.2080  2.0609
   28CHL1    C9 2035   5.737   0.848   9.635  0.5869  0.0795 -0.4780
   28CHL1    H9 2036   5.781   0.950   9.636  2.7278 -0.8348 -0.8133
   28CHL1   C10 2037   5.729   0.806   9.792  0.8506 -0.3388  0.5249
   28CHL1   C19 2038   5.682   0.661   9.795  0.3558  0.5500 -0.3603
   28CHL1  H19A 2039   5.752   0.601   9.733  0.6735  1.9559 -1.3976
   28CHL1  H19B 2040   5.688   0.623   9.899  2.8466  2.1391  0.1192
   28CHL1  H19C 2041   5.574   0.648   9.773  0.1814 -0.8386  1.2171
   28CHL1    C1 2042   5.864   0.835   9.867  0.2314  0.0584  0.5449
   28CHL1   H1A 2043   5.942   0.758   9.849  0.9348  1.2202 -1.6020
   28CHL1   H1B 2044   5.901   0.939   9.849 -0.9631  0.1580 -1.5498
   28CHL1    C2 2045   5.852   0.826  10.025 -0.8000  0.3601 -0.0748
   28CHL1   H2A 2046   5.957   0.849  10.053 -0.8772  1.7164 -0.8224
   28CHL1   H2B 2047   5.830   0.720  10.051  0.4085  0.3994  1.1575
   28CHL1   C20 2048   5.695   0.761   9.075 -0.4938  0.7699  0.1595
   28CHL1   H20 2049   5.626   0.675   9.089 -0.0077 -0.2635 -3.3733
   28CHL1   C21 2050   5.843   0.726   9.074 -0.4552  0.4345  0.0186
   28CHL1  H21A 2051   5.902   0.820   9.077 -2.1293  1.4501  1.1875
   28CHL1  H21B 2052   5.880   0.677   8.981  0.6269  1.8854 -0.3366
   28CHL1  H21C 2053   5.875   0.676   9.168 -1.3022  0.8183  0.5137
   28CHL1   C22 2054   5.654   0.823   8.938 -0.4189 -0.2195 -0.0554
   28CHL1  H22A 2055   5.645   0.747   8.857 -1.5881 -1.9898  1.6882
   28CHL1  H22B 2056   5.553   0.865   8.957  0.0390 -0.4425  3.0646
   28CHL1   C23 2057   5.750   0.931   8.887 -0.1165 -0.3848  0.3802
   28CHL1  H23A 2058   5.742   1.019   8.955  1.8848  1.5575 -1.8207
   28CHL1  H23B 2059   5.859   0.909   8.886 -0.2729 -1.1027 -0.7067
   28CHL1   C24 2060   5.724   0.976   8.746 -0.5495  0.7578 -0.3746
   28CHL1  H24A 2061   5.795   1.055   8.716  1.3533  0.3778  2.8488
   28CHL1  H24B 2062   5.729   0.882   8.688 -1.6921 -1.3686  2.7965
   28CHL1   C25 2063   5.583   1.047   8.735  0.5604  0.3670  0.3185
   28CHL1   H25 2064   5.503   0.971   8.742 -0.6945  1.6981  0.7970
   28CHL1   C26 2065   5.562   1.157   8.835 -0.6539  0.3042  0.3239
   28CHL1  H26A 2066   5.461   1.204   8.833 -1.6663 -1.7900  0.5844
   28CHL1  H26B 2067   5.577   1.112   8.936 -2.1365 -0.4273  0.2325
   28CHL1  H26C 2068   5.644   1.232   8.829  0.2447 -0.7977 -1.7549
   28CHL1   C27 2069   5.569   1.118   8.595  0.0197  0.3370  0.2006
   28CHL1  H27A 2070   5.470   1.166   8.581  0.6111  1.0945 -1.6403
   28CHL1  H27B 2071   5.644   1.199   8.578 -0.0805  0.2227 -0.7879
   28CHL1  H27C 2072   5.586   1.039   8.519 -0.6104  0.8308 -0.4668
   29CHL1    C3 2073   0.174   4.989   6.596  0.5487 -0.6990 -0.3950
   29CHL1    H3 2074   0.171   4.892   6.651  0.9816 -1.6705 -2.0437
   29CHL1    O3 2075   0.179   4.966   6.456 -0.1914 -0.0694  0.4540
   29CHL1   H3' 2076   0.269   4.935   6.448 -0.0367  0.2780  0.8456
   29CHL1    C4 2077   0.048   5.074   6.636  0.1124 -0.1277  0.4733
   29CHL1   H4A 2078   0.047   5.155   6.560  0.6577  0.2789  0.8903
   29CHL1   H4B 2079  -0.038   5.006   6.616  0.1772 -0.5302  1.5565
   29CHL1    C5 2080   0.049   5.116   6.782  0.3513 -0.0415 -0.5167
   29CHL1    C6 2081  -0.061   5.089   6.862 -0.0331 -0.3103 -0.1509
   29CHL1    H6 2082  -0.149   5.042   6.816  0.4863 -2.6078  1.1496
   29CHL1    C7 2083  -0.079   5.135   7.000 -0.7443  0.2783 -0.1235
   29CHL1   H7A 2084  -0.177   5.182   7.025 -1.1528 -0.6125 -0.0520
   29CHL1   H7B 2085  -0.085   5.042   7.061  1.0318  0.1026 -0.2082
   29CHL1    C8 2086   0.038   5.220   7.056 -0.2926 -0.5781 -0.1451
   29CHL1    H8 2087   0.004   5.322   7.026  1.6844  0.1641  0.0752
   29CHL1   C14 2088   0.044   5.216   7.204 -0.3072  0.6143 -0.3760
   29CHL1   H14 2089   0.077   5.114   7.234  1.5266  0.7737 -1.7278
   29CHL1   C15 2090  -0.082   5.232   7.285 -0.3128  0.4463 -0.2983
   29CHL1  H15A 2091  -0.148   5.308   7.238 -0.1024 -0.1406 -1.5693
   29CHL1  H15B 2092  -0.126   5.130   7.289  0.7908 -0.0350 -0.0182
   29CHL1   C16 2093  -0.030   5.283   7.424 -0.7794 -0.5041 -0.5157
   29CHL1  H16A 2094  -0.088   5.377   7.434  0.5427  0.5485 -2.4438
   29CHL1  H16B 2095  -0.054   5.222   7.514 -3.8151  1.9112  0.3609
   29CHL1   C17 2096   0.123   5.307   7.409 -0.3877  0.1618 -0.0861
   29CHL1   H17 2097   0.171   5.213   7.446 -1.4373  0.5581  2.3896
   29CHL1   C13 2098   0.151   5.313   7.260  0.2848 -0.6510 -0.4698
   29CHL1   C18 2099   0.118   5.461   7.216  0.1107  0.2376  0.5483
   29CHL1  H18A 2100   0.022   5.487   7.265 -0.1272 -1.8041  1.2128
   29CHL1  H18B 2101   0.206   5.516   7.258  0.0939  1.2485 -0.7244
   29CHL1  H18C 2102   0.110   5.461   7.106  1.7179  2.0923  0.3996
   29CHL1   C12 2103   0.289   5.261   7.209  0.2285  0.2131 -0.2505
   29CHL1  H12A 2104   0.376   5.319   7.247  1.4048 -1.6110 -0.1357
   29CHL1  H12B 2105   0.298   5.154   7.238 -0.4451  0.8070  2.2356
   29CHL1   C11 2106   0.299   5.256   7.054 -0.2860  0.0524 -0.3139
   29CHL1  H11A 2107   0.304   5.362   7.022  0.5850  0.1856  0.2509
   29CHL1  H11B 2108   0.393   5.206   7.022 -0.2783  0.7106 -1.3227
   29CHL1    C9 2109   0.176   5.184   6.996 -0.0428  0.2722  0.6760
   29CHL1    H9 2110   0.189   5.082   7.039 -1.5844 -1.4479 -2.7900
   29CHL1   C10 2111   0.176   5.175   6.838 -0.4916 -0.0179 -0.1839
   29CHL1   C19 2112   0.188   5.318   6.778 -0.3096  0.4215 -0.1675
   29CHL1  H19A 2113   0.133   5.324   6.682 -0.6909 -2.8006 -0.2118
   29CHL1  H19B 2114   0.130   5.381   6.848 -2.4494 -0.0707 -1.4378
   29CHL1  H19C 2115   0.287   5.368   6.773  1.0626 -2.2252 -0.6837
   29CHL1    C1 2116   0.297   5.085   6.791  0.0716  0.1161  0.2115
   29CHL1   H1A 2117   0.394   5.135   6.811  1.7376 -1.7842 -2.6870
   29CHL1   H1B 2118   0.298   4.992   6.850  0.4840  0.1453  0.2483
   29CHL1    C2 2119   0.303   5.047   6.642 -0.1142  0.1668  0.6211
   29CHL1   H2A 2120   0.385   4.971   6.639 -0.2631 -0.0740  2.3405
   29CHL1   H2B 2121   0.334   5.135   6.583 -1.8331  2.2470  2.7342
   29CHL1   C20 2122   0.168   5.420   7.510  0.0165 -0.1614 -0.1842
   29CHL1   H20 2123   0.145   5.520   7.467 -3.3108 -0.8405 -0.1255
   29CHL1   C21 2124   0.326   5.416   7.520  0.2560  0.3524 -0.6091
   29CHL1  H21A 2125   0.362   5.316   7.552  0.0392 -0.6858 -3.4461
   29CHL1  H21B 2126   0.356   5.486   7.600  3.2305  0.0894 -1.4261
   29CHL1  H21C 2127   0.376   5.447   7.425  2.3436 -1.6513 -0.2037
   29CHL1   C22 2128   0.108   5.420   7.651 -0.2548  0.4224 -0.6188
   29CHL1  H22A 2129   0.126   5.517   7.701  1.4014  0.0355 -0.4294
   29CHL1  H22B 2130  -0.003   5.417   7.651 -0.3083  0.3618  2.9972
   29CHL1   C23 2131   0.152   5.298   7.731  0.4921  0.3291 -0.1497
   29CHL1  H23A 2132   0.062   5.235   7.748  1.4720 -1.4914 -1.6180
   29CHL1  H23B 2133   0.218   5.229   7.676 -1.7093 -1.4822 -0.6023
   29CHL1   C24 2134   0.208   5.327   7.871 -0.6349 -0.2133  0.1762
   29CHL1  H24A 2135   0.298   5.392   7.858 -0.3010 -0.7527 -0.2743
   29CHL1  H24B 2136   0.129   5.378   7.929 -0.6932 -0.3015  0.1744
   29CHL1   C25 2137   0.264   5.207   7.944  0.0008 -0.0985 -0.3691
   29CHL1   H25 2138   0.347   5.182   7.874 -0.4541 -1.9144 -0.2735
   29CHL1   C26 2139   0.327   5.255   8.075 -0.1986  0.7429 -0.3190
   29CHL1  H26A 2140   0.252   5.303   8.142 -1.3175 -0.9081 -0.3778
   29CHL1  H26B 2141   0.374   5.174   8.134  0.9935  1.2263 -0.5821
   29CHL1  H26C 2142   0.416   5.320   8.059  0.6515 -0.5008 -0.6754
   29CHL1   C27 2143   0.173   5.086   7.954  0.0990  0.3821  0.2711
   29CHL1  H27A 2144   0.235   4.993   7.960 -0.4161 -0.0303 -0.6636
   29CHL1  H27B 2145   0.118   5.083   8.051 -1.4482  1.6020 -0.5556
   29CHL1  H27C 2146   0.109   5.071   7.865 -1.2654 -2.9299  1.7072
   30CHL1    C3 2147   5.322   3.896   7.389  0.4936 -0.0869 -0.0878
   30CHL1    H3 2148   5.393   3.812   7.409 -0.0523 -0.9922 -1.8135
   30CHL1    O3 2149   5.249   3.862   7.275 -0.4728 -0.4440 -0.2105
   30CHL1   H3' 2150   5.314   3.837   7.209 -0.6925 -0.9900 -0.2262
   30CHL1    C4 2151   5.222   3.894   7.506  0.1289  0.3192 -0.3264
   30CHL1   H4A 2152   5.152   3.978   7.485 -0.7345 -0.3603 -0.1761
   30CHL1   H4B 2153   5.159   3.803   7.513 -0.8866  1.0001 -0.3669
   30CHL1    C5 2154   5.281   3.919   7.634 -1.1231  1.0628 -0.0545
   30CHL1    C6 2155   5.285   3.829   7.737  0.2146  1.1087  0.6925
   30CHL1    H6 2156   5.228   3.737   7.717  0.5067  1.6399 -3.0989
   30CHL1    C7 2157   5.341   3.849   7.871 -0.1129 -0.2712  1.0193
   30CHL1   H7A 2158   5.262   3.831   7.947 -0.8145  1.4032  0.7011
   30CHL1   H7B 2159   5.424   3.783   7.903 -1.4689 -3.3085 -1.4877
   30CHL1    C8 2160   5.368   4.001   7.891 -0.3523  0.5391 -0.1793
   30CHL1    H8 2161   5.268   4.041   7.916 -0.4237  0.1133  0.2266
   30CHL1   C14 2162   5.454   4.005   8.015  0.2221 -0.6498 -0.4593
   30CHL1   H14 2163   5.550   3.950   8.005 -0.6155 -2.3567  0.6470
   30CHL1   C15 2164   5.396   3.943   8.148 -0.0059 -0.4170  0.8390
   30CHL1  H15A 2165   5.294   3.984   8.165 -0.1948 -0.4961 -0.0982
   30CHL1  H15B 2166   5.385   3.832   8.148 -2.0417 -0.2463 -1.5225
   30CHL1   C16 2167   5.490   3.995   8.255  0.3107  0.4169 -0.0289
   30CHL1  H16A 2168   5.425   4.017   8.342  0.0203 -0.6725  0.0345
   30CHL1  H16B 2169   5.566   3.921   8.290 -0.6727  0.6313  2.6412
   30CHL1   C17 2170   5.563   4.126   8.199 -0.1469  0.1222 -0.1500
   30CHL1   H17 2171   5.665   4.091   8.172 -0.6368 -0.7724 -0.8512
   30CHL1   C13 2172   5.496   4.149   8.064 -0.6682 -0.2659  0.0661
   30CHL1   C18 2173   5.375   4.242   8.089  0.0382  0.3223 -0.5971
   30CHL1  H18A 2174   5.300   4.242   8.007 -0.2057  0.6939 -0.3760
   30CHL1  H18B 2175   5.318   4.207   8.178  0.6021 -1.0295 -0.7513
   30CHL1  H18C 2176   5.410   4.345   8.113  0.4739 -0.7138  3.5289
   30CHL1   C12 2177   5.578   4.209   7.945 -0.3871 -0.3113 -1.0415
   30CHL1  H12A 2178   5.603   4.316   7.965 -2.7683  0.2198 -0.7217
   30CHL1  H12B 2179   5.667   4.143   7.937 -0.1182  0.0602 -1.1260
   30CHL1   C11 2180   5.502   4.199   7.811 -0.0394 -0.0278  0.1131
   30CHL1  H11A 2181   5.422   4.275   7.807  0.7385  0.9783  2.7052
   30CHL1  H11B 2182   5.575   4.225   7.731 -0.6442  1.6689  0.1015
   30CHL1    C9 2183   5.443   4.057   7.774 -0.1073  0.5902  0.4099
   30CHL1    H9 2184   5.533   3.995   7.761 -1.9915 -2.0326 -0.5063
   30CHL1   C10 2185   5.358   4.050   7.644 -0.4290  0.0996  0.4631
   30CHL1   C19 2186   5.261   4.168   7.648  0.9057 -0.0312  0.0683
   30CHL1  H19A 2187   5.310   4.266   7.634  3.6907 -1.5167 -1.0623
   30CHL1  H19B 2188   5.193   4.161   7.560 -1.2158  1.3153  1.5558
   30CHL1  H19C 2189   5.204   4.172   7.743 -0.6507 -0.0450 -0.8397
   30CHL1    C1 2190   5.454   4.065   7.516 -0.4163 -0.9884 -0.5316
   30CHL1   H1A 2191   5.486   4.172   7.512  1.1048 -1.3662  1.1809
   30CHL1   H1B 2192   5.549   4.008   7.526 -0.1247 -0.1804  1.6096
   30CHL1    C2 2193   5.391   4.035   7.377  0.2817 -0.1035 -0.2513
   30CHL1   H2A 2194   5.471   4.036   7.300 -0.4888  0.2677 -1.0578
   30CHL1   H2B 2195   5.313   4.111   7.354  2.7195  3.0826  1.5877
   30CHL1   C20 2196   5.595   4.242   8.300 -0.3614 -0.7787 -0.2527
   30CHL1   H20 2197   5.503   4.293   8.337  0.5637  0.2297  0.6756
   30CHL1   C21 2198   5.675   4.353   8.223  0.2654  0.0831 -0.0848
   30CHL1  H21A 2199   5.721   4.422   8.296  1.3487  0.3704 -1.0293
   30CHL1  H21B 2200   5.602   4.406   8.158 -0.4890 -2.2508 -1.2014
   30CHL1  H21C 2201   5.748   4.312   8.150  0.6552 -0.5502  0.6528
   30CHL1   C22 2202   5.672   4.196   8.427  0.3002  0.7351 -0.1240
   30CHL1  H22A 2203   5.620   4.102   8.456 -0.2987  1.0996  0.0034
   30CHL1  H22B 2204   5.776   4.190   8.390 -1.1963 -1.9032 -4.1402
   30CHL1   C23 2205   5.661   4.293   8.544  0.5481 -0.1694 -0.4152
   30CHL1  H23A 2206   5.684   4.398   8.517 -1.6698 -0.4491 -3.7302
   30CHL1  H23B 2207   5.552   4.307   8.560  0.4149  1.8472 -2.7791
   30CHL1   C24 2208   5.734   4.244   8.667  0.0738  0.1570  0.8723
   30CHL1  H24A 2209   5.685   4.151   8.703  0.5379 -0.0563  0.9523
   30CHL1  H24B 2210   5.841   4.230   8.644  0.9127  1.9225  3.4323
   30CHL1   C25 2211   5.714   4.326   8.788  0.2725  0.1724 -0.3152
   30CHL1   H25 2212   5.605   4.344   8.793  0.5399  1.8217 -0.0508
   30CHL1   C26 2213   5.763   4.251   8.910  0.4156  0.7690  0.2327
   30CHL1  H26A 2214   5.867   4.217   8.890 -0.7267 -1.4205 -2.3952
   30CHL1  H26B 2215   5.765   4.316   8.999  0.6384  0.0371  0.7740
   30CHL1  H26C 2216   5.696   4.170   8.947 -0.8692  1.7877  0.1812
   30CHL1   C27 2217   5.781   4.468   8.783 -0.1595  0.0141  0.7583
   30CHL1  H27A 2218   5.750   4.530   8.696  0.7449  1.8623  1.7135
   30CHL1  H27B 2219   5.787   4.516   8.883 -1.2392  0.0913  0.7811
   30CHL1  H27C 2220   5.886   4.439   8.758  0.2583  2.9768 -1.2708
   31CHL1    C3 2221   4.469   5.214   6.708  0.3065  0.6585 -0.5735
   31CHL1    H3 2222   4.359   5.215   6.726  0.3100 -1.0933 -0.3691
   31CHL1    O3 2223   4.500   5.205   6.568 -0.6178 -0.3467 -0.1985
   31CHL1   H3' 2224   4.525   5.295   6.549 -0.4781 -0.6515 -1.4815
   31CHL1    C4 2225   4.528   5.332   6.777 -0.2657  0.0543  0.4475
   31CHL1   H4A 2226   4.637   5.319   6.758 -0.9455 -3.0070 -1.7969
   31CHL1   H4B 2227   4.490   5.417   6.718  2.3357  0.8822 -0.0954
   31CHL1    C5 2228   4.501   5.336   6.928  0.0503  0.3044  0.4764
   31CHL1    C6 2229   4.436   5.436   6.996  0.4855 -0.0087  0.8945
   31CHL1    H6 2230   4.384   5.516   6.942  1.7380 -0.2521 -0.7006
   31CHL1    C7 2231   4.405   5.430   7.138  0.7213  0.0942  0.0199
   31CHL1   H7A 2232   4.410   5.536   7.171  2.1630  0.6904 -2.0454
   31CHL1   H7B 2233   4.297   5.406   7.153  0.8606 -0.3161  0.3643
   31CHL1    C8 2234   4.477   5.317   7.214  0.0963  0.2065 -0.3814
   31CHL1    H8 2235   4.583   5.347   7.232  0.6906 -1.5185 -0.8919
   31CHL1   C14 2236   4.411   5.300   7.355  0.1634 -0.3323 -0.5673
   31CHL1   H14 2237   4.311   5.257   7.330 -0.9907  1.2075  1.2837
   31CHL1   C15 2238   4.399   5.418   7.456  0.0326 -0.5511  0.2475
   31CHL1  H15A 2239   4.497   5.463   7.483 -0.0662  0.1265 -0.4856
   31CHL1  H15B 2240   4.340   5.504   7.417  0.9832 -0.1953 -0.4380
   31CHL1   C16 2241   4.338   5.348   7.580 -0.8285  0.5297  0.3887
   31CHL1  H16A 2242   4.371   5.403   7.671 -1.8799  0.7316  0.6516
   31CHL1  H16B 2243   4.228   5.362   7.571 -0.9627 -1.3458 -1.2073
   31CHL1   C17 2244   4.380   5.201   7.570  0.2288  0.4990  0.1624
   31CHL1   H17 2245   4.282   5.165   7.533  0.3802  0.4734 -0.2228
   31CHL1   C13 2246   4.479   5.194   7.444 -0.1710  0.0790  0.4415
   31CHL1   C18 2247   4.619   5.235   7.483  0.2610 -0.7970  0.7625
   31CHL1  H18A 2248   4.629   5.318   7.556 -0.0910  0.7042 -0.8782
   31CHL1  H18B 2249   4.661   5.153   7.546 -0.5047 -0.9696  1.0537
   31CHL1  H18C 2250   4.686   5.262   7.398  0.0176 -0.1735  0.7648
   31CHL1   C12 2251   4.485   5.063   7.364 -0.2246 -0.1525 -0.8056
   31CHL1  H12A 2252   4.545   4.990   7.421 -0.0747  1.9883  1.9012
   31CHL1  H12B 2253   4.382   5.024   7.350 -1.1200  2.3474 -1.6258
   31CHL1   C11 2254   4.555   5.081   7.225 -1.1470 -0.3211 -0.5608
   31CHL1  H11A 2255   4.662   5.108   7.238 -0.9362 -1.7541  0.9450
   31CHL1  H11B 2256   4.550   4.980   7.179 -0.8606 -0.6876  0.1912
   31CHL1    C9 2257   4.485   5.189   7.141 -0.1348 -0.2513  0.2471
   31CHL1    H9 2258   4.380   5.153   7.128 -1.1203  3.2773 -2.4103
   31CHL1   C10 2259   4.543   5.202   6.997 -0.6839  0.2029 -0.2556
   31CHL1   C19 2260   4.703   5.200   7.001  0.1111  0.1189  0.4991
   31CHL1  H19A 2261   4.755   5.265   7.075  0.9597 -1.2393  1.1246
   31CHL1  H19B 2262   4.723   5.097   7.038 -1.7812 -0.1155  0.9250
   31CHL1  H19C 2263   4.744   5.219   6.900 -0.1384  0.3541  0.4430
   31CHL1    C1 2264   4.483   5.088   6.915 -0.0831  0.5535 -0.0769
   31CHL1   H1A 2265   4.529   5.003   6.969  1.3571  1.9480  0.9815
   31CHL1   H1B 2266   4.373   5.100   6.916 -0.0868  0.9427 -2.8873
   31CHL1    C2 2267   4.527   5.090   6.773  0.1366  0.3808 -0.2523
   31CHL1   H2A 2268   4.489   4.993   6.734  0.9122 -1.0546  2.4465
   31CHL1   H2B 2269   4.637   5.098   6.766  0.0760  0.7926 -0.7537
   31CHL1   C20 2270   4.422   5.144   7.707  0.0644  0.7552  0.5724
   31CHL1   H20 2271   4.513   5.200   7.736 -0.0626  1.4038 -0.2752
   31CHL1   C21 2272   4.466   4.999   7.697 -0.0088  0.2039 -0.0553
   31CHL1  H21A 2273   4.570   5.000   7.657 -0.6995  2.1635 -1.9149
   31CHL1  H21B 2274   4.404   4.933   7.633  2.0572 -1.2747 -0.6011
   31CHL1  H21C 2275   4.474   4.939   7.790  0.8839 -1.6334 -1.2864
   31CHL1   C22 2276   4.321   5.162   7.820 -0.7422  0.5053  0.1869
   31CHL1  H22A 2277   4.309   5.270   7.843 -6.2702 -0.2350  1.5200
   31CHL1  H22B 2278   4.220   5.123   7.796 -1.5990  1.9164  1.4742
   31CHL1   C23 2279   4.361   5.107   7.965 -0.4463  0.1548 -0.1141
   31CHL1  H23A 2280   4.370   4.997   7.961 -0.8973  0.1413 -0.9514
   31CHL1  H23B 2281   4.461   5.145   7.993  1.3602 -4.9049  0.7580
   31CHL1   C24 2282   4.255   5.151   8.064  0.0447  0.7499 -0.0462
   31CHL1  H24A 2283   4.267   5.262   8.067 -0.1849  0.7475  1.3138
   31CHL1  H24B 2284   4.151   5.125   8.036 -0.0009 -0.6759  1.3358
   31CHL1   C25 2285   4.293   5.119   8.209  0.2394  0.4760  0.2796
   31CHL1   H25 2286   4.325   5.015   8.189  1.2548  0.6240  1.0404
   31CHL1   C26 2287   4.413   5.206   8.253  0.1040  0.2879 -0.1324
   31CHL1  H26A 2288   4.397   5.315   8.263  1.6522  0.6980 -1.7185
   31CHL1  H26B 2289   4.454   5.156   8.344 -1.1906 -0.2528  0.1608
   31CHL1  H26C 2290   4.493   5.203   8.176 -1.4190  0.5815 -1.7568
   31CHL1   C27 2291   4.188   5.133   8.319  0.0638  0.4145  0.3149
   31CHL1  H27A 2292   4.223   5.080   8.410  1.2947 -0.5933 -0.7342
   31CHL1  H27B 2293   4.096   5.076   8.292  1.2773 -1.8372  0.8342
   31CHL1  H27C 2294   4.156   5.239   8.330 -0.4636  0.3399 -0.4612
   32CHL1    C3 2295   5.677   4.131   6.964 -0.1207 -0.0047  0.1445
   32CHL1    H3 2296   5.585   4.094   7.014  0.2050 -2.2700 -0.8431
   32CHL1    O3 2297   5.667   4.120   6.824 -0.2002 -0.3148  0.4426
   32CHL1   H3' 2298   5.662   4.025   6.810 -0.3582  0.0643 -2.2725
   32CHL1    C4 2299   5.697   4.279   7.014 -0.1397  0.3686  0.5515
   32CHL1   H4A 2300   5.776   4.330   6.954 -1.1003  0.8765 -0.3178
   32CHL1   H4B 2301   5.601   4.331   6.993 -1.2808 -1.4938  1.0931
   32CHL1    C5 2302   5.737   4.303   7.160 -0.4917  0.4423  0.8644
   32CHL1    C6 2303   5.663   4.381   7.238  0.4041 -0.8349  0.3769
   32CHL1    H6 2304   5.569   4.425   7.202  1.0540 -0.2996 -0.6918
   32CHL1    C7 2305   5.687   4.391   7.387  0.4882 -0.2935 -1.1680
   32CHL1   H7A 2306   5.685   4.500   7.412  0.8260 -0.2679 -1.2504
   32CHL1   H7B 2307   5.598   4.340   7.429 -0.8775  3.0681  0.1676
   32CHL1    C8 2308   5.820   4.329   7.439 -0.3517 -0.3583 -0.0979
   32CHL1    H8 2309   5.896   4.407   7.419 -2.0138  1.9730  2.2992
   32CHL1   C14 2310   5.820   4.311   7.591  0.2498 -0.0630 -0.4243
   32CHL1   H14 2311   5.737   4.240   7.608  0.3468  0.1867  1.1785
   32CHL1   C15 2312   5.785   4.435   7.676  0.5585  0.3452  0.5278
   32CHL1  H15A 2313   5.823   4.525   7.622  1.7466  0.4571  1.5399
   32CHL1  H15B 2314   5.679   4.448   7.707  0.5330  0.4286  0.4102
   32CHL1   C16 2315   5.870   4.424   7.806 -0.4445 -0.3223  0.3628
   32CHL1  H16A 2316   5.954   4.497   7.807  1.6615 -2.6550 -0.6652
   32CHL1  H16B 2317   5.794   4.442   7.885 -0.8475 -2.0125  0.3903
   32CHL1   C17 2318   5.936   4.290   7.801 -0.4254  0.3933  0.1463
   32CHL1   H17 2319   5.858   4.215   7.828  1.2328 -0.8396  1.6202
   32CHL1   C13 2320   5.957   4.263   7.650 -0.1985  0.5969 -0.2791
   32CHL1   C18 2321   6.079   4.340   7.590 -0.3805  0.0108 -0.3196
   32CHL1  H18A 2322   6.168   4.288   7.630 -0.8381 -3.0749 -3.1044
   32CHL1  H18B 2323   6.087   4.340   7.480 -1.2815 -0.7531 -0.3937
   32CHL1  H18C 2324   6.088   4.443   7.632  0.4523 -0.4683  0.7042
   32CHL1   C12 2325   5.963   4.119   7.596  0.3751 -0.5730  0.3077
   32CHL1  H12A 2326   6.044   4.054   7.634 -0.1083 -0.8632  0.8522
   32CHL1  H12B 2327   5.870   4.072   7.634 -1.2249  0.7400 -1.9028
   32CHL1   C11 2328   5.954   4.117   7.442  0.5268  0.9578  0.1050
   32CHL1  H11A 2329   6.055   4.155   7.417  1.1664 -1.6629 -1.4796
   32CHL1  H11B 2330   5.955   4.013   7.403 -2.6388  1.5027 -1.5354
   32CHL1    C9 2331   5.835   4.189   7.382 -0.4140 -0.1805  0.1949
   32CHL1    H9 2332   5.742   4.136   7.411 -1.0781  0.6910 -0.3075
   32CHL1   C10 2333   5.841   4.206   7.221  0.2102 -0.1646  0.1607
   32CHL1   C19 2334   5.984   4.248   7.194  0.1759 -0.2208 -0.5801
   32CHL1  H19A 2335   5.998   4.258   7.084 -2.2757  1.2369 -0.8017
   32CHL1  H19B 2336   6.008   4.340   7.251  2.0799 -1.2264  0.2818
   32CHL1  H19C 2337   6.060   4.173   7.223 -2.1537 -1.4925  2.5326
   32CHL1    C1 2338   5.818   4.061   7.168  0.0804  0.0231 -0.5002
   32CHL1   H1A 2339   5.909   4.000   7.185 -0.5342 -0.5552  0.6978
   32CHL1   H1B 2340   5.737   4.007   7.220 -0.4452  1.5373  0.2677
   32CHL1    C2 2341   5.802   4.054   7.017 -0.0442  0.2862 -1.0196
   32CHL1   H2A 2342   5.799   3.950   6.975  1.5877  0.6689 -2.1489
   32CHL1   H2B 2343   5.891   4.102   6.972 -1.5224  2.2484 -1.8915
   32CHL1   C20 2344   6.050   4.271   7.904  0.5311  1.1787  0.3694
   32CHL1   H20 2345   6.146   4.308   7.862  0.1410  2.6865  0.7998
   32CHL1   C21 2346   6.061   4.118   7.928  0.4403 -0.3537 -0.2645
   32CHL1  H21A 2347   6.089   4.069   7.832  3.1421 -0.2684  0.4461
   32CHL1  H21B 2348   5.969   4.070   7.966 -0.7363  0.3831 -2.1160
   32CHL1  H21C 2349   6.140   4.098   8.003 -0.6428 -1.1315  0.6854
   32CHL1   C22 2350   6.032   4.353   8.029  0.0252  0.3661  0.0034
   32CHL1  H22A 2351   6.049   4.461   8.013  1.2765  0.2683  0.5410
   32CHL1  H22B 2352   5.926   4.341   8.057 -0.1957  2.0604 -0.0897
   32CHL1   C23 2353   6.123   4.316   8.143  0.0869  0.1106 -0.8282
   32CHL1  H23A 2354   6.093   4.216   8.184 -0.1489 -0.4273 -2.2796
   32CHL1  H23B 2355   6.230   4.307   8.114 -0.0881 -3.1423 -0.7073
   32CHL1   C24 2356   6.121   4.417   8.263 -0.5857 -0.3870  0.2233
   32CHL1  H24A 2357   6.120   4.525   8.236  0.3415  0.1945  2.4178
   32CHL1  H24B 2358   6.017   4.402   8.297 -1.0544  1.5687 -0.2871
   32CHL1   C25 2359   6.209   4.383   8.383  0.2878  0.2682  0.2457
   32CHL1   H25 2360   6.180   4.279   8.407 -0.9095  0.5314 -0.0376
   32CHL1   C26 2361   6.364   4.398   8.365  0.2831 -0.1152  0.3351
   32CHL1  H26A 2362   6.383   4.370   8.259 -2.7639 -0.5323 -0.1570
   32CHL1  H26B 2363   6.397   4.500   8.393  0.6192 -0.7519  2.3286
   32CHL1  H26C 2364   6.420   4.328   8.431 -0.9076 -1.6808 -0.2735
   32CHL1   C27 2365   6.175   4.468   8.505 -0.4138 -0.1616 -0.2921
   32CHL1  H27A 2366   6.075   4.438   8.542 -1.1641  2.6463  0.1115
   32CHL1  H27B 2367   6.245   4.474   8.592 -1.8420  2.2456  0.7597
   32CHL1  H27C 2368   6.159   4.573   8.473  0.8037 -0.1988 -1.0681
   33CHL1    C3 2369   6.657   4.258   6.617  0.1258  0.4054  0.3235
   33CHL1    H3 2370   6.761   4.220   6.630  0.0255 -0.2151 -0.6016
   33CHL1    O3 2371   6.621   4.281   6.481  0.1374 -0.4262  0.8677
   33CHL1   H3' 2372   6.531   4.314   6.483  1.1024  2.3378  1.4825
   33CHL1    C4 2373   6.557   4.158   6.667 -0.5511  0.3420  0.0907
   33CHL1   H4A 2374   6.456   4.205   6.669 -0.6604  0.2454 -2.4007
   33CHL1   H4B 2375   6.553   4.068   6.603  0.6725  0.3111  0.0438
   33CHL1    C5 2376   6.578   4.127   6.819 -0.7120 -0.2160 -0.5141
   33CHL1    C6 2377   6.603   4.007   6.863  0.1051  0.6521 -1.2906
   33CHL1    H6 2378   6.582   3.919   6.800 -1.6138  0.0049  0.1252
   33CHL1    C7 2379   6.615   3.967   7.006  0.6789  0.2393 -0.4525
   33CHL1   H7A 2380   6.562   3.877   7.042 -1.7286  1.0503 -1.7978
   33CHL1   H7B 2381   6.719   3.940   7.033  0.7072  1.4622  0.6955
   33CHL1    C8 2382   6.588   4.083   7.107 -0.4715  1.0909  0.2069
   33CHL1    H8 2383   6.478   4.074   7.109 -0.3235 -1.5579 -1.2954
   33CHL1   C14 2384   6.642   4.062   7.249  0.1652 -0.0566  0.3508
   33CHL1   H14 2385   6.749   4.090   7.246 -0.0266  0.5844 -0.6751
   33CHL1   C15 2386   6.627   3.926   7.306  0.4822  0.9169 -0.0430
   33CHL1  H15A 2387   6.522   3.894   7.287  1.1175 -2.1230  1.2146
   33CHL1  H15B 2388   6.693   3.847   7.265 -0.9367  0.1442 -0.8890
   33CHL1   C16 2389   6.650   3.950   7.457  0.1272  0.2113 -0.2948
   33CHL1  H16A 2390   6.577   3.901   7.526  0.2110 -0.3491 -0.5970
   33CHL1  H16B 2391   6.750   3.908   7.478  0.5884  1.4997  0.0852
   33CHL1   C17 2392   6.663   4.106   7.482  0.6746 -0.2754 -0.0491
   33CHL1   H17 2393   6.771   4.132   7.481  0.5999  0.0404 -0.3577
   33CHL1   C13 2394   6.596   4.174   7.354 -0.5974  0.0274  0.0750
   33CHL1   C18 2395   6.442   4.177   7.366  0.8042  0.3171  0.5362
   33CHL1  H18A 2396   6.393   4.083   7.400  1.2780 -0.7589 -1.7025
   33CHL1  H18B 2397   6.409   4.257   7.436 -3.7296 -0.9806  0.0997
   33CHL1  H18C 2398   6.398   4.189   7.265  1.5154 -1.8676 -0.0569
   33CHL1   C12 2399   6.655   4.308   7.306  0.3634  0.7823  0.2537
   33CHL1  H12A 2400   6.624   4.397   7.365 -2.3052  0.8893 -1.2351
   33CHL1  H12B 2401   6.766   4.302   7.303  0.2895 -0.5227  0.1043
   33CHL1   C11 2402   6.610   4.335   7.154  0.2978 -0.8441 -0.9299
   33CHL1  H11A 2403   6.504   4.365   7.167  1.3597  1.6798  2.5967
   33CHL1  H11B 2404   6.682   4.415   7.125  1.6978 -1.1165  1.6457
   33CHL1    C9 2405   6.628   4.217   7.051 -0.5427 -0.1040 -0.4989
   33CHL1    H9 2406   6.736   4.216   7.026  0.0708  2.5985  1.7889
   33CHL1   C10 2407   6.571   4.253   6.908  0.3279 -0.8179  0.4652
   33CHL1   C19 2408   6.422   4.296   6.925  0.2567 -0.0164 -0.0231
   33CHL1  H19A 2409   6.416   4.386   6.990 -1.6701 -0.6032  0.6344
   33CHL1  H19B 2410   6.373   4.317   6.828  1.7702  0.0804 -0.7807
   33CHL1  H19C 2411   6.365   4.217   6.979  1.8721 -1.7124 -0.7377
   33CHL1    C1 2412   6.654   4.373   6.846  0.3368 -0.2141  1.1736
   33CHL1   H1A 2413   6.632   4.470   6.896  0.4047 -0.5611  1.8929
   33CHL1   H1B 2414   6.760   4.353   6.873  1.2818 -0.8193 -2.7099
   33CHL1    C2 2415   6.639   4.392   6.690 -0.6180 -0.3123 -0.5676
   33CHL1   H2A 2416   6.704   4.473   6.651  1.5661 -2.4141 -1.3932
   33CHL1   H2B 2417   6.536   4.433   6.680 -1.0494 -0.7212  1.7748
   33CHL1   C20 2418   6.616   4.156   7.620 -0.0507 -0.7521  0.6386
   33CHL1   H20 2419   6.506   4.143   7.627 -0.2067  0.9099  1.5965
   33CHL1   C21 2420   6.640   4.312   7.628 -0.2137  0.3730 -0.3794
   33CHL1  H21A 2421   6.745   4.343   7.614  0.0913  0.4187  1.8005
   33CHL1  H21B 2422   6.607   4.343   7.729 -0.9543 -2.5815  0.3482
   33CHL1  H21C 2423   6.572   4.356   7.552 -2.1347  0.2187  1.1875
   33CHL1   C22 2424   6.691   4.079   7.730 -0.3449  0.2339 -0.3442
   33CHL1  H22A 2425   6.678   3.969   7.715 -0.8205 -0.0373  1.8522
   33CHL1  H22B 2426   6.799   4.093   7.711  0.4150 -1.0565  2.7517
   33CHL1   C23 2427   6.662   4.112   7.877 -0.2401  0.1216 -0.6891
   33CHL1  H23A 2428   6.680   4.220   7.894  1.5650 -0.6818  3.1239
   33CHL1  H23B 2429   6.553   4.096   7.893  0.0663  0.0533  1.6053
   33CHL1   C24 2430   6.747   4.026   7.979 -0.2226 -0.0199  0.3252
   33CHL1  H24A 2431   6.706   3.923   7.978 -0.7630  0.1912 -1.4036
   33CHL1  H24B 2432   6.851   4.016   7.944 -0.8616 -0.6042 -1.4498
   33CHL1   C25 2433   6.721   4.077   8.123  0.3423 -0.0732  0.1204
   33CHL1   H25 2434   6.610   4.086   8.127  0.4591  1.1709  0.6883
   33CHL1   C26 2435   6.770   3.974   8.217 -0.7999  0.2092  0.3772
   33CHL1  H26A 2436   6.733   3.875   8.183 -0.8174  0.3948 -0.1564
   33CHL1  H26B 2437   6.881   3.969   8.226 -0.8390 -0.6709  0.4025
   33CHL1  H26C 2438   6.748   3.986   8.325  3.4102  2.3586  1.1417
   33CHL1   C27 2439   6.785   4.205   8.164  0.1734 -0.7712 -0.0003
   33CHL1  H27A 2440   6.752   4.228   8.268  0.2949 -0.9617  0.0806
   33CHL1  H27B 2441   6.894   4.220   8.149  0.0009 -0.2036 -0.6535
   33CHL1  H27C 2442   6.747   4.283   8.095  1.3223 -1.8398 -1.8807
   34CHL1    C3 2443   1.130   2.884   7.118  0.5246 -0.4072 -0.6824
   34CHL1    H3 2444   1.240   2.871   7.122  0.1717 -2.8442  2.4083
   34CHL1    O3 2445   1.090   2.908   6.986 -0.0019 -0.6316 -0.2140
   34CHL1   H3' 2446   1.125   2.830   6.942 -1.1479 -0.6455 -1.1263
   34CHL1    C4 2447   1.064   2.757   7.167  0.4170 -0.3861  0.7982
   34CHL1   H4A 2448   0.953   2.768   7.160  0.0950 -1.4445  3.6393
   34CHL1   H4B 2449   1.076   2.667   7.105  1.5861  3.2016 -4.5093
   34CHL1    C5 2450   1.096   2.733   7.313  0.5352 -0.2807  0.7664
   34CHL1    C6 2451   1.161   2.621   7.357  0.2519  0.7923 -0.1662
   34CHL1    H6 2452   1.194   2.549   7.281  1.9385  1.5552 -0.1946
   34CHL1    C7 2453   1.188   2.596   7.504 -0.5960  0.1969  0.1261
   34CHL1   H7A 2454   1.164   2.491   7.531  1.8155 -0.1515  1.0486
   34CHL1   H7B 2455   1.297   2.608   7.524 -0.8700  1.2866  1.0199
   34CHL1    C8 2456   1.109   2.688   7.606  0.1324 -0.1994 -0.1666
   34CHL1    H8 2457   1.007   2.645   7.616 -0.0798  0.6106  1.1550
   34CHL1   C14 2458   1.177   2.687   7.744 -0.1209  0.6876 -0.0159
   34CHL1   H14 2459   1.276   2.729   7.715  0.5264 -1.2458 -0.6676
   34CHL1   C15 2460   1.210   2.553   7.812  0.0607  0.2090  0.3809
   34CHL1  H15A 2461   1.118   2.491   7.819  0.8859 -0.8808  1.9092
   34CHL1  H15B 2462   1.292   2.489   7.774  0.4939  1.3813 -0.6847
   34CHL1   C16 2463   1.251   2.592   7.952 -0.1414 -0.3513  0.5324
   34CHL1  H16A 2464   1.191   2.533   8.025 -0.6724 -0.5665 -0.0714
   34CHL1  H16B 2465   1.355   2.572   7.986  1.3612  4.1583 -1.0173
   34CHL1   C17 2466   1.229   2.750   7.962 -0.4959 -0.2352  0.0080
   34CHL1   H17 2467   1.330   2.791   7.939  0.6431 -3.4389 -0.9369
   34CHL1   C13 2468   1.129   2.778   7.853 -0.4293 -0.0178 -0.3072
   34CHL1   C18 2469   0.985   2.727   7.887  0.7550  0.1680 -0.0783
   34CHL1  H18A 2470   0.932   2.800   7.953 -1.3425 -0.4970 -0.9851
   34CHL1  H18B 2471   0.932   2.704   7.792 -1.5597 -1.1287  1.4767
   34CHL1  H18C 2472   0.992   2.632   7.944  0.7307 -0.1374 -0.5845
   34CHL1   C12 2473   1.121   2.918   7.795 -0.2435  0.3531  0.6674
   34CHL1  H12A 2474   1.067   2.993   7.858  0.8853  1.9429 -0.2270
   34CHL1  H12B 2475   1.224   2.957   7.782  0.2246 -0.4955  1.8014
   34CHL1   C11 2476   1.040   2.923   7.657  0.5884  0.4979  0.2773
   34CHL1  H11A 2477   0.938   2.879   7.666  1.3261 -1.7129 -1.6224
   34CHL1  H11B 2478   1.035   3.030   7.628 -0.9976  0.6000  0.8401
   34CHL1    C9 2479   1.108   2.829   7.554  0.2832 -1.1037  0.1165
   34CHL1    H9 2480   1.212   2.867   7.540 -0.2407 -0.0748 -1.0595
   34CHL1   C10 2481   1.054   2.850   7.405 -0.1608 -0.5362  0.1062
   34CHL1   C19 2482   0.900   2.850   7.402 -0.1504 -0.3116  0.2251
   34CHL1  H19A 2483   0.864   2.757   7.453 -3.1335  0.8544  0.3399
   34CHL1  H19B 2484   0.856   2.936   7.457  2.0254  1.6699 -1.0770
   34CHL1  H19C 2485   0.859   2.848   7.299 -1.4275 -0.4376  0.7182
   34CHL1    C1 2486   1.119   2.985   7.341 -0.0421  0.4396 -0.2476
   34CHL1   H1A 2487   1.095   3.078   7.396 -0.5953  0.9809 -1.4009
   34CHL1   H1B 2488   1.229   2.972   7.350 -0.0555  0.6988  0.3293
   34CHL1    C2 2489   1.076   3.002   7.195 -0.1715  0.7159 -0.8168
   34CHL1   H2A 2490   1.120   3.100   7.168 -0.5961  0.6853 -1.6481
   34CHL1   H2B 2491   0.968   3.025   7.200 -0.7294 -1.3851 -2.3559
   34CHL1   C20 2492   1.190   2.789   8.107 -0.7083  0.7457  0.7060
   34CHL1   H20 2493   1.082   2.771   8.127 -1.3296  1.4466 -1.8507
   34CHL1   C21 2494   1.199   2.942   8.119 -0.2889  0.2252 -0.2699
   34CHL1  H21A 2495   1.113   2.978   8.059 -0.1898 -0.3060 -0.7275
   34CHL1  H21B 2496   1.297   2.983   8.084 -0.4286  2.5258  1.9018
   34CHL1  H21C 2497   1.177   2.982   8.220 -0.7043 -3.5852  1.2141
   34CHL1   C22 2498   1.281   2.716   8.215  0.5107 -0.3141 -0.5525
   34CHL1  H22A 2499   1.273   2.606   8.210 -1.0800 -0.1948 -0.7156
   34CHL1  H22B 2500   1.386   2.747   8.194 -0.4568  1.2746 -3.3270
   34CHL1   C23 2501   1.242   2.750   8.352 -0.0642  0.9335 -0.0403
   34CHL1  H23A 2502   1.256   2.857   8.378  0.3618 -0.0975  4.2075
   34CHL1  H23B 2503   1.134   2.726   8.360 -0.4934  3.0255  0.6474
   34CHL1   C24 2504   1.325   2.675   8.467 -0.0358 -0.5367  0.3566
   34CHL1  H24A 2505   1.333   2.566   8.448 -0.6922 -0.3776 -0.9107
   34CHL1  H24B 2506   1.430   2.710   8.457  0.8380 -3.4645 -1.1956
   34CHL1   C25 2507   1.272   2.710   8.604 -0.7905  0.1491 -0.0894
   34CHL1   H25 2508   1.162   2.725   8.602 -0.9537 -0.5600  2.5844
   34CHL1   C26 2509   1.301   2.598   8.704  0.2292 -0.0898  0.2894
   34CHL1  H26A 2510   1.274   2.625   8.809  2.4797 -1.0646  1.1421
   34CHL1  H26B 2511   1.236   2.513   8.674 -0.7507  0.4354  0.8964
   34CHL1  H26C 2512   1.407   2.571   8.686 -0.4842 -1.3402 -2.3656
   34CHL1   C27 2513   1.328   2.846   8.651 -0.1592  0.0786  0.5089
   34CHL1  H27A 2514   1.274   2.929   8.602 -0.5140 -0.4745 -0.0548
   34CHL1  H27B 2515   1.315   2.864   8.760  1.4586 -1.3149  0.9543
   34CHL1  H27C 2516   1.435   2.839   8.623 -0.4867 -1.2702 -0.4887
   35CHL1    C3 2517   3.998   3.793   7.386 -0.5953  0.1894 -0.0974
   35CHL1    H3 2518   3.904   3.753   7.430 -0.3122  0.1488  0.4703
   35CHL1    O3 2519   3.963   3.854   7.261  0.6188 -0.3206  0.0294
   35CHL1   H3' 2520   4.042   3.864   7.208  0.2426  3.3349  0.0207
   35CHL1    C4 2521   4.062   3.894   7.480  0.0144 -1.0253  0.2624
   35CHL1   H4A 2522   4.149   3.942   7.430  1.2059 -0.7877  2.4836
   35CHL1   H4B 2523   3.987   3.973   7.500  0.7475  0.5861 -2.9860
   35CHL1    C5 2524   4.104   3.824   7.611 -0.1029 -0.1082 -0.1170
   35CHL1    C6 2525   4.059   3.874   7.723 -0.0186 -0.5395  0.2595
   35CHL1    H6 2526   3.994   3.963   7.726 -0.0436 -0.4682 -1.9604
   35CHL1    C7 2527   4.092   3.822   7.863  0.0626 -0.3346  1.1474
   35CHL1   H7A 2528   4.101   3.906   7.935  0.6370  0.7309 -0.1568
   35CHL1   H7B 2529   4.010   3.764   7.911 -0.5038 -0.6305 -0.1718
   35CHL1    C8 2530   4.204   3.714   7.856 -0.3965 -0.5391  0.0950
   35CHL1    H8 2531   4.299   3.772   7.858 -0.2056 -0.8032 -1.0121
   35CHL1   C14 2532   4.202   3.626   7.977  0.1467 -0.5687 -0.3472
   35CHL1   H14 2533   4.115   3.558   7.964 -0.9265  0.5940  0.6731
   35CHL1   C15 2534   4.181   3.693   8.119  0.2690 -0.3076  0.9556
   35CHL1  H15A 2535   4.226   3.794   8.125  0.2559 -0.1134 -1.5896
   35CHL1  H15B 2536   4.070   3.701   8.128 -0.0928 -0.0855 -2.8136
   35CHL1   C16 2537   4.249   3.593   8.217  0.6083 -0.4357 -0.0523
   35CHL1  H16A 2538   4.320   3.656   8.274  1.0409 -0.3302 -0.7028
   35CHL1  H16B 2539   4.179   3.549   8.291 -0.9785 -1.3488 -2.0400
   35CHL1   C17 2540   4.307   3.475   8.131 -0.2512  0.2095  0.5384
   35CHL1   H17 2541   4.226   3.402   8.107 -0.7715  0.8721  0.2584
   35CHL1   C13 2542   4.328   3.540   7.991 -0.5433  1.0357  0.0388
   35CHL1   C18 2543   4.461   3.619   7.996  0.2981  0.0435 -0.4215
   35CHL1  H18A 2544   4.464   3.692   7.912  1.4940  1.2625  0.6655
   35CHL1  H18B 2545   4.472   3.673   8.092  0.9952  1.4506 -1.2719
   35CHL1  H18C 2546   4.545   3.549   7.975  0.7983 -0.0101  1.7146
   35CHL1   C12 2547   4.330   3.444   7.865  0.0458 -0.6472  0.1180
   35CHL1  H12A 2548   4.420   3.379   7.868 -0.4212 -1.4107 -1.8912
   35CHL1  H12B 2549   4.237   3.383   7.873 -0.3771 -0.0058  0.1102
   35CHL1   C11 2550   4.329   3.526   7.734 -0.3307 -0.1561 -0.6412
   35CHL1  H11A 2551   4.430   3.573   7.728 -1.0534  1.4131 -0.6463
   35CHL1  H11B 2552   4.308   3.472   7.639 -1.2580 -0.1742 -0.4268
   35CHL1    C9 2553   4.203   3.628   7.732  0.5872  0.2713 -0.2618
   35CHL1    H9 2554   4.120   3.554   7.741 -1.3337  2.2050 -1.3749
   35CHL1   C10 2555   4.191   3.697   7.594 -0.3640 -0.4386 -0.7481
   35CHL1   C19 2556   4.335   3.744   7.565  0.6781 -0.0486 -0.3241
   35CHL1  H19A 2557   4.386   3.657   7.519 -1.2125 -1.2283 -0.2547
   35CHL1  H19B 2558   4.323   3.818   7.482  1.0447  1.0335  0.5736
   35CHL1  H19C 2559   4.383   3.793   7.653 -1.0799  0.9472  0.1192
   35CHL1    C1 2560   4.142   3.603   7.479  0.1379 -0.2992 -0.8081
   35CHL1   H1A 2561   4.218   3.528   7.450  0.9744  0.5450 -0.8301
   35CHL1   H1B 2562   4.057   3.543   7.518  0.1204  2.2873  3.4621
   35CHL1    C2 2563   4.096   3.682   7.354  0.2521 -0.4911 -0.1751
   35CHL1   H2A 2564   4.036   3.627   7.279 -1.9617  1.7620 -0.0926
   35CHL1   H2B 2565   4.191   3.725   7.315  0.7023 -0.0349  1.3955
   35CHL1   C20 2566   4.429   3.400   8.195  0.8707  0.0273 -0.8141
   35CHL1   H20 2567   4.524   3.456   8.179  2.0089 -1.8198 -0.7707
   35CHL1   C21 2568   4.439   3.260   8.124  0.2757 -0.0831 -0.3548
   35CHL1  H21A 2569   4.490   3.173   8.171  0.6466  0.1861 -0.2663
   35CHL1  H21B 2570   4.490   3.277   8.027 -0.8268  0.9914 -0.7520
   35CHL1  H21C 2571   4.342   3.222   8.085  1.1316 -1.1138 -1.5301
   35CHL1   C22 2572   4.424   3.385   8.343  0.3773  0.1247 -0.0791
   35CHL1  H22A 2573   4.512   3.338   8.392  0.9530  0.4774 -0.7721
   35CHL1  H22B 2574   4.421   3.489   8.383 -1.8240 -0.2670  0.8439
   35CHL1   C23 2575   4.296   3.316   8.387 -0.0689  0.0133  0.1921
   35CHL1  H23A 2576   4.212   3.344   8.320 -0.2388 -4.7441 -1.7650
   35CHL1  H23B 2577   4.314   3.207   8.372 -0.5879  0.1507 -1.5235
   35CHL1   C24 2578   4.263   3.346   8.533  0.7877 -0.2412  0.3546
   35CHL1  H24A 2579   4.362   3.342   8.584  1.6127 -2.5060 -1.3500
   35CHL1  H24B 2580   4.231   3.451   8.547 -1.5925 -0.9777  0.5964
   35CHL1   C25 2581   4.160   3.258   8.592  0.4061  0.2809 -0.2217
   35CHL1   H25 2582   4.183   3.151   8.571 -0.4581 -0.0531  0.4469
   35CHL1   C26 2583   4.151   3.260   8.746 -0.1688  0.1118  0.0719
   35CHL1  H26A 2584   4.184   3.362   8.775  2.2932 -0.4363 -0.7205
   35CHL1  H26B 2585   4.049   3.235   8.784  0.2651  1.2864  2.0932
   35CHL1  H26C 2586   4.224   3.194   8.798  0.4955  0.2629 -0.6672
   35CHL1   C27 2587   4.028   3.296   8.539  0.0298  0.6918 -0.3064
   35CHL1  H27A 2588   3.937   3.247   8.581  1.4446 -1.4436  0.3180
   35CHL1  H27B 2589   4.024   3.277   8.430  1.8720 -4.1430  0.3245
   35CHL1  H27C 2590   4.020   3.405   8.560  1.9075  0.8811 -0.4905
   36CHL1    C3 2591   4.385   2.982   7.159  0.1716 -0.2243 -0.5410
   36CHL1    H3 2592   4.280   2.968   7.194  0.0861 -1.7449 -1.3961
   36CHL1    O3 2593   4.359   3.030   7.032 -0.1580  0.4010 -0.4040
   36CHL1   H3' 2594   4.447   3.058   7.004  0.3590 -0.1188  0.6701
   36CHL1    C4 2595   4.458   3.093   7.233  0.7393 -0.1460  0.3466
   36CHL1   H4A 2596   4.558   3.110   7.187 -0.6138 -0.8982 -2.9880
   36CHL1   H4B 2597   4.401   3.188   7.241 -0.4994 -1.0753  3.4155
   36CHL1    C5 2598   4.470   3.052   7.373 -0.2731 -0.0575 -0.2576
   36CHL1    C6 2599   4.412   3.116   7.478  0.3685 -0.2156  0.4317
   36CHL1    H6 2600   4.370   3.216   7.461 -0.1857 -0.2877  1.3744
   36CHL1    C7 2601   4.417   3.082   7.619 -0.8684  0.0167  0.4355
   36CHL1   H7A 2602   4.420   3.181   7.670 -1.3731 -0.8553  2.2072
   36CHL1   H7B 2603   4.323   3.032   7.650 -0.3446  0.6984  3.2873
   36CHL1    C8 2604   4.528   2.973   7.652  1.1429  0.4439 -0.7975
   36CHL1    H8 2605   4.622   3.031   7.635  1.7167 -1.0680 -3.0127
   36CHL1   C14 2606   4.515   2.919   7.789  0.7139 -0.0860  0.6491
   36CHL1   H14 2607   4.411   2.885   7.806  1.7797 -4.2916 -0.5433
   36CHL1   C15 2608   4.523   3.019   7.906 -0.8667  0.3798 -0.4319
   36CHL1  H15A 2609   4.608   3.091   7.904  1.1435 -1.8476  1.5030
   36CHL1  H15B 2610   4.428   3.074   7.925 -0.1368  1.1182  1.2583
   36CHL1   C16 2611   4.539   2.928   8.033  0.3050 -1.1455 -0.4516
   36CHL1  H16A 2612   4.631   2.964   8.084 -0.2088 -0.8852  0.2958
   36CHL1  H16B 2613   4.457   2.947   8.105  1.8200  0.2667  0.9262
   36CHL1   C17 2614   4.558   2.779   7.979 -0.1989 -0.1427  0.0449
   36CHL1   H17 2615   4.458   2.732   7.966 -0.8065  1.1261  0.0727
   36CHL1   C13 2616   4.605   2.804   7.830  0.2502 -0.1202 -0.5906
   36CHL1   C18 2617   4.746   2.855   7.828  0.1841 -0.4072  0.0477
   36CHL1  H18A 2618   4.802   2.765   7.861  1.7054  0.3590 -0.4477
   36CHL1  H18B 2619   4.770   2.884   7.723  2.5389  2.6895  1.3700
   36CHL1  H18C 2620   4.758   2.948   7.886  1.5774 -0.5841  0.0619
   36CHL1   C12 2621   4.585   2.684   7.737 -0.4102 -0.5614 -0.9631
   36CHL1  H12A 2622   4.656   2.603   7.764 -0.0382  0.4294  1.0729
   36CHL1  H12B 2623   4.482   2.644   7.753  1.4200 -4.6282  1.3609
   36CHL1   C11 2624   4.598   2.730   7.587 -0.2383  0.0754 -0.2326
   36CHL1  H11A 2625   4.705   2.735   7.558 -0.1595 -0.0101  0.0456
   36CHL1  H11B 2626   4.556   2.652   7.519  1.6205 -0.8734 -0.3133
   36CHL1    C9 2627   4.515   2.860   7.551  0.1673  0.2395  0.1982
   36CHL1    H9 2628   4.408   2.837   7.568  0.2677 -0.3485  0.0521
   36CHL1   C10 2629   4.536   2.911   7.405  0.0872  0.1951 -0.7925
   36CHL1   C19 2630   4.690   2.927   7.371  0.0235  0.0082 -0.6999
   36CHL1  H19A 2631   4.743   2.975   7.456  1.2329 -1.6298 -0.4888
   36CHL1  H19B 2632   4.733   2.826   7.352  1.0846  1.0095 -4.1213
   36CHL1  H19C 2633   4.705   2.991   7.281  0.6492  1.3283  0.3328
   36CHL1    C1 2634   4.467   2.812   7.312  0.0117  0.4316  0.4783
   36CHL1   H1A 2635   4.528   2.720   7.307 -0.0851  0.4808 -2.3444
   36CHL1   H1B 2636   4.365   2.791   7.353 -1.4541 -0.4951 -3.4187
   36CHL1    C2 2637   4.461   2.850   7.165 -0.6777  0.0774 -0.0422
   36CHL1   H2A 2638   4.407   2.777   7.101 -1.1831  1.8988 -1.7418
   36CHL1   H2B 2639   4.561   2.844   7.117 -0.5930  1.0233  0.0099
   36CHL1   C20 2640   4.628   2.682   8.079 -0.6730  0.4327  0.3962
   36CHL1   H20 2641   4.640   2.587   8.022 -0.6113  0.4441  0.3904
   36CHL1   C21 2642   4.517   2.655   8.188 -0.5928  0.4540 -0.3542
   36CHL1  H21A 2643   4.557   2.586   8.265  0.1199  0.4039 -0.7615
   36CHL1  H21B 2644   4.418   2.613   8.158 -1.0777  1.1234  0.3100
   36CHL1  H21C 2645   4.493   2.749   8.242 -2.9495 -0.5683  0.4293
   36CHL1   C22 2646   4.761   2.734   8.146 -0.5868 -0.7459  0.5912
   36CHL1  H22A 2647   4.825   2.770   8.063 -0.0603 -4.1131 -0.5063
   36CHL1  H22B 2648   4.738   2.829   8.200 -0.4665 -1.2452  1.5454
   36CHL1   C23 2649   4.846   2.640   8.221 -0.7245  0.2800 -0.0559
   36CHL1  H23A 2650   4.801   2.610   8.318  0.7135 -1.2974  0.1376
   36CHL1  H23B 2651   4.857   2.544   8.166  0.3678 -0.7821  1.9492
   36CHL1   C24 2652   4.988   2.690   8.244 -0.6834 -0.3015 -0.2121
   36CHL1  H24A 2653   5.035   2.709   8.144  2.0074 -0.4308  0.9872
   36CHL1  H24B 2654   4.984   2.778   8.311  0.4733 -2.3251  2.5835
   36CHL1   C25 2655   5.078   2.588   8.319 -0.2358 -0.5079 -0.0524
   36CHL1   H25 2656   5.064   2.496   8.260 -2.4678 -0.9155  1.0604
   36CHL1   C26 2657   5.227   2.628   8.319  0.9981  0.3314  0.0928
   36CHL1  H26A 2658   5.291   2.556   8.373  1.7696  0.5521 -0.5312
   36CHL1  H26B 2659   5.263   2.614   8.215  0.1858 -0.2069 -0.1220
   36CHL1  H26C 2660   5.249   2.728   8.364 -0.6166  1.0631 -0.6749
   36CHL1   C27 2661   5.032   2.563   8.463  0.1191  0.8096 -0.3682
   36CHL1  H27A 2662   5.085   2.474   8.501  2.2873  3.1453  2.2903
   36CHL1  H27B 2663   5.058   2.641   8.538  0.4608  0.2238  0.1190
   36CHL1  H27C 2664   4.922   2.550   8.458  0.0834  1.5654 -1.7830
   37CHL1    C3 2665   1.150   5.298   6.929 -0.3893 -0.3949 -0.0432
   37CHL1    H3 2666   1.189   5.196   6.951  0.2286  0.0991  1.2112
   37CHL1    O3 2667   1.131   5.310   6.790 -0.0078  0.5841  0.4764
   37CHL1   H3' 2668   1.120   5.404   6.779 -1.6994  0.1010 -2.8532
   37CHL1    C4 2669   1.021   5.325   7.002 -0.2367 -0.8483 -0.7793
   37CHL1   H4A 2670   0.979   5.424   6.974  1.6104  0.8172  2.1581
   37CHL1   H4B 2671   0.949   5.245   6.972 -0.1056 -1.7328  1.2172
   37CHL1    C5 2672   1.038   5.324   7.151  0.1489 -0.0924 -0.4099
   37CHL1    C6 2673   0.971   5.242   7.234  0.3179  0.2880 -0.5561
   37CHL1    H6 2674   0.906   5.168   7.184 -1.4123  0.9631  0.6795
   37CHL1    C7 2675   0.987   5.230   7.380  0.2864 -0.8537 -0.2513
   37CHL1   H7A 2676   0.891   5.211   7.433  0.2597 -1.8257 -0.6351
   37CHL1   H7B 2677   1.051   5.141   7.402  1.8167  0.4949  0.8862
   37CHL1    C8 2678   1.056   5.351   7.438  0.3311 -0.3144 -0.7649
   37CHL1    H8 2679   0.989   5.438   7.453  0.3292 -0.5279  0.5275
   37CHL1   C14 2680   1.113   5.322   7.583  0.2940  0.3434 -0.0927
   37CHL1   H14 2681   1.197   5.250   7.568 -0.9327 -1.0729 -0.3205
   37CHL1   C15 2682   1.019   5.250   7.684 -0.0895  0.3775 -0.6718
   37CHL1  H15A 2683   0.921   5.301   7.692 -1.3929 -1.5815 -3.2227
   37CHL1  H15B 2684   0.998   5.142   7.665 -0.2481 -0.1247  2.1889
   37CHL1   C16 2685   1.085   5.278   7.816  0.3445  0.1917  0.7708
   37CHL1  H16A 2686   1.012   5.314   7.893 -1.0174 -1.5421  0.3279
   37CHL1  H16B 2687   1.133   5.187   7.858  0.4647 -0.7338 -1.3417
   37CHL1   C17 2688   1.204   5.378   7.791 -0.3290 -0.3338 -0.4703
   37CHL1   H17 2689   1.295   5.323   7.759 -0.2328 -0.0698 -0.6580
   37CHL1   C13 2690   1.176   5.446   7.650  0.5795 -0.0712 -0.2417
   37CHL1   C18 2691   1.074   5.552   7.680  0.7692 -0.3023  0.0861
   37CHL1  H18A 2692   1.126   5.644   7.715 -1.3118  0.3302  1.6505
   37CHL1  H18B 2693   1.030   5.587   7.584  0.4064  2.7285  1.2890
   37CHL1  H18C 2694   0.997   5.524   7.755  1.0331  0.5843  0.7003
   37CHL1   C12 2695   1.290   5.484   7.563  0.3817 -0.9080 -0.1798
   37CHL1  H12A 2696   1.353   5.568   7.598 -1.2853 -0.0657  0.8856
   37CHL1  H12B 2697   1.346   5.389   7.551  0.1204 -1.0488 -0.2961
   37CHL1   C11 2698   1.242   5.521   7.421  1.0998  0.2121 -0.0391
   37CHL1  H11A 2699   1.169   5.605   7.425  2.7490  1.7302 -0.8211
   37CHL1  H11B 2700   1.331   5.542   7.357 -1.7379  1.8913 -3.6303
   37CHL1    C9 2701   1.169   5.399   7.356  0.6638 -0.2789 -0.3528
   37CHL1    H9 2702   1.243   5.315   7.358 -0.4453 -1.2578  0.9124
   37CHL1   C10 2703   1.146   5.419   7.209  0.1872 -0.2795  0.2710
   37CHL1   C19 2704   1.096   5.567   7.186  0.0656  0.1212 -0.1840
   37CHL1  H19A 2705   1.001   5.574   7.243  0.6403  1.1067  0.6571
   37CHL1  H19B 2706   1.172   5.642   7.217 -0.9213  0.7533  0.7472
   37CHL1  H19C 2707   1.072   5.590   7.080  3.7097 -0.5645 -1.2005
   37CHL1    C1 2708   1.278   5.397   7.123 -0.0787 -0.2221  0.4617
   37CHL1   H1A 2709   1.362   5.468   7.141  0.4806 -0.2518 -1.9391
   37CHL1   H1B 2710   1.315   5.294   7.141  0.0017 -0.4481 -0.9357
   37CHL1    C2 2711   1.248   5.403   6.972  0.4379  0.0381 -0.0465
   37CHL1   H2A 2712   1.348   5.388   6.925  0.2887  2.8655 -1.3521
   37CHL1   H2B 2713   1.220   5.507   6.946  0.9345  0.1676 -0.0769
   37CHL1   C20 2714   1.232   5.466   7.916 -0.1836 -0.0501  0.4059
   37CHL1   H20 2715   1.152   5.543   7.919  1.2756  1.6773 -2.7101
   37CHL1   C21 2716   1.351   5.561   7.902  0.3410 -0.2502 -0.1074
   37CHL1  H21A 2717   1.398   5.578   8.001  2.1393 -1.7328 -0.6792
   37CHL1  H21B 2718   1.313   5.655   7.857  0.1786 -0.9130 -1.3889
   37CHL1  H21C 2719   1.430   5.517   7.837  0.2300 -3.9844  2.1804
   37CHL1   C22 2720   1.236   5.383   8.037  0.0341  0.5692 -0.3130
   37CHL1  H22A 2721   1.245   5.437   8.133  2.3132 -3.4572  1.8648
   37CHL1  H22B 2722   1.151   5.315   8.056  1.7100 -1.9729 -1.5720
   37CHL1   C23 2723   1.356   5.285   8.045  0.4846 -0.3081 -0.2624
   37CHL1  H23A 2724   1.345   5.223   7.953  0.5446 -0.4921 -0.1469
   37CHL1  H23B 2725   1.449   5.340   8.017 -0.2690  1.5782  0.9149
   37CHL1   C24 2726   1.368   5.205   8.181 -0.0141 -1.0453 -0.2734
   37CHL1  H24A 2727   1.380   5.285   8.257 -1.1642 -1.0488 -0.0722
   37CHL1  H24B 2728   1.272   5.153   8.202 -0.1933 -0.4700  0.3281
   37CHL1   C25 2729   1.475   5.094   8.183 -0.2935 -0.5431 -0.0200
   37CHL1   H25 2730   1.444   5.011   8.116 -0.9358  0.2479 -0.7109
   37CHL1   C26 2731   1.611   5.150   8.125 -0.5366 -0.3810 -0.2546
   37CHL1  H26A 2732   1.676   5.060   8.122 -0.5432 -0.4784  2.1132
   37CHL1  H26B 2733   1.599   5.187   8.021 -1.5454  1.1146  0.3802
   37CHL1  H26C 2734   1.649   5.228   8.194 -2.0084  0.3727 -0.2819
   37CHL1   C27 2735   1.489   5.051   8.326 -0.3973 -0.2548  0.1185
   37CHL1  H27A 2736   1.402   4.994   8.365 -0.3602  0.5219  1.3622
   37CHL1  H27B 2737   1.579   4.986   8.331 -0.6562 -0.8229 -2.2810
   37CHL1  H27C 2738   1.516   5.137   8.391 -1.1825  1.4870 -1.8211
   38CHL1    C3 2739   4.435   6.312   6.649 -0.0732  0.6182  0.0944
   38CHL1    H3 2740   4.484   6.397   6.700 -1.1320  0.4122  1.4726
   38CHL1    O3 2741   4.445   6.328   6.510 -0.0796 -0.1316 -0.0260
   38CHL1   H3' 2742   4.431   6.243   6.468 -0.6125 -2.7349  5.0229
   38CHL1    C4 2743   4.510   6.178   6.681  0.3405  0.1119 -0.7444
   38CHL1   H4A 2744   4.473   6.095   6.618  0.9844 -1.4260  0.8610
   38CHL1   H4B 2745   4.615   6.195   6.648  0.2849 -1.5063 -1.8138
   38CHL1    C5 2746   4.502   6.141   6.828  0.0550  0.7489 -0.8789
   38CHL1    C6 2747   4.614   6.127   6.903  0.1572 -0.1387  0.1037
   38CHL1    H6 2748   4.709   6.155   6.857 -0.1529  2.5340  0.9664
   38CHL1    C7 2749   4.609   6.097   7.055 -0.2691 -0.2230  0.5031
   38CHL1   H7A 2750   4.683   6.018   7.080 -0.0426 -0.3405 -0.4992
   38CHL1   H7B 2751   4.620   6.190   7.114  0.1902 -0.7399  1.2405
   38CHL1    C8 2752   4.478   6.034   7.089 -0.1051  0.6333 -0.7562
   38CHL1    H8 2753   4.481   5.935   7.039  0.8869  0.1217  0.2968
   38CHL1   C14 2754   4.459   6.010   7.240  0.3653  0.0427  0.4654
   38CHL1   H14 2755   4.456   6.112   7.285 -0.4613 -0.6268  1.9549
   38CHL1   C15 2756   4.561   5.933   7.322  0.6115 -0.5057 -0.1475
   38CHL1  H15A 2757   4.580   5.839   7.265 -1.1182 -0.4017 -0.9463
   38CHL1  H15B 2758   4.664   5.973   7.333  0.7047 -0.9161  0.4940
   38CHL1   C16 2759   4.488   5.908   7.455 -0.0462  0.4425  0.2670
   38CHL1  H16A 2760   4.517   5.805   7.486 -3.4455 -0.5885  0.2521
   38CHL1  H16B 2761   4.523   5.988   7.523 -2.2235  0.7207  1.0960
   38CHL1   C17 2762   4.335   5.943   7.429 -0.1420  0.4273  0.0949
   38CHL1   H17 2763   4.320   6.048   7.460  0.8368  0.3438  0.8962
   38CHL1   C13 2764   4.330   5.940   7.278 -0.2727  0.7423  0.2143
   38CHL1   C18 2765   4.318   5.802   7.226 -0.2612 -0.2944  0.0005
   38CHL1  H18A 2766   4.402   5.741   7.266 -0.2839 -0.1231  0.3146
   38CHL1  H18B 2767   4.219   5.754   7.245 -0.0281 -0.1269  1.7544
   38CHL1  H18C 2768   4.331   5.796   7.116  0.8769 -1.2407  0.1717
   38CHL1   C12 2769   4.213   6.032   7.233 -0.0713  0.1608 -0.0020
   38CHL1  H12A 2770   4.117   5.988   7.268 -0.5404  1.2924  0.1470
   38CHL1  H12B 2771   4.219   6.134   7.275 -1.9026  0.2188  0.1711
   38CHL1   C11 2772   4.222   6.059   7.083 -0.3462  0.5619 -0.6421
   38CHL1  H11A 2773   4.202   5.961   7.035  1.7715 -0.1141 -0.1948
   38CHL1  H11B 2774   4.139   6.131   7.064 -0.3230  0.7733  0.0228
   38CHL1    C9 2775   4.358   6.113   7.037 -0.4405 -0.0355 -0.5476
   38CHL1    H9 2776   4.375   6.212   7.083 -0.7463  0.2143 -0.9628
   38CHL1   C10 2777   4.353   6.126   6.879  0.0486  0.0287  0.3976
   38CHL1   C19 2778   4.295   5.999   6.811  0.0867 -0.5193 -0.1609
   38CHL1  H19A 2779   4.338   5.908   6.859  2.0215 -0.1788 -1.1842
   38CHL1  H19B 2780   4.185   5.999   6.825  0.0785 -1.8005 -0.1548
   38CHL1  H19C 2781   4.313   5.993   6.702 -0.3937 -1.8915 -0.1712
   38CHL1    C1 2782   4.278   6.259   6.842  0.0410 -0.8918  0.5799
   38CHL1   H1A 2783   4.175   6.250   6.883  0.4911 -0.7784  1.7422
   38CHL1   H1B 2784   4.336   6.341   6.888 -1.3826  1.2281 -1.3130
   38CHL1    C2 2785   4.284   6.305   6.691 -0.2090  0.6651  0.6022
   38CHL1   H2A 2786   4.227   6.398   6.671 -1.6177 -0.2883  0.1066
   38CHL1   H2B 2787   4.243   6.225   6.625  1.2516 -0.3246  0.8621
   38CHL1   C20 2788   4.243   5.866   7.509 -0.1493  0.0682 -0.5301
   38CHL1   H20 2789   4.234   5.764   7.464  1.9758 -1.1978  1.7829
   38CHL1   C21 2790   4.102   5.933   7.525 -0.5104 -0.0608 -0.8665
   38CHL1  H21A 2791   4.037   5.894   7.606  1.4639 -0.2778  0.6446
   38CHL1  H21B 2792   4.039   5.917   7.435 -2.5303  0.5762  0.4017
   38CHL1  H21C 2793   4.113   6.043   7.538 -1.4441 -0.0152 -0.4069
   38CHL1   C22 2794   4.303   5.829   7.648  0.9367 -0.6486  0.5540
   38CHL1  H22A 2795   4.392   5.763   7.636  0.6548 -1.1406  1.1631
   38CHL1  H22B 2796   4.343   5.918   7.700 -1.4753  2.4577 -2.6343
   38CHL1   C23 2797   4.203   5.738   7.730 -0.0630  0.4655  0.0966
   38CHL1  H23A 2798   4.121   5.800   7.771 -0.6433  0.1011 -0.5259
   38CHL1  H23B 2799   4.158   5.668   7.656  2.0447  1.5964 -2.3387
   38CHL1   C24 2800   4.264   5.657   7.846  1.1194  0.2444 -0.5254
   38CHL1  H24A 2801   4.202   5.570   7.876  1.4351 -0.0096 -0.6184
   38CHL1  H24B 2802   4.355   5.613   7.800 -0.3444 -0.7911 -2.5179
   38CHL1   C25 2803   4.294   5.738   7.973 -0.4188  0.0096 -0.5147
   38CHL1   H25 2804   4.313   5.840   7.935  0.1512 -0.1625 -0.6967
   38CHL1   C26 2805   4.176   5.739   8.072 -0.3497 -0.1454  0.2812
   38CHL1  H26A 2806   4.160   5.633   8.103  0.1757 -0.2191  0.2970
   38CHL1  H26B 2807   4.188   5.805   8.161 -0.7039 -0.1845  0.3601
   38CHL1  H26C 2808   4.087   5.766   8.011  1.9626  2.4811 -2.0504
   38CHL1   C27 2809   4.414   5.683   8.050  0.3519  0.1519  0.0941
   38CHL1  H27A 2810   4.501   5.671   7.981  0.1316  1.0197 -0.3338
   38CHL1  H27B 2811   4.449   5.740   8.139 -2.2246 -2.5507  2.9500
   38CHL1  H27C 2812   4.393   5.584   8.097  1.9864 -0.5089 -0.5148
   39CHL1    C3 2813   4.091   5.578   6.755  0.7076 -0.0490 -0.4327
   39CHL1    H3 2814   4.196   5.545   6.770  2.2174  4.2358 -0.6935
   39CHL1    O3 2815   4.065   5.605   6.617  0.1288 -0.5603 -0.0221
   39CHL1   H3' 2816   3.984   5.657   6.618  1.1885  1.1190  0.5467
   39CHL1    C4 2817   4.007   5.454   6.801  0.0606 -0.0377 -0.4147
   39CHL1   H4A 2818   3.901   5.472   6.777  0.6244  3.0151 -0.8144
   39CHL1   H4B 2819   4.050   5.367   6.747  1.6233  0.9677 -0.8478
   39CHL1    C5 2820   4.009   5.435   6.953 -0.3528 -0.0342 -0.3801
   39CHL1    C6 2821   4.028   5.317   7.003 -0.2837 -0.7447 -0.6161
   39CHL1    H6 2822   4.043   5.228   6.939 -1.3728 -0.9850 -0.5503
   39CHL1    C7 2823   4.036   5.281   7.148  0.0953  0.6096 -0.6036
   39CHL1   H7A 2824   4.000   5.178   7.173 -0.8322  1.0570 -0.0843
   39CHL1   H7B 2825   4.143   5.274   7.175  0.1822 -0.2701 -1.1560
   39CHL1    C8 2826   3.954   5.389   7.232  0.7779 -0.0387 -0.0580
   39CHL1    H8 2827   3.848   5.367   7.205  0.6668 -0.4617  0.7305
   39CHL1   C14 2828   3.975   5.373   7.379 -0.0728  0.0483 -0.0314
   39CHL1   H14 2829   4.082   5.384   7.406  0.2518 -0.0606 -1.2675
   39CHL1   C15 2830   3.948   5.239   7.442 -0.0160 -0.8268  0.5050
   39CHL1  H15A 2831   3.852   5.200   7.402 -0.0238 -1.5277  1.1912
   39CHL1  H15B 2832   4.035   5.172   7.423  0.0449 -0.0891 -1.9546
   39CHL1   C16 2833   3.939   5.271   7.596 -0.9739 -0.0519 -1.1564
   39CHL1  H16A 2834   3.843   5.232   7.636  0.3994 -0.3818  1.9361
   39CHL1  H16B 2835   4.021   5.222   7.653  0.4364 -0.5200 -3.4974
   39CHL1   C17 2836   3.941   5.422   7.613 -0.3290  0.5653  0.7414
   39CHL1   H17 2837   4.047   5.443   7.637  0.1250  0.2389 -0.9766
   39CHL1   C13 2838   3.910   5.475   7.471 -0.5958  0.0482 -0.6255
   39CHL1   C18 2839   3.753   5.478   7.443 -0.1490 -0.6232  0.0311
   39CHL1  H18A 2840   3.710   5.381   7.473 -1.1351  0.6595  2.9728
   39CHL1  H18B 2841   3.703   5.563   7.495  1.1546 -1.3522  2.5264
   39CHL1  H18C 2842   3.730   5.491   7.335  1.1453 -2.4032 -0.4713
   39CHL1   C12 2843   3.968   5.613   7.432  0.0025  0.1389 -0.0326
   39CHL1  H12A 2844   3.918   5.692   7.493 -0.0404 -0.4316  0.6736
   39CHL1  H12B 2845   4.073   5.627   7.464  0.2298 -1.2421 -0.1611
   39CHL1   C11 2846   3.953   5.648   7.283  0.9307  0.2084  0.2965
   39CHL1  H11A 2847   3.847   5.673   7.260  0.5326 -1.1560  0.6522
   39CHL1  H11B 2848   3.989   5.750   7.254 -0.2686  0.7553  0.7149
   39CHL1    C9 2849   4.002   5.530   7.187  0.4653 -0.8120 -0.6007
   39CHL1    H9 2850   4.112   5.531   7.196  0.3722 -0.1611  0.4743
   39CHL1   C10 2851   3.980   5.556   7.037 -0.1471 -0.7598  0.5130
   39CHL1   C19 2852   3.827   5.585   7.019 -0.1420 -0.3240  0.1120
   39CHL1  H19A 2853   3.770   5.507   7.073 -0.1723  0.4420  1.2086
   39CHL1  H19B 2854   3.798   5.685   7.058 -1.9679 -0.3417 -1.1414
   39CHL1  H19C 2855   3.792   5.588   6.913  2.2716  2.5564 -0.6969
   39CHL1    C1 2856   4.065   5.672   6.992  0.7957 -0.6932  0.1442
   39CHL1   H1A 2857   4.045   5.765   7.048 -0.0479  0.1303 -1.5145
   39CHL1   H1B 2858   4.172   5.649   7.016  0.5233 -1.7082  0.4106
   39CHL1    C2 2859   4.055   5.700   6.837  0.6864  0.1811 -0.3044
   39CHL1   H2A 2860   4.119   5.782   6.797  0.1104  0.6841 -0.2052
   39CHL1   H2B 2861   3.946   5.720   6.823  0.7088 -0.8507 -2.2035
   39CHL1   C20 2862   3.852   5.463   7.732 -0.5770 -1.0264 -0.6272
   39CHL1   H20 2863   3.746   5.435   7.713 -1.0390  0.1001  0.2298
   39CHL1   C21 2864   3.845   5.619   7.751 -0.4462 -0.4157  0.6050
   39CHL1  H21A 2865   3.950   5.654   7.761 -0.0186 -1.8544  1.2502
   39CHL1  H21B 2866   3.793   5.641   7.846 -1.5506  0.0266 -0.0829
   39CHL1  H21C 2867   3.784   5.662   7.668  0.3684  0.5429  0.4925
   39CHL1   C22 2868   3.889   5.387   7.864  0.5901 -0.2651 -0.0723
   39CHL1  H22A 2869   3.919   5.285   7.834 -2.2608 -1.4313  0.8605
   39CHL1  H22B 2870   3.985   5.426   7.906 -0.2398 -0.0992  1.7216
   39CHL1   C23 2871   3.782   5.382   7.970  0.3636 -0.5399 -0.5237
   39CHL1  H23A 2872   3.774   5.485   8.010 -1.4945 -0.2097 -1.6937
   39CHL1  H23B 2873   3.690   5.347   7.919 -1.0786  0.9491  0.9753
   39CHL1   C24 2874   3.827   5.282   8.080  0.2135  0.2887 -0.8145
   39CHL1  H24A 2875   3.832   5.176   8.048 -1.6663  0.3306 -1.2954
   39CHL1  H24B 2876   3.929   5.298   8.120 -0.4616  2.0735  0.2438
   39CHL1   C25 2877   3.729   5.279   8.196 -0.1706  0.9035  0.2244
   39CHL1   H25 2878   3.630   5.261   8.149  1.1257 -1.1659 -1.8255
   39CHL1   C26 2879   3.768   5.163   8.292  1.1147 -0.5271  0.1871
   39CHL1  H26A 2880   3.690   5.149   8.370  1.9912 -0.1502  1.1413
   39CHL1  H26B 2881   3.777   5.067   8.236  1.7791 -0.4346  0.1299
   39CHL1  H26C 2882   3.858   5.193   8.349  0.7263 -0.0348  0.5409
   39CHL1   C27 2883   3.721   5.409   8.272  0.2571  0.8640  0.5699
   39CHL1  H27A 2884   3.818   5.417   8.325  0.9250  0.3650 -0.5439
   39CHL1  H27B 2885   3.697   5.504   8.219  1.2087  1.2752  0.8573
   39CHL1  H27C 2886   3.651   5.401   8.357 -0.3559 -1.1408 -0.1052
   40CHL1    C3 2887   0.140   4.629   6.921 -0.3410  0.7700  0.1914
   40CHL1    H3 2888   0.034   4.601   6.941  0.0472 -0.5803  0.3924
   40CHL1    O3 2889   0.149   4.649   6.778  0.2169 -0.5564 -0.1823
   40CHL1   H3' 2890   0.240   4.668   6.754 -0.0616  1.0743  0.0350
   40CHL1    C4 2891   0.177   4.764   6.995  0.8775  0.5101 -0.3716
   40CHL1   H4A 2892   0.284   4.782   6.971  1.4863 -3.0366 -0.5805
   40CHL1   H4B 2893   0.108   4.843   6.959  1.8327  1.1711 -0.7538
   40CHL1    C5 2894   0.168   4.754   7.150 -0.0894 -0.0565 -0.5644
   40CHL1    C6 2895   0.088   4.836   7.223  0.5636  0.5238 -0.1088
   40CHL1    H6 2896   0.031   4.908   7.163 -2.4654 -1.8349 -0.1532
   40CHL1    C7 2897   0.060   4.830   7.370 -0.4669  0.2842  0.8793
   40CHL1   H7A 2898   0.070   4.932   7.413 -2.3827  0.9633 -0.2271
   40CHL1   H7B 2899  -0.039   4.785   7.392 -0.6374 -0.7541 -1.7766
   40CHL1    C8 2900   0.152   4.737   7.452 -0.1714 -0.9423  0.4498
   40CHL1    H8 2901   0.239   4.805   7.466 -0.2991 -0.6793 -0.0272
   40CHL1   C14 2902   0.108   4.700   7.593 -0.0906 -0.0534 -0.1619
   40CHL1   H14 2903   0.023   4.631   7.573 -2.2846  2.1958  1.0617
   40CHL1   C15 2904   0.049   4.804   7.688  0.8231  0.4678  0.9326
   40CHL1  H15A 2905   0.089   4.906   7.676 -1.7481  1.8059  3.2178
   40CHL1  H15B 2906  -0.061   4.798   7.669  1.2664  0.5052 -1.8755
   40CHL1   C16 2907   0.071   4.747   7.830 -0.3930 -0.5382 -0.0242
   40CHL1  H16A 2908   0.147   4.809   7.882 -1.5784  0.4308  0.5697
   40CHL1  H16B 2909  -0.022   4.740   7.890 -0.7623 -1.3181 -0.6866
   40CHL1   C17 2910   0.136   4.606   7.804 -1.0338  0.1254  0.3619
   40CHL1   H17 2911   0.066   4.525   7.774  2.4779 -2.2504 -1.7151
   40CHL1   C13 2912   0.215   4.624   7.673 -0.3817  0.0068 -0.6476
   40CHL1   C18 2913   0.339   4.715   7.711 -0.6541  0.7485  0.1290
   40CHL1  H18A 2914   0.418   4.656   7.761  0.3943  3.9845  2.5358
   40CHL1  H18B 2915   0.380   4.761   7.619 -1.4077  0.8357 -0.1654
   40CHL1  H18C 2916   0.316   4.802   7.777  0.1984  2.5754 -1.9202
   40CHL1   C12 2917   0.257   4.505   7.586  0.0029 -0.0520  0.5357
   40CHL1  H12A 2918   0.344   4.455   7.633 -0.3525 -0.6990  0.5023
   40CHL1  H12B 2919   0.170   4.439   7.569  1.7679 -2.2742 -0.0899
   40CHL1   C11 2920   0.312   4.544   7.448 -0.3175 -0.0977 -0.5956
   40CHL1  H11A 2921   0.399   4.611   7.462 -1.2541  0.7333  1.4929
   40CHL1  H11B 2922   0.349   4.449   7.402  0.9137  1.2178 -2.3903
   40CHL1    C9 2923   0.206   4.621   7.372  0.0102 -0.3611  0.3405
   40CHL1    H9 2924   0.116   4.557   7.366 -1.4230  1.1294  4.2679
   40CHL1   C10 2925   0.235   4.645   7.221  0.3198 -0.0804 -0.8185
   40CHL1   C19 2926   0.386   4.684   7.205  0.3633  0.3932  0.0451
   40CHL1  H19A 2927   0.450   4.598   7.231 -0.6803  0.2799  2.4037
   40CHL1  H19B 2928   0.411   4.715   7.101 -0.1190  0.9919  0.1018
   40CHL1  H19C 2929   0.419   4.759   7.280  0.1106  0.7562 -0.2038
   40CHL1    C1 2930   0.214   4.511   7.133 -0.0520  0.0622  1.0497
   40CHL1   H1A 2931   0.293   4.442   7.170  0.2718  0.1022  0.4280
   40CHL1   H1B 2932   0.120   4.453   7.146  0.8397 -1.3256  1.4307
   40CHL1    C2 2933   0.240   4.522   6.977  0.0335 -0.0810  0.9526
   40CHL1   H2A 2934   0.231   4.420   6.934  2.6382  0.2853 -0.5629
   40CHL1   H2B 2935   0.347   4.547   6.959  0.5479 -1.6920  1.6929
   40CHL1   C20 2936   0.207   4.557   7.933 -0.6288  0.7630 -0.1644
   40CHL1   H20 2937   0.281   4.637   7.956 -1.1051  1.7910 -2.1213
   40CHL1   C21 2938   0.278   4.428   7.901 -0.6935  0.0096  0.8433
   40CHL1  H21A 2939   0.217   4.364   7.833 -0.3747 -1.4602  1.9234
   40CHL1  H21B 2940   0.321   4.368   7.984 -1.3009 -1.4116  0.1567
   40CHL1  H21C 2941   0.371   4.447   7.843 -1.2561  0.3167  0.0291
   40CHL1   C22 2942   0.107   4.544   8.049 -0.5306 -0.4697 -0.0645
   40CHL1  H22A 2943   0.025   4.620   8.045 -0.1818 -0.1484 -1.2981
   40CHL1  H22B 2944   0.041   4.456   8.040 -0.7787 -0.0523 -2.7317
   40CHL1   C23 2945   0.170   4.556   8.196 -0.7201 -0.3594 -0.7414
   40CHL1  H23A 2946   0.095   4.507   8.261 -0.4455 -0.3163 -0.3915
   40CHL1  H23B 2947   0.254   4.485   8.203 -0.0883  0.6594  2.7485
   40CHL1   C24 2948   0.205   4.700   8.245  0.7769  0.3774 -0.6170
   40CHL1  H24A 2949   0.270   4.686   8.334  1.6516 -1.7251 -1.5525
   40CHL1  H24B 2950   0.262   4.753   8.165 -1.4867  0.8579 -1.9646
   40CHL1   C25 2951   0.084   4.773   8.310 -0.6773 -0.2259 -0.0539
   40CHL1   H25 2952   0.006   4.770   8.230  0.3658  0.1719 -1.1016
   40CHL1   C26 2953   0.035   4.712   8.443  0.1143  0.5048 -0.6983
   40CHL1  H26A 2954   0.000   4.607   8.439  4.7338 -1.2015  0.7794
   40CHL1  H26B 2955   0.110   4.727   8.524  1.2337  0.9191 -1.8047
   40CHL1  H26C 2956  -0.050   4.776   8.474  1.5110  1.3832  1.4906
   40CHL1   C27 2957   0.133   4.914   8.345  0.5953 -0.1134 -0.0421
   40CHL1  H27A 2958   0.167   4.970   8.255 -0.1787  1.3720  0.5706
   40CHL1  H27B 2959   0.060   4.974   8.403  0.3677 -0.0847 -0.3549
   40CHL1  H27C 2960   0.227   4.908   8.403  0.8503 -1.0607 -0.5456
   41CHL1    C3 2961   0.664   4.372   7.064  0.4196 -0.7820  0.4163
   41CHL1    H3 2962   0.557   4.379   7.094  0.3798  0.7584 -0.0485
   41CHL1    O3 2963   0.674   4.384   6.925  0.0751 -0.5743  0.1632
   41CHL1   H3' 2964   0.747   4.329   6.896 -0.7599 -0.1179 -2.9852
   41CHL1    C4 2965   0.726   4.491   7.136  0.2487  0.4085 -0.9842
   41CHL1   H4A 2966   0.822   4.505   7.082  1.1783 -0.2920  0.4592
   41CHL1   H4B 2967   0.673   4.585   7.107 -0.4246  0.8863  1.6682
   41CHL1    C5 2968   0.743   4.467   7.286 -0.8971 -0.4675 -0.0226
   41CHL1    C6 2969   0.707   4.564   7.379  0.2843 -0.3253 -1.1735
   41CHL1    H6 2970   0.658   4.656   7.345 -1.0081 -0.2218  0.8375
   41CHL1    C7 2971   0.723   4.544   7.529 -0.0537  1.2903 -0.1698
   41CHL1   H7A 2972   0.764   4.637   7.573  0.7470  0.6280  0.5094
   41CHL1   H7B 2973   0.627   4.523   7.581 -1.6572  1.8473 -2.7631
   41CHL1    C8 2974   0.830   4.431   7.568  0.5763  0.2309 -0.2245
   41CHL1    H8 2975   0.936   4.464   7.561  1.1013 -1.3610  0.0680
   41CHL1   C14 2976   0.820   4.383   7.709  0.0524 -0.2212 -0.4227
   41CHL1   H14 2977   0.719   4.338   7.721  0.7142 -1.8061 -0.7217
   41CHL1   C15 2978   0.822   4.492   7.821 -0.2911  0.5821  0.0917
   41CHL1  H15A 2979   0.895   4.571   7.795  0.0698 -0.1165 -1.0398
   41CHL1  H15B 2980   0.719   4.533   7.823 -0.0577  1.2696 -1.3728
   41CHL1   C16 2981   0.851   4.421   7.949 -0.5191  0.6658 -0.0485
   41CHL1  H16A 2982   0.939   4.467   7.997 -1.4221 -0.4626  2.7640
   41CHL1  H16B 2983   0.771   4.425   8.026  1.0775  0.8867  1.6103
   41CHL1   C17 2984   0.887   4.272   7.908  0.2679 -0.3503  0.0442
   41CHL1   H17 2985   0.789   4.220   7.905  0.2102 -0.1476 -1.9065
   41CHL1   C13 2986   0.930   4.286   7.750  0.4726 -0.8106  0.1430
   41CHL1   C18 2987   1.082   4.334   7.750  0.4225 -0.2714  0.0587
   41CHL1  H18A 2988   1.101   4.362   7.644 -1.6337  3.7759  0.6674
   41CHL1  H18B 2989   1.108   4.420   7.815 -0.1575  0.3284 -0.5039
   41CHL1  H18C 2990   1.132   4.244   7.793 -0.4065  0.4080  2.5438
   41CHL1   C12 2991   0.913   4.153   7.662  0.1776  0.1596  0.3527
   41CHL1  H12A 2992   0.997   4.086   7.693 -1.1681 -0.4910  2.6994
   41CHL1  H12B 2993   0.821   4.095   7.680 -0.7393  0.8273 -2.0978
   41CHL1   C11 2994   0.906   4.185   7.518  0.3012  0.0148  0.2009
   41CHL1  H11A 2995   1.005   4.216   7.478  1.4872 -1.1834  2.1300
   41CHL1  H11B 2996   0.878   4.093   7.462  2.1024 -1.1917  1.2180
   41CHL1    C9 2997   0.808   4.308   7.484  0.0154 -0.5347 -0.4285
   41CHL1    H9 2998   0.706   4.273   7.510 -0.0755 -0.2528 -0.4030
   41CHL1   C10 2999   0.807   4.331   7.329  0.2378 -0.1817 -0.0390
   41CHL1   C19 3000   0.956   4.344   7.270  0.0750 -0.4261 -0.4201
   41CHL1  H19A 3001   1.027   4.413   7.321 -0.6899  1.4491 -1.8416
   41CHL1  H19B 3002   0.998   4.242   7.258 -0.8498 -1.0830  1.6259
   41CHL1  H19C 3003   0.948   4.371   7.163  2.1882 -1.3614 -0.8335
   41CHL1    C1 3004   0.725   4.222   7.258  0.7235  0.1348  0.4079
   41CHL1   H1A 3005   0.771   4.125   7.284  0.7134 -0.3125 -1.2128
   41CHL1   H1B 3006   0.619   4.228   7.292  0.5446  1.1144 -0.3070
   41CHL1    C2 3007   0.717   4.236   7.106 -0.6305  0.4032  0.3029
   41CHL1   H2A 3008   0.646   4.156   7.075 -0.8010  0.8688 -0.5155
   41CHL1   H2B 3009   0.819   4.210   7.070 -0.8537 -0.6027  0.3548
   41CHL1   C20 3010   0.972   4.206   8.020 -0.3103 -0.3764 -0.5686
   41CHL1   H20 3011   1.070   4.259   8.023 -0.1165 -0.8082  3.1758
   41CHL1   C21 3012   1.006   4.064   7.981 -0.5447  0.2460  0.3002
   41CHL1  H21A 3013   1.056   4.000   8.058 -0.6008 -0.4209 -0.2154
   41CHL1  H21B 3014   1.066   4.073   7.888  0.2635 -0.3656  0.7485
   41CHL1  H21C 3015   0.923   4.002   7.943  0.6556 -1.0933 -0.2116
   41CHL1   C22 3016   0.912   4.228   8.156 -0.7476 -0.0235 -0.3790
   41CHL1  H22A 3017   0.921   4.334   8.188 -1.9376  0.4492 -1.5531
   41CHL1  H22B 3018   0.802   4.222   8.141 -0.8389  0.6136  0.0366
   41CHL1   C23 3019   0.963   4.135   8.263 -0.7823  0.1124 -0.2042
   41CHL1  H23A 3020   0.930   4.031   8.244  0.2609 -0.0862 -1.0117
   41CHL1  H23B 3021   1.074   4.143   8.270 -0.8641  2.5207 -1.0388
   41CHL1   C24 3022   0.914   4.180   8.399  0.0642  0.4373  0.2386
   41CHL1  H24A 3023   0.936   4.289   8.404 -1.1070  0.8705 -3.1228
   41CHL1  H24B 3024   0.803   4.179   8.400 -0.0042  3.1350 -1.1323
   41CHL1   C25 3025   0.971   4.110   8.532  0.3509  0.8285  0.5999
   41CHL1   H25 3026   1.081   4.127   8.537  0.1856  1.2580  3.9028
   41CHL1   C26 3027   0.919   4.180   8.658 -0.6021  0.5450 -0.4890
   41CHL1  H26A 3028   0.810   4.177   8.681 -0.4612 -1.6340  0.0242
   41CHL1  H26B 3029   0.966   4.128   8.744 -3.1299  0.5812  0.9900
   41CHL1  H26C 3030   0.968   4.279   8.661  0.0072  0.2330  0.0499
   41CHL1   C27 3031   0.930   3.963   8.545  0.2703 -0.4624  0.1648
   41CHL1  H27A 3032   0.986   3.895   8.477  0.6647  0.7734 -0.7788
   41CHL1  H27B 3033   0.940   3.935   8.652 -0.2451  1.6945  0.7965
   41CHL1  H27C 3034   0.821   3.957   8.522  0.2304 -1.0380  0.5084
   42CHL1    C3 3035   2.298   1.940   7.010  0.8626 -0.2399 -0.3809
   42CHL1    H3 3036   2.402   1.901   7.013  1.1150  0.4959  2.9388
   42CHL1    O3 3037   2.273   2.010   6.887  0.8258  0.1046  0.1603
   42CHL1   H3' 3038   2.188   2.051   6.901  1.3033  0.0468  3.6364
   42CHL1    C4 3039   2.203   1.814   7.010  0.3884  0.2661  0.5958
   42CHL1   H4A 3040   2.101   1.859   7.002  0.9830  1.3884 -1.0137
   42CHL1   H4B 3041   2.234   1.755   6.921  0.8231  1.3037  0.0362
   42CHL1    C5 3042   2.202   1.724   7.127 -0.4984 -0.0389 -0.5307
   42CHL1    C6 3043   2.224   1.591   7.127 -0.4204  0.8658  0.2062
   42CHL1    H6 3044   2.245   1.541   7.031  2.5621  1.2338  0.6395
   42CHL1    C7 3045   2.227   1.510   7.256 -0.2216  0.2659  0.1829
   42CHL1   H7A 3046   2.175   1.412   7.248  1.1712 -0.5757  1.2113
   42CHL1   H7B 3047   2.333   1.489   7.283  0.0766 -0.2979 -1.3758
   42CHL1    C8 3048   2.166   1.585   7.376  0.1656 -0.5175 -0.3758
   42CHL1    H8 3049   2.055   1.583   7.377  0.1537  0.4389  0.3812
   42CHL1   C14 3050   2.213   1.518   7.506  0.1583  0.7292  0.9237
   42CHL1   H14 3051   2.322   1.536   7.514  0.5878 -1.2500 -0.1333
   42CHL1   C15 3052   2.189   1.371   7.517  0.4243  0.0002 -0.0187
   42CHL1  H15A 3053   2.092   1.326   7.485 -0.2875  2.3460 -1.2524
   42CHL1  H15B 3054   2.276   1.314   7.480 -0.3784 -0.8892 -0.5657
   42CHL1   C16 3055   2.189   1.348   7.672  0.6405  0.1220 -0.0423
   42CHL1  H16A 3056   2.099   1.310   7.723  0.0048  2.3717  0.5716
   42CHL1  H16B 3057   2.273   1.280   7.700  0.0475 -0.3498  0.5892
   42CHL1   C17 3058   2.222   1.484   7.730 -0.2768  0.2014 -0.9978
   42CHL1   H17 3059   2.332   1.491   7.726 -0.1653 -0.8676 -0.0949
   42CHL1   C13 3060   2.155   1.581   7.640  0.1048 -0.4865 -0.1324
   42CHL1   C18 3061   2.002   1.567   7.640 -0.1621 -0.4272  0.2994
   42CHL1  H18A 3062   1.963   1.618   7.549 -1.9803 -1.5328  0.4301
   42CHL1  H18B 3063   1.970   1.460   7.636 -1.2245 -0.0664 -1.1438
   42CHL1  H18C 3064   1.945   1.616   7.721 -2.3898  1.1763 -2.1512
   42CHL1   C12 3065   2.211   1.726   7.657 -0.6561  0.0805  0.3931
   42CHL1  H12A 3066   2.167   1.770   7.748  0.9717 -0.3162  1.3865
   42CHL1  H12B 3067   2.322   1.718   7.665 -0.3978 -1.3672 -3.4956
   42CHL1   C11 3068   2.176   1.803   7.527 -0.3489  0.7965  0.8125
   42CHL1  H11A 3069   2.067   1.824   7.540 -0.3329  1.8280 -0.5485
   42CHL1  H11B 3070   2.241   1.893   7.517  0.2222  0.2482 -0.4975
   42CHL1    C9 3071   2.213   1.728   7.391 -0.2877 -0.2542  1.0318
   42CHL1    H9 3072   2.324   1.723   7.398 -0.0037  3.2818 -0.0564
   42CHL1   C10 3073   2.179   1.808   7.258  0.1738  0.1933  0.6587
   42CHL1   C19 3074   2.034   1.854   7.270  0.8064 -0.0056  0.1803
   42CHL1  H19A 3075   1.960   1.771   7.272 -0.5788  1.1704 -0.5907
   42CHL1  H19B 3076   2.025   1.935   7.346  0.1276  0.4602 -0.3862
   42CHL1  H19C 3077   2.012   1.906   7.174  0.0600  2.7093  1.7713
   42CHL1    C1 3078   2.268   1.935   7.261  0.5824  0.5389 -0.8313
   42CHL1   H1A 3079   2.234   1.996   7.347 -2.5842 -0.1673 -1.5047
   42CHL1   H1B 3080   2.372   1.899   7.273 -0.3824 -1.5084  2.1242
   42CHL1    C2 3081   2.259   2.025   7.134  0.5664 -0.0002 -0.2878
   42CHL1   H2A 3082   2.331   2.106   7.158  0.0017  0.6900 -0.8996
   42CHL1   H2B 3083   2.161   2.078   7.130  0.0378 -0.8783  0.8045
   42CHL1   C20 3084   2.187   1.510   7.876  0.1225  0.0944 -1.3799
   42CHL1   H20 3085   2.149   1.614   7.882 -0.0252 -0.1114  1.9225
   42CHL1   C21 3086   2.320   1.502   7.955 -0.6502  0.6224  0.0122
   42CHL1  H21A 3087   2.304   1.530   8.061  1.3551  1.5106  0.0954
   42CHL1  H21B 3088   2.391   1.570   7.906  0.6529  0.4924  1.6661
   42CHL1  H21C 3089   2.366   1.401   7.968  0.8762  1.4554  1.2653
   42CHL1   C22 3090   2.075   1.419   7.951  0.6943  0.0373 -0.7116
   42CHL1  H22A 3091   1.986   1.431   7.886  1.0039  3.8006 -0.5266
   42CHL1  H22B 3092   2.111   1.314   7.953  0.6716 -0.0051 -2.0442
   42CHL1   C23 3093   2.053   1.443   8.099 -0.6087  0.2055 -0.6035
   42CHL1  H23A 3094   2.146   1.455   8.158 -1.3318 -1.1596  0.8578
   42CHL1  H23B 3095   1.991   1.535   8.098 -0.9932 -0.0518 -0.7323
   42CHL1   C24 3096   1.972   1.333   8.174 -0.4462 -1.1295 -0.1995
   42CHL1  H24A 3097   1.866   1.337   8.143 -1.2782  1.3181  2.7558
   42CHL1  H24B 3098   2.014   1.234   8.147  0.1811 -0.2678 -2.4803
   42CHL1   C25 3099   1.998   1.344   8.318  0.2424  0.0273  0.7406
   42CHL1   H25 3100   2.107   1.361   8.329  0.4238 -1.5900  1.5278
   42CHL1   C26 3101   1.917   1.457   8.386 -0.1850  0.3929  0.3687
   42CHL1  H26A 3102   1.935   1.551   8.329 -0.1905  0.0221 -0.2539
   42CHL1  H26B 3103   1.808   1.436   8.392 -0.4021  0.0691 -3.2619
   42CHL1  H26C 3104   1.952   1.467   8.491 -1.3187 -0.2350  0.8092
   42CHL1   C27 3105   1.961   1.212   8.386  0.5427 -0.0477  1.0530
   42CHL1  H27A 3106   2.017   1.214   8.482  2.2746 -1.5922  0.1297
   42CHL1  H27B 3107   1.995   1.119   8.334 -0.6006  0.3276 -0.3792
   42CHL1  H27C 3108   1.855   1.203   8.418  0.7280  0.1172  1.7289
   43CHL1    C3 3109   1.905   5.351   6.952 -0.6672 -0.5324 -0.5459
   43CHL1    H3 3110   1.921   5.255   7.004  0.9999 -0.0316 -0.0887
   43CHL1    O3 3111   1.900   5.332   6.811 -0.1602  0.2012  0.3410
   43CHL1   H3' 3112   1.815   5.293   6.788 -0.4089  2.0087 -1.9962
   43CHL1    C4 3113   1.768   5.413   6.990  0.2666 -0.3395 -0.4836
   43CHL1   H4A 3114   1.754   5.512   6.942  3.6259 -0.1045 -1.0770
   43CHL1   H4B 3115   1.685   5.347   6.956  0.4502 -0.6393 -0.3565
   43CHL1    C5 3116   1.757   5.432   7.139  0.6056  0.0906 -0.6451
   43CHL1    C6 3117   1.658   5.379   7.211 -0.4484 -0.4888  0.1174
   43CHL1    H6 3118   1.575   5.328   7.161 -1.2000  0.4904  0.3445
   43CHL1    C7 3119   1.667   5.396   7.360  0.8466 -0.6142 -0.2603
   43CHL1   H7A 3120   1.573   5.416   7.415  1.5346  1.3424  0.2449
   43CHL1   H7B 3121   1.707   5.296   7.388  2.5135  0.7666  2.3874
   43CHL1    C8 3122   1.754   5.505   7.417 -0.9402  0.7448  0.2079
   43CHL1    H8 3123   1.705   5.603   7.398  0.6570  1.2676 -1.3211
   43CHL1   C14 3124   1.776   5.484   7.566 -0.0871 -0.6804 -0.2199
   43CHL1   H14 3125   1.842   5.394   7.568 -0.6588 -1.1013 -0.3314
   43CHL1   C15 3126   1.659   5.444   7.658 -0.2281  0.0013  0.2691
   43CHL1  H15A 3127   1.562   5.496   7.643 -0.6891 -0.6316  0.9341
   43CHL1  H15B 3128   1.639   5.337   7.637 -0.9832  0.4678 -1.4193
   43CHL1   C16 3129   1.715   5.481   7.798  0.2669  0.8322 -0.1133
   43CHL1  H16A 3130   1.643   5.555   7.839 -1.2364 -0.4203 -0.4558
   43CHL1  H16B 3131   1.714   5.394   7.867  2.0296  0.8487 -0.0396
   43CHL1   C17 3132   1.853   5.542   7.781  0.0573  0.4889  0.7768
   43CHL1   H17 3133   1.919   5.453   7.790 -0.4752  0.2051  1.9100
   43CHL1   C13 3134   1.853   5.593   7.632  0.1773 -1.0833  0.2016
   43CHL1   C18 3135   1.775   5.724   7.619  0.0139  0.8579 -0.1728
   43CHL1  H18A 3136   1.806   5.802   7.692  2.2516  2.0580 -2.3431
   43CHL1  H18B 3137   1.769   5.759   7.514 -0.4331 -0.2497 -0.5140
   43CHL1  H18C 3138   1.667   5.707   7.641 -0.2126  1.5240 -0.7487
   43CHL1   C12 3139   1.994   5.607   7.565 -0.2683 -0.0805 -0.3844
   43CHL1  H12A 3140   2.043   5.697   7.608 -1.5128  0.5263 -0.1963
   43CHL1  H12B 3141   2.049   5.517   7.597  0.5417  1.3315  2.3043
   43CHL1   C11 3142   1.982   5.611   7.410  0.1462  0.2235  0.5374
   43CHL1  H11A 3143   1.956   5.717   7.390  1.2587  0.1029 -1.6652
   43CHL1  H11B 3144   2.089   5.598   7.385  0.5481  0.7200  1.9346
   43CHL1    C9 3145   1.888   5.506   7.351  0.8527  0.2214 -0.4342
   43CHL1    H9 3146   1.925   5.404   7.375 -0.7088 -0.2418  0.0064
   43CHL1   C10 3147   1.875   5.514   7.197  0.4029 -0.0095  0.4743
   43CHL1   C19 3148   1.868   5.661   7.152 -0.4830  0.2396  0.5225
   43CHL1  H19A 3149   1.792   5.720   7.208  0.2144  1.4507  0.2052
   43CHL1  H19B 3150   1.967   5.708   7.165  1.0131 -2.1327 -1.8368
   43CHL1  H19C 3151   1.852   5.667   7.042  2.2257 -0.6609  0.0631
   43CHL1    C1 3152   2.006   5.460   7.142  0.8181 -0.9391 -0.0018
   43CHL1   H1A 3153   2.092   5.518   7.182 -1.4881  2.1133  0.7224
   43CHL1   H1B 3154   2.011   5.362   7.194 -0.2825 -0.4699  1.0018
   43CHL1    C2 3155   2.018   5.444   6.985 -0.2811  0.4807 -0.1381
   43CHL1   H2A 3156   2.119   5.402   6.964 -0.4510  0.9724 -1.9853
   43CHL1   H2B 3157   2.014   5.539   6.929 -0.1253  1.5529  1.6419
   43CHL1   C20 3158   1.891   5.638   7.893  0.0469 -0.6276  0.3723
   43CHL1   H20 3159   1.828   5.729   7.894 -1.4845 -1.6801  0.0337
   43CHL1   C21 3160   2.034   5.697   7.876  0.1506 -0.2650  0.2019
   43CHL1  H21A 3161   2.032   5.782   7.804  1.3531 -0.7149 -0.3827
   43CHL1  H21B 3162   2.105   5.616   7.848  1.5522  1.2957 -0.8491
   43CHL1  H21C 3163   2.068   5.736   7.974 -1.4344 -0.7205  0.9534
   43CHL1   C22 3164   1.873   5.573   8.034 -0.3423  0.0567 -0.3519
   43CHL1  H22A 3165   1.860   5.463   8.029  0.4312 -0.0915  0.6290
   43CHL1  H22B 3166   1.965   5.589   8.095 -1.7731  0.7380  1.6574
   43CHL1   C23 3167   1.763   5.648   8.116  0.4050 -0.4173 -0.7929
   43CHL1  H23A 3168   1.778   5.758   8.109  0.1549 -0.1386  2.1466
   43CHL1  H23B 3169   1.671   5.624   8.060 -1.1946 -2.2075  2.4394
   43CHL1   C24 3170   1.752   5.600   8.263 -0.0766  0.4155 -0.0967
   43CHL1  H24A 3171   1.739   5.490   8.276 -0.9497  0.7503  2.0621
   43CHL1  H24B 3172   1.848   5.624   8.313 -0.4396  0.3952  0.6144
   43CHL1   C25 3173   1.642   5.668   8.343  0.5439 -0.0566  0.4996
   43CHL1   H25 3174   1.662   5.777   8.332  1.0054 -0.1668  0.2238
   43CHL1   C26 3175   1.502   5.639   8.289  0.0589  0.1224 -0.5385
   43CHL1  H26A 3176   1.466   5.535   8.301  0.7627 -0.0881 -0.1922
   43CHL1  H26B 3177   1.430   5.716   8.326  0.8987 -0.3437  2.1964
   43CHL1  H26C 3178   1.501   5.656   8.180  1.7705  0.2516 -0.5442
   43CHL1   C27 3179   1.660   5.636   8.492  0.0371  0.0162  0.4950
   43CHL1  H27A 3180   1.649   5.528   8.517  2.2577  0.1063  2.0229
   43CHL1  H27B 3181   1.759   5.673   8.527 -0.6044  0.1926  2.1505
   43CHL1  H27C 3182   1.576   5.686   8.544 -0.7702  0.3885 -1.1428
   44CHL1    C3 3183   1.470   3.886   6.692  0.4035 -0.6683  0.5001
   44CHL1    H3 3184   1.408   3.796   6.670 -0.0272 -0.2433 -0.0442
   44CHL1    O3 3185   1.516   3.942   6.570  0.8719 -0.3192 -0.0256
   44CHL1   H3' 3186   1.589   4.003   6.582 -0.9262  1.6794  0.9344
   44CHL1    C4 3187   1.393   3.997   6.763  0.4073 -0.0060 -0.6368
   44CHL1   H4A 3188   1.454   4.089   6.745  0.0015  0.3332 -0.3064
   44CHL1   H4B 3189   1.295   3.998   6.711 -0.4013 -2.6021  0.7899
   44CHL1    C5 3190   1.370   3.976   6.908  0.1527  0.5195 -0.1081
   44CHL1    C6 3191   1.250   3.976   6.968  0.4298 -0.8285 -0.4019
   44CHL1    H6 3192   1.160   3.994   6.908  0.4186  1.3563  0.2550
   44CHL1    C7 3193   1.225   3.980   7.117  0.0876 -0.5614 -0.6851
   44CHL1   H7A 3194   1.157   4.067   7.136 -0.3120 -0.9770 -0.1965
   44CHL1   H7B 3195   1.174   3.886   7.148 -3.4871  1.4722 -0.0013
   44CHL1    C8 3196   1.352   3.990   7.203  1.0574  0.2420  0.4302
   44CHL1    H8 3197   1.381   4.097   7.211  0.9787  0.3059 -0.1294
   44CHL1   C14 3198   1.324   3.937   7.340  0.7138  0.0439 -0.3581
   44CHL1   H14 3199   1.294   3.831   7.322  1.8173 -0.7670  2.3632
   44CHL1   C15 3200   1.203   3.996   7.413 -0.1530 -0.5159 -1.0818
   44CHL1  H15A 3201   1.191   4.105   7.393  0.8515  0.0974  1.4404
   44CHL1  H15B 3202   1.105   3.957   7.381 -2.0203  2.9978  0.0936
   44CHL1   C16 3203   1.238   3.976   7.561 -0.3279 -0.0360  0.1994
   44CHL1  H16A 3204   1.250   4.070   7.618  1.1067  0.6860 -1.2793
   44CHL1  H16B 3205   1.153   3.918   7.604  0.5876  0.0936  2.2550
   44CHL1   C17 3206   1.359   3.883   7.560 -0.5082 -0.2341  0.3135
   44CHL1   H17 3207   1.327   3.783   7.525  0.4347  0.1550 -1.7322
   44CHL1   C13 3208   1.437   3.934   7.436 -1.1516  0.1943 -0.0185
   44CHL1   C18 3209   1.494   4.077   7.461  0.4249  0.6700 -0.5780
   44CHL1  H18A 3210   1.553   4.113   7.374  1.0391 -0.3169 -0.5725
   44CHL1  H18B 3211   1.430   4.158   7.503 -0.8366 -0.7818  0.3049
   44CHL1  H18C 3212   1.573   4.068   7.538  0.2554 -2.0417 -0.6836
   44CHL1   C12 3213   1.546   3.840   7.377  0.5572  0.5498 -1.1280
   44CHL1  H12A 3214   1.634   3.839   7.445 -0.7512  1.5330  0.6634
   44CHL1  H12B 3215   1.498   3.740   7.374  1.6490 -0.1524  2.4261
   44CHL1   C11 3216   1.582   3.879   7.238 -0.4172 -0.1469 -0.3715
   44CHL1  H11A 3217   1.655   3.964   7.243  1.9516 -2.0645 -1.3335
   44CHL1  H11B 3218   1.641   3.797   7.192 -1.0245 -1.1808  0.6646
   44CHL1    C9 3219   1.461   3.905   7.138 -0.2696 -0.9079  0.1889
   44CHL1    H9 3220   1.421   3.801   7.141  0.3110 -1.1112  1.4660
   44CHL1   C10 3221   1.491   3.946   6.994 -0.1791  0.2859  0.1847
   44CHL1   C19 3222   1.574   4.078   6.995  0.2380 -0.0217 -0.2648
   44CHL1  H19A 3223   1.664   4.051   7.056 -0.0434 -1.4287 -0.4516
   44CHL1  H19B 3224   1.599   4.121   6.896 -1.5177  1.8285  0.0638
   44CHL1  H19C 3225   1.519   4.153   7.056 -0.8502 -0.5169 -0.6339
   44CHL1    C1 3226   1.560   3.829   6.923 -0.4058 -0.1093 -0.0342
   44CHL1   H1A 3227   1.650   3.805   6.984  0.2863  2.6758  0.0892
   44CHL1   H1B 3228   1.492   3.741   6.915 -0.0260 -0.3635 -0.4578
   44CHL1    C2 3229   1.596   3.854   6.781 -0.6316  0.7015 -0.4533
   44CHL1   H2A 3230   1.642   3.769   6.727  1.6825  0.2971  2.0302
   44CHL1   H2B 3231   1.683   3.923   6.784  0.6955 -0.9593 -0.3940
   44CHL1   C20 3232   1.430   3.869   7.699 -0.0350  0.0984  0.8827
   44CHL1   H20 3233   1.539   3.855   7.679  0.1433  1.4174  0.9255
   44CHL1   C21 3234   1.391   3.736   7.751  0.6970  0.2349  0.1685
   44CHL1  H21A 3235   1.437   3.655   7.691 -1.1684 -0.4705 -0.3588
   44CHL1  H21B 3236   1.281   3.721   7.757  0.9410 -1.1699  1.0409
   44CHL1  H21C 3237   1.426   3.718   7.854 -1.9145 -0.8671  0.8870
   44CHL1   C22 3238   1.419   3.983   7.805 -0.3528 -0.4155  0.5579
   44CHL1  H22A 3239   1.465   4.078   7.769 -0.4052 -0.9105 -0.8662
   44CHL1  H22B 3240   1.312   4.010   7.821 -0.0716  0.4882  0.9334
   44CHL1   C23 3241   1.469   3.953   7.948  0.4045 -0.3268  0.3611
   44CHL1  H23A 3242   1.396   3.884   7.995  0.6382  0.5182  2.0218
   44CHL1  H23B 3243   1.572   3.911   7.944  0.1591 -0.7569 -1.8637
   44CHL1   C24 3244   1.477   4.079   8.032 -0.1442 -0.6691 -0.3002
   44CHL1  H24A 3245   1.563   4.135   7.990  1.0682 -1.9476  0.4584
   44CHL1  H24B 3246   1.378   4.126   8.015 -0.1348 -1.6692 -3.4778
   44CHL1   C25 3247   1.507   4.065   8.185  0.6480  0.5415 -0.5691
   44CHL1   H25 3248   1.588   3.991   8.202  0.4144  0.0895 -1.4561
   44CHL1   C26 3249   1.530   4.210   8.225 -0.3294  0.2809 -0.0546
   44CHL1  H26A 3250   1.620   4.239   8.166  0.4247  0.1648  1.0201
   44CHL1  H26B 3251   1.444   4.262   8.177 -0.2442 -0.2871 -0.8262
   44CHL1  H26C 3252   1.533   4.237   8.333 -2.1199 -1.3605  0.4320
   44CHL1   C27 3253   1.386   4.001   8.263  0.1913  0.1351  1.1176
   44CHL1  H27A 3254   1.300   4.065   8.234 -0.4732 -1.6229 -0.8835
   44CHL1  H27B 3255   1.368   3.897   8.230 -1.3420  1.4149 -2.3013
   44CHL1  H27C 3256   1.405   4.011   8.372 -0.2911  1.4982  1.0927
   45CHL1    C3 3257   3.163   2.917   6.923  0.4294  0.8589 -0.4792
   45CHL1    H3 3258   3.096   3.005   6.909  0.5372  1.5153  2.8300
   45CHL1    O3 3259   3.232   2.929   6.801 -0.6060  0.4261  0.2122
   45CHL1   H3' 3260   3.309   2.872   6.803  1.8219  3.5021 -0.2883
   45CHL1    C4 3261   3.265   2.936   7.038 -0.5682 -0.0083  0.0460
   45CHL1   H4A 3262   3.350   2.869   7.015 -1.6227 -0.7787 -1.7336
   45CHL1   H4B 3263   3.304   3.038   7.021  0.8169 -0.1664  2.0983
   45CHL1    C5 3264   3.213   2.904   7.173  0.4821 -0.7471  0.1699
   45CHL1    C6 3265   3.239   2.988   7.279  0.2578  1.2858  0.0987
   45CHL1    H6 3266   3.308   3.073   7.263  1.4958 -0.0026 -1.6052
   45CHL1    C7 3267   3.180   2.966   7.413  0.1905 -0.0433 -0.2530
   45CHL1   H7A 3268   3.262   2.999   7.480  0.6282  2.8079 -2.1121
   45CHL1   H7B 3269   3.095   3.037   7.425  1.0558  0.4661  3.3594
   45CHL1    C8 3270   3.144   2.821   7.437  0.4039  0.1840 -0.4065
   45CHL1    H8 3271   3.242   2.769   7.449 -0.2344 -0.3436  2.8705
   45CHL1   C14 3272   3.072   2.812   7.575  0.7052 -0.4929 -0.7804
   45CHL1   H14 3273   2.984   2.880   7.564 -1.0773 -2.1041  2.6685
   45CHL1   C15 3274   3.148   2.866   7.701  0.1461 -0.6771  0.8749
   45CHL1  H15A 3275   3.238   2.802   7.717  0.6205 -0.0099  0.8780
   45CHL1  H15B 3276   3.180   2.971   7.686  0.7301 -1.1727 -1.6178
   45CHL1   C16 3277   3.047   2.822   7.812 -0.4215 -0.7545 -0.6838
   45CHL1  H16A 3278   3.100   2.785   7.902 -0.1438  0.0563 -0.5131
   45CHL1  H16B 3279   2.979   2.904   7.841 -1.0302 -1.4968 -0.0006
   45CHL1   C17 3280   2.957   2.713   7.751  0.7175  0.0122 -0.4567
   45CHL1   H17 3281   2.856   2.754   7.730  0.5637 -1.2744 -2.3132
   45CHL1   C13 3282   3.012   2.678   7.611  0.3063  0.2532  0.4970
   45CHL1   C18 3283   3.120   2.565   7.618  0.0654  0.0976 -0.5687
   45CHL1  H18A 3284   3.204   2.601   7.681 -0.1098 -2.3928  1.1766
   45CHL1  H18B 3285   3.081   2.480   7.678 -0.7101 -0.1347 -1.3967
   45CHL1  H18C 3286   3.151   2.528   7.518 -1.7755 -0.1772 -1.0630
   45CHL1   C12 3287   2.908   2.640   7.501 -0.2648 -0.1304  0.1757
   45CHL1  H12A 3288   2.886   2.533   7.516 -1.0696  0.1221  0.7768
   45CHL1  H12B 3289   2.813   2.695   7.520 -1.0830 -1.1954 -0.7693
   45CHL1   C11 3290   2.960   2.648   7.354 -0.2223 -0.2330  0.5035
   45CHL1  H11A 3291   3.018   2.556   7.336  1.6855  1.0429 -0.0048
   45CHL1  H11B 3292   2.872   2.636   7.287  0.4326 -0.6105 -0.2997
   45CHL1    C9 3293   3.048   2.771   7.323 -0.1261 -0.2765  0.2039
   45CHL1    H9 3294   2.980   2.857   7.304  0.1487  0.2781  1.6306
   45CHL1   C10 3295   3.129   2.774   7.189  0.1860  0.7928 -0.2874
   45CHL1   C19 3296   3.213   2.646   7.179  0.8790 -0.8382  0.1387
   45CHL1  H19A 3297   3.151   2.554   7.173 -0.5954  0.1578  0.0814
   45CHL1  H19B 3298   3.272   2.654   7.086 -2.7699 -2.1182 -2.3881
   45CHL1  H19C 3299   3.283   2.647   7.266  0.3562 -2.3450  0.6008
   45CHL1    C1 3300   3.030   2.768   7.079  0.7109 -0.9023 -0.3028
   45CHL1   H1A 3301   2.973   2.674   7.093 -1.1820  0.5476  2.2384
   45CHL1   H1B 3302   2.954   2.847   7.098  1.2751 -0.4420  0.0731
   45CHL1    C2 3303   3.087   2.785   6.936  0.0016 -0.1561 -0.6793
   45CHL1   H2A 3304   3.004   2.776   6.862 -1.2694 -1.3695  0.8474
   45CHL1   H2B 3305   3.171   2.715   6.916  1.4579  1.2770  0.3263
   45CHL1   C20 3306   2.913   2.608   7.852  0.2651 -0.6464  0.3568
   45CHL1   H20 3307   2.995   2.538   7.877 -0.1830 -1.1509  0.4264
   45CHL1   C21 3308   2.795   2.529   7.789 -0.5435  0.2992  0.1232
   45CHL1  H21A 3309   2.716   2.602   7.760 -1.9845 -0.6553  1.5529
   45CHL1  H21B 3310   2.748   2.450   7.852  0.2345 -1.8244 -1.8917
   45CHL1  H21C 3311   2.831   2.473   7.700 -0.7680  1.4302 -0.6903
   45CHL1   C22 3312   2.870   2.669   7.984  0.1492 -0.6250  0.3573
   45CHL1  H22A 3313   2.941   2.740   8.031 -1.2729  1.4798 -0.5863
   45CHL1  H22B 3314   2.778   2.729   7.967 -0.4147 -1.5835 -0.0100
   45CHL1   C23 3315   2.838   2.575   8.103 -0.9677 -0.9376  0.0251
   45CHL1  H23A 3316   2.743   2.522   8.077 -2.9608  1.2463  2.5812
   45CHL1  H23B 3317   2.925   2.506   8.106  1.1345  1.7041  2.4715
   45CHL1   C24 3318   2.822   2.658   8.227 -0.7236 -0.1090  0.3274
   45CHL1  H24A 3319   2.916   2.715   8.246 -0.7754 -0.4049  1.5205
   45CHL1  H24B 3320   2.739   2.732   8.218  0.5194  1.5599  2.0970
   45CHL1   C25 3321   2.809   2.590   8.370  0.0679  0.4896 -0.1115
   45CHL1   H25 3322   2.908   2.545   8.393 -1.0912 -1.3665  1.3961
   45CHL1   C26 3323   2.768   2.696   8.471  0.0898  0.3932 -0.4583
   45CHL1  H26A 3324   2.675   2.749   8.439  0.1206  0.1771 -0.9056
   45CHL1  H26B 3325   2.740   2.665   8.574 -0.3517  1.1679 -0.3360
   45CHL1  H26C 3326   2.849   2.767   8.499  1.1489 -1.1254  0.3579
   45CHL1   C27 3327   2.705   2.475   8.353  0.0630 -0.3165  0.0678
   45CHL1  H27A 3328   2.683   2.428   8.452 -0.0660  0.6695  0.5170
   45CHL1  H27B 3329   2.605   2.509   8.317  0.1826  0.7323  0.6993
   45CHL1  H27C 3330   2.737   2.405   8.273  1.4395  1.3373 -0.8578
   46CHL1    C3 3331   2.809   3.710   7.105 -0.0569 -0.0916  0.2969
   46CHL1    H3 3332   2.787   3.601   7.104  1.2664 -0.3767  1.1435
   46CHL1    O3 3333   2.823   3.771   6.978 -0.0808  0.1249  1.0464
   46CHL1   H3' 3334   2.912   3.759   6.945 -0.1886 -1.0562  1.1809
   46CHL1    C4 3335   2.688   3.780   7.182 -0.4801  0.0463  0.2310
   46CHL1   H4A 3336   2.697   3.890   7.188  0.3986 -0.0060 -0.0612
   46CHL1   H4B 3337   2.602   3.757   7.116  0.0131  1.7208 -1.0451
   46CHL1    C5 3338   2.663   3.726   7.319  0.0190  0.4383  0.0524
   46CHL1    C6 3339   2.542   3.687   7.361 -0.0621 -0.0195 -0.3316
   46CHL1    H6 3340   2.458   3.680   7.290  0.0525  0.6148 -0.5309
   46CHL1    C7 3341   2.526   3.631   7.501 -0.0112  0.2769  0.3407
   46CHL1   H7A 3342   2.428   3.655   7.548  0.5354 -0.8751  2.1049
   46CHL1   H7B 3343   2.521   3.520   7.503  0.3874  0.2473 -0.1079
   46CHL1    C8 3344   2.639   3.676   7.601  0.2598  0.4569  0.3896
   46CHL1    H8 3345   2.626   3.782   7.630  0.1537 -0.0582  2.3150
   46CHL1   C14 3346   2.631   3.601   7.736 -0.1997  0.2891 -0.6552
   46CHL1   H14 3347   2.633   3.492   7.712  2.0379 -0.1573  1.2956
   46CHL1   C15 3348   2.498   3.605   7.807  0.4898  0.8355  0.2269
   46CHL1  H15A 3349   2.469   3.712   7.820 -0.6114  0.8151 -1.8440
   46CHL1  H15B 3350   2.413   3.564   7.750 -0.0965  2.3170  0.0075
   46CHL1   C16 3351   2.536   3.548   7.940 -0.2421 -0.1167  0.2270
   46CHL1  H16A 3352   2.501   3.620   8.017 -0.6341 -0.4724  0.3799
   46CHL1  H16B 3353   2.487   3.450   7.959 -1.1425  0.5360  1.3275
   46CHL1   C17 3354   2.689   3.536   7.950 -0.0108 -0.0308 -1.1398
   46CHL1   H17 3355   2.713   3.431   7.924 -1.0836 -0.9711  1.5161
   46CHL1   C13 3356   2.740   3.622   7.831 -1.0655 -0.0787  0.1992
   46CHL1   C18 3357   2.753   3.765   7.877  0.9183 -0.3003  0.0961
   46CHL1  H18A 3358   2.657   3.802   7.917 -0.6915 -1.8019 -2.2767
   46CHL1  H18B 3359   2.831   3.781   7.955  0.3897 -0.5106  0.6727
   46CHL1  H18C 3360   2.776   3.838   7.797 -0.5368  2.2679  1.9699
   46CHL1   C12 3361   2.868   3.562   7.768 -0.0629 -0.2587  0.6666
   46CHL1  H12A 3362   2.959   3.563   7.832 -0.5996 -0.0326  1.4250
   46CHL1  H12B 3363   2.846   3.455   7.746  0.7029 -0.3049  0.1039
   46CHL1   C11 3364   2.898   3.640   7.636  0.1677 -0.1190  0.0714
   46CHL1  H11A 3365   2.929   3.742   7.666  1.0433 -0.5902  0.7878
   46CHL1  H11B 3366   2.994   3.614   7.587  0.0987  1.2333 -0.8147
   46CHL1    C9 3367   2.775   3.642   7.542 -0.4404  0.4836  0.3693
   46CHL1    H9 3368   2.775   3.535   7.511 -1.9307  0.9803 -1.4281
   46CHL1   C10 3369   2.795   3.722   7.407 -0.2956 -0.3501  0.2661
   46CHL1   C19 3370   2.816   3.872   7.435  0.3538 -0.1244  0.5467
   46CHL1  H19A 3371   2.904   3.887   7.500  1.2069 -3.2634  0.2163
   46CHL1  H19B 3372   2.832   3.931   7.342 -0.9734  1.1912  1.1328
   46CHL1  H19C 3373   2.732   3.914   7.495  0.5045 -1.5806  1.8105
   46CHL1    C1 3374   2.914   3.658   7.324  0.1800 -0.4995  1.1548
   46CHL1   H1A 3375   3.015   3.661   7.370  0.4050 -0.6880  0.6807
   46CHL1   H1B 3376   2.890   3.550   7.311  0.2187 -0.5870  1.7902
   46CHL1    C2 3377   2.942   3.711   7.178 -0.4906  0.1550  0.1550
   46CHL1   H2A 3378   3.007   3.639   7.123 -0.8338 -1.1347  1.3880
   46CHL1   H2B 3379   3.002   3.805   7.179  2.3094 -1.4834 -2.9218
   46CHL1   C20 3380   2.735   3.562   8.092 -0.7005 -0.3300 -0.2061
   46CHL1   H20 3381   2.702   3.663   8.123 -0.9108 -0.1574 -0.9883
   46CHL1   C21 3382   2.887   3.564   8.112  0.4508 -0.0895 -1.0011
   46CHL1  H21A 3383   2.932   3.464   8.091  0.1977 -0.9139  2.1273
   46CHL1  H21B 3384   2.910   3.591   8.217 -0.0224 -0.9421 -0.6683
   46CHL1  H21C 3385   2.937   3.645   8.055 -0.8890  1.4733  0.0088
   46CHL1   C22 3386   2.674   3.467   8.201 -0.5879 -0.9518 -0.5371
   46CHL1  H22A 3387   2.593   3.402   8.161  0.8921 -1.5159 -2.7087
   46CHL1  H22B 3388   2.761   3.406   8.236  1.0590  1.3548 -0.5381
   46CHL1   C23 3389   2.614   3.543   8.325 -0.4440  0.4053 -0.0091
   46CHL1  H23A 3390   2.695   3.605   8.369  0.6981 -1.9664  1.3656
   46CHL1  H23B 3391   2.537   3.608   8.279  1.4070  2.4503 -0.2943
   46CHL1   C24 3392   2.557   3.447   8.429  0.1920  0.1559  0.7339
   46CHL1  H24A 3393   2.501   3.361   8.387  0.6861  0.1623  0.0503
   46CHL1  H24B 3394   2.642   3.411   8.490  0.7641  1.3983  0.7055
   46CHL1   C25 3395   2.455   3.513   8.526 -0.2497  0.0582  0.3303
   46CHL1   H25 3396   2.364   3.529   8.466  0.7535  1.9300 -0.7373
   46CHL1   C26 3397   2.416   3.395   8.616 -0.7694 -0.1803  0.0098
   46CHL1  H26A 3398   2.506   3.357   8.668  0.8307  2.2679 -0.8816
   46CHL1  H26B 3399   2.349   3.421   8.701 -2.3647 -0.3953 -1.1625
   46CHL1  H26C 3400   2.369   3.311   8.560  0.3900 -1.5188  1.0020
   46CHL1   C27 3401   2.508   3.639   8.610 -0.3957 -0.1582  0.0793
   46CHL1  H27A 3402   2.610   3.620   8.650 -0.4355  0.3044  0.4025
   46CHL1  H27B 3403   2.507   3.723   8.538 -2.0672 -0.1043  0.1514
   46CHL1  H27C 3404   2.445   3.667   8.697  0.4631  3.3439 -0.3645
   47CHL1    C3 3405   2.067   3.592   6.670 -0.3487 -0.6113 -0.0476
   47CHL1    H3 3406   2.079   3.702   6.679  1.3849 -0.6448 -1.6904
   47CHL1    O3 3407   2.086   3.559   6.531 -0.5918  0.1196 -0.7645
   47CHL1   H3' 3408   2.046   3.472   6.526  2.4773 -1.3649 -0.5477
   47CHL1    C4 3409   2.165   3.528   6.769 -0.8193  0.3077 -0.6184
   47CHL1   H4A 3410   2.168   3.418   6.755  1.6815 -0.0496  2.2381
   47CHL1   H4B 3411   2.271   3.554   6.745 -0.4974 -1.2604 -0.9377
   47CHL1    C5 3412   2.133   3.563   6.917 -0.0052 -0.5603  0.4596
   47CHL1    C6 3413   2.217   3.623   7.001  0.5689 -0.2318 -0.4468
   47CHL1    H6 3414   2.318   3.650   6.969  0.4824 -0.1583 -0.6613
   47CHL1    C7 3415   2.183   3.650   7.146  0.5477 -0.1515 -0.2945
   47CHL1   H7A 3416   2.277   3.629   7.201  2.9726  0.7437 -3.9311
   47CHL1   H7B 3417   2.153   3.756   7.166  1.4428 -0.2081  1.4867
   47CHL1    C8 3418   2.057   3.572   7.191 -0.3288 -0.6429 -0.0770
   47CHL1    H8 3419   2.097   3.469   7.195  1.2206 -0.0487  0.0411
   47CHL1   C14 3420   2.005   3.621   7.323 -0.2850  0.4388  0.2719
   47CHL1   H14 3421   1.959   3.721   7.308 -2.2677 -0.3466  0.8671
   47CHL1   C15 3422   2.117   3.646   7.427 -0.2317 -0.3333 -0.7068
   47CHL1  H15A 3423   2.190   3.564   7.412 -0.0466 -0.2164 -0.4501
   47CHL1  H15B 3424   2.170   3.743   7.415 -0.0055 -0.3033  0.4805
   47CHL1   C16 3425   2.032   3.646   7.556  0.1755 -0.3994  0.5459
   47CHL1  H16A 3426   2.080   3.560   7.608  2.8389  0.0228 -1.1389
   47CHL1  H16B 3427   2.039   3.743   7.610 -3.1286  1.0542 -1.4510
   47CHL1   C17 3428   1.884   3.616   7.518  0.2000 -0.1716  0.7055
   47CHL1   H17 3429   1.841   3.715   7.491 -1.0121 -0.1789  2.5569
   47CHL1   C13 3430   1.894   3.544   7.382 -0.8023  0.6598 -0.3790
   47CHL1   C18 3431   1.927   3.388   7.398  0.8095  0.3682 -0.2919
   47CHL1  H18A 3432   2.025   3.374   7.449  1.8664  0.2614 -2.3225
   47CHL1  H18B 3433   1.847   3.337   7.456  1.8508 -1.5183 -0.4526
   47CHL1  H18C 3434   1.932   3.339   7.298  0.2008  3.6987 -2.0110
   47CHL1   C12 3435   1.769   3.560   7.286  0.0903  0.6685  0.0123
   47CHL1  H12A 3436   1.680   3.505   7.321  0.7491  0.6730  1.7439
   47CHL1  H12B 3437   1.745   3.668   7.298  1.2775  1.0841 -1.1369
   47CHL1   C11 3438   1.805   3.523   7.142 -0.6297 -0.6094  0.6989
   47CHL1  H11A 3439   1.817   3.413   7.151  1.7834 -0.5665 -1.5869
   47CHL1  H11B 3440   1.726   3.558   7.072  0.0031 -0.6490 -0.0365
   47CHL1    C9 3441   1.949   3.582   7.089  0.2358  0.2031 -0.1840
   47CHL1    H9 3442   1.928   3.691   7.076  0.7069  0.4286  0.9068
   47CHL1   C10 3443   1.990   3.521   6.953  0.0922  0.3482 -0.6322
   47CHL1   C19 3444   1.987   3.361   6.961 -0.1074  0.5580  0.2631
   47CHL1  H19A 3445   2.054   3.319   7.039 -1.6056 -0.4417  1.0284
   47CHL1  H19B 3446   1.886   3.316   6.974  1.4237 -3.0899  0.1080
   47CHL1  H19C 3447   2.017   3.315   6.864  2.6657  1.7988  0.4808
   47CHL1    C1 3448   1.890   3.577   6.845  0.2505 -0.1002  0.1366
   47CHL1   H1A 3449   1.786   3.543   6.860  0.0078 -0.4475 -2.0608
   47CHL1   H1B 3450   1.890   3.687   6.863  1.0930 -0.0953  0.1164
   47CHL1    C2 3451   1.925   3.543   6.703 -0.1767 -0.8102 -0.4200
   47CHL1   H2A 3452   1.853   3.596   6.637 -0.5290  1.6002  1.8348
   47CHL1   H2B 3453   1.914   3.435   6.681 -1.2298 -1.0002  1.0116
   47CHL1   C20 3454   1.810   3.550   7.632 -0.1064  0.3608  0.1018
   47CHL1   H20 3455   1.867   3.458   7.654  0.3364  0.7762  0.7006
   47CHL1   C21 3456   1.670   3.504   7.599  0.3320 -0.4283  0.6656
   47CHL1  H21A 3457   1.633   3.448   7.687  1.7392 -0.4820  1.2376
   47CHL1  H21B 3458   1.678   3.436   7.512 -0.3124 -2.9197  2.5250
   47CHL1  H21C 3459   1.601   3.590   7.586  0.6003 -0.1656  0.9674
   47CHL1   C22 3460   1.820   3.629   7.762  0.6085  0.1624 -0.1360
   47CHL1  H22A 3461   1.927   3.628   7.793  0.6152  0.9438 -0.1311
   47CHL1  H22B 3462   1.797   3.737   7.761  1.6065  0.5070  4.0066
   47CHL1   C23 3463   1.736   3.566   7.868  0.3383  0.3453  0.0128
   47CHL1  H23A 3464   1.627   3.580   7.851 -0.0544 -3.2590 -0.8111
   47CHL1  H23B 3465   1.758   3.458   7.883 -1.6850 -0.1457 -0.4376
   47CHL1   C24 3466   1.770   3.636   8.004  0.3659 -0.1148 -0.3386
   47CHL1  H24A 3467   1.879   3.623   8.015  0.5389  1.7652  0.3828
   47CHL1  H24B 3468   1.752   3.744   7.984 -0.1259 -0.1866 -0.3040
   47CHL1   C25 3469   1.693   3.585   8.133  0.2771 -0.3076  0.3391
   47CHL1   H25 3470   1.593   3.543   8.105  0.0810  0.9807 -0.9734
   47CHL1   C26 3471   1.776   3.475   8.205 -0.0704  0.5205 -0.3769
   47CHL1  H26A 3472   1.876   3.519   8.222  0.8827 -1.4846 -0.5708
   47CHL1  H26B 3473   1.725   3.444   8.299 -0.3745 -0.0448 -0.7231
   47CHL1  H26C 3474   1.801   3.389   8.139 -1.6741 -1.1325  1.1198
   47CHL1   C27 3475   1.679   3.698   8.233  0.1245 -0.9420  0.0488
   47CHL1  H27A 3476   1.632   3.674   8.331  0.5269 -0.2769  0.4078
   47CHL1  H27B 3477   1.781   3.738   8.252 -1.0486  1.8139  0.8487
   47CHL1  H27C 3478   1.638   3.787   8.181  2.5659  0.5725  0.6659
   48CHL1    C3 3479   5.555   5.687   6.309 -0.0386 -0.2240  0.2236
   48CHL1    H3 3480   5.552   5.578   6.332  0.8742  0.2324  2.5348
   48CHL1    O3 3481   5.586   5.705   6.168  0.1740  0.3048  0.2466
   48CHL1   H3' 3482   5.620   5.623   6.133 -0.7577 -0.5469  1.2878
   48CHL1    C4 3483   5.423   5.755   6.349 -0.1098 -0.1703  0.4488
   48CHL1   H4A 3484   5.430   5.862   6.321 -0.1876 -0.2383  0.1646
   48CHL1   H4B 3485   5.334   5.725   6.289  0.7632 -2.3173  0.1835
   48CHL1    C5 3486   5.390   5.749   6.496  0.2472 -0.0367  0.3570
   48CHL1    C6 3487   5.271   5.701   6.544  0.2279  0.3133 -0.0551
   48CHL1    H6 3488   5.195   5.664   6.474 -1.4013  0.6681  1.4808
   48CHL1    C7 3489   5.224   5.693   6.686  0.0185 -0.3182  0.0379
   48CHL1   H7A 3490   5.128   5.749   6.694  0.0622 -0.2318 -0.0481
   48CHL1   H7B 3491   5.213   5.587   6.717 -0.1582 -0.5722 -0.8850
   48CHL1    C8 3492   5.328   5.762   6.778 -0.2414 -0.0038 -0.2980
   48CHL1    H8 3493   5.303   5.870   6.788 -0.2867 -0.0949  0.6798
   48CHL1   C14 3494   5.310   5.708   6.925 -1.2335  0.3780  0.1696
   48CHL1   H14 3495   5.349   5.605   6.916 -0.4544  0.5458  1.5743
   48CHL1   C15 3496   5.175   5.687   6.990  1.2916  0.2826  0.0272
   48CHL1  H15A 3497   5.120   5.784   6.986 -0.9011 -0.8592  1.7228
   48CHL1  H15B 3498   5.119   5.606   6.938  2.6397 -0.4203 -0.3363
   48CHL1   C16 3499   5.212   5.658   7.137  0.4381  0.5787  0.6318
   48CHL1  H16A 3500   5.144   5.726   7.192 -1.0080  0.7086 -1.2897
   48CHL1  H16B 3501   5.175   5.558   7.168  0.3589  0.6439  0.7509
   48CHL1   C17 3502   5.362   5.692   7.155 -0.8374  0.3973  0.3257
   48CHL1   H17 3503   5.417   5.595   7.147 -1.6261  0.1166 -2.2258
   48CHL1   C13 3504   5.403   5.772   7.028  0.3796 -0.3701  0.4478
   48CHL1   C18 3505   5.369   5.925   7.047 -0.4674  0.2012 -0.2593
   48CHL1  H18A 3506   5.274   5.933   7.103 -0.5571  1.1036 -0.5295
   48CHL1  H18B 3507   5.447   5.977   7.107  0.0995  1.6830 -2.2433
   48CHL1  H18C 3508   5.363   5.982   6.952  0.2905 -1.1245 -1.1165
   48CHL1   C12 3509   5.547   5.749   6.979 -0.3062 -0.1766 -0.9490
   48CHL1  H12A 3510   5.630   5.801   7.031  0.1918 -0.7010 -1.2256
   48CHL1  H12B 3511   5.573   5.641   6.979 -1.0351 -0.3770  0.6748
   48CHL1   C11 3512   5.568   5.797   6.841 -0.3856 -0.2324  0.1837
   48CHL1  H11A 3513   5.557   5.907   6.851 -1.2666 -0.4672  1.9564
   48CHL1  H11B 3514   5.673   5.776   6.812 -0.5831 -0.8636 -0.0931
   48CHL1    C9 3515   5.475   5.749   6.734 -0.5070 -0.3026  0.9571
   48CHL1    H9 3516   5.482   5.638   6.728  0.4776 -0.1002 -2.1520
   48CHL1   C10 3517   5.504   5.791   6.588  0.3257 -0.4091 -0.8217
   48CHL1   C19 3518   5.501   5.947   6.584 -0.4109 -0.1889  0.7927
   48CHL1  H19A 3519   5.577   6.005   6.641  1.6833  1.3341 -3.3197
   48CHL1  H19B 3520   5.517   5.985   6.481 -0.8163 -2.5304 -0.1607
   48CHL1  H19C 3521   5.401   5.985   6.614 -0.6700  0.5445 -0.9287
   48CHL1    C1 3522   5.643   5.732   6.544 -0.4203 -0.6331  0.3776
   48CHL1   H1A 3523   5.723   5.786   6.598  0.7758 -1.8058 -0.2062
   48CHL1   H1B 3524   5.657   5.627   6.575 -2.5882 -0.3536  2.4276
   48CHL1    C2 3525   5.669   5.737   6.392 -0.0736 -0.2874  0.6903
   48CHL1   H2A 3526   5.762   5.679   6.375 -0.3345 -0.5040 -0.0310
   48CHL1   H2B 3527   5.674   5.844   6.362 -3.3479 -0.5984 -1.1936
   48CHL1   C20 3528   5.391   5.744   7.296  1.1046 -0.1542 -0.0209
   48CHL1   H20 3529   5.348   5.847   7.303  2.1650  0.5924 -3.3170
   48CHL1   C21 3530   5.543   5.759   7.310  0.5535  0.8903 -0.0087
   48CHL1  H21A 3531   5.600   5.664   7.304  2.8257  2.3163 -1.6247
   48CHL1  H21B 3532   5.564   5.801   7.411 -0.1761  0.0420  0.5037
   48CHL1  H21C 3533   5.588   5.831   7.239 -0.1394  1.6889  0.3556
   48CHL1   C22 3534   5.348   5.646   7.401 -0.2098 -1.0241 -0.4983
   48CHL1  H22A 3535   5.238   5.628   7.391 -0.7520  1.7151  0.2587
   48CHL1  H22B 3536   5.380   5.540   7.387  0.4651 -0.8993  0.0921
   48CHL1   C23 3537   5.383   5.697   7.541 -0.2150 -1.1168  0.0726
   48CHL1  H23A 3538   5.487   5.669   7.570 -0.2121 -0.3766  0.7911
   48CHL1  H23B 3539   5.377   5.808   7.539  0.8563 -0.9741  2.5799
   48CHL1   C24 3540   5.297   5.622   7.642  0.4436  0.1234  0.5219
   48CHL1  H24A 3541   5.186   5.626   7.638  0.3381 -1.6537  1.2777
   48CHL1  H24B 3542   5.322   5.514   7.637 -4.1030 -1.1136  2.0831
   48CHL1   C25 3543   5.338   5.676   7.781 -0.2700 -0.7492  0.7982
   48CHL1   H25 3544   5.449   5.663   7.782 -0.0570  0.9267  0.5899
   48CHL1   C26 3545   5.301   5.828   7.793 -0.0952  0.0161 -0.0460
   48CHL1  H26A 3546   5.195   5.838   7.759  0.1695  1.7537 -0.3829
   48CHL1  H26B 3547   5.316   5.873   7.894  0.8256 -0.1791 -0.0990
   48CHL1  H26C 3548   5.354   5.887   7.716  0.0050  0.7036  0.5493
   48CHL1   C27 3549   5.262   5.602   7.889 -0.1013  0.3469  0.6150
   48CHL1  H27A 3550   5.152   5.619   7.889 -0.1215  0.2517  1.7516
   48CHL1  H27B 3551   5.270   5.492   7.875 -0.6890  0.4362 -0.4812
   48CHL1  H27C 3552   5.295   5.639   7.988  0.6908  1.5256 -0.0789
   49CHL1    C3 3553   3.889   0.285   6.728  0.2783  0.1155  0.7411
   49CHL1    H3 3554   3.889   0.175   6.710  0.7014  0.2889 -0.4127
   49CHL1    O3 3555   3.853   0.353   6.607 -0.0185 -0.1043  0.6022
   49CHL1   H3' 3556   3.849   0.447   6.626 -0.3714 -0.2039  1.0181
   49CHL1    C4 3557   3.777   0.309   6.827  0.0613  0.1459  0.1071
   49CHL1   H4A 3558   3.764   0.418   6.846 -0.5843  0.2661 -0.9568
   49CHL1   H4B 3559   3.681   0.273   6.784 -1.0651  1.8473  1.1506
   49CHL1    C5 3560   3.813   0.242   6.957  0.6741 -0.0568 -0.7448
   49CHL1    C6 3561   3.718   0.170   7.023  0.1187 -0.4854  0.2567
   49CHL1    H6 3562   3.615   0.162   6.985  0.8096 -1.6941 -1.4324
   49CHL1    C7 3563   3.735   0.124   7.161 -0.0189  1.0974 -0.1999
   49CHL1   H7A 3564   3.652   0.162   7.224  0.4810  2.4010 -0.3220
   49CHL1   H7B 3565   3.732   0.013   7.169  2.4885  1.0636  0.6615
   49CHL1    C8 3566   3.858   0.173   7.232  0.4815 -0.4162  0.3373
   49CHL1    H8 3567   3.817   0.271   7.263 -0.6367 -0.7451 -0.0584
   49CHL1   C14 3568   3.885   0.092   7.358 -0.4981  0.7125  0.6754
   49CHL1   H14 3569   3.914  -0.010   7.326  0.1553  0.2371  2.7023
   49CHL1   C15 3570   3.769   0.083   7.459  0.1811 -0.0458  0.2423
   49CHL1  H15A 3571   3.713   0.179   7.469  1.5184  1.0254 -2.0515
   49CHL1  H15B 3572   3.688   0.017   7.420 -0.0890  1.1005 -1.2177
   49CHL1   C16 3573   3.840   0.042   7.593 -0.6940  0.0891  0.7537
   49CHL1  H16A 3574   3.833   0.118   7.675  0.5049 -0.3033  1.2173
   49CHL1  H16B 3575   3.808  -0.055   7.636  0.2652  0.0729  1.4231
   49CHL1   C17 3576   3.999   0.043   7.553 -0.2008  0.6475 -0.3472
   49CHL1   H17 3577   4.010  -0.056   7.503 -3.0223  0.3392 -0.4646
   49CHL1   C13 3578   4.004   0.142   7.436 -0.3239  0.6393  0.8869
   49CHL1   C18 3579   3.989   0.282   7.502 -0.3533 -0.1735  0.1673
   49CHL1  H18A 3580   4.075   0.307   7.567 -2.0939  0.5255  2.2596
   49CHL1  H18B 3581   3.972   0.358   7.422 -0.0123  0.4323  0.6680
   49CHL1  H18C 3582   3.905   0.293   7.574  0.7772  1.4517  1.2784
   49CHL1   C12 3583   4.123   0.136   7.341  0.2512 -1.1303  0.1940
   49CHL1  H12A 3584   4.210   0.168   7.403 -1.3026  2.4520  0.6781
   49CHL1  H12B 3585   4.149   0.030   7.323  1.0963 -0.9985  0.5814
   49CHL1   C11 3586   4.113   0.219   7.219  0.1466 -0.0322 -0.1579
   49CHL1  H11A 3587   4.114   0.324   7.257  0.1292  0.0178 -0.2953
   49CHL1  H11B 3588   4.199   0.209   7.149  0.8980 -0.9047  0.8765
   49CHL1    C9 3589   3.980   0.186   7.141 -0.3520 -0.0518  0.7756
   49CHL1    H9 3590   3.994   0.083   7.101 -1.4916  0.1469 -0.1435
   49CHL1   C10 3591   3.947   0.281   7.022  0.6181 -0.3643  0.0471
   49CHL1   C19 3592   3.945   0.426   7.072 -0.1412  1.6270 -0.0094
   49CHL1  H19A 3593   3.851   0.447   7.128 -1.3292 -0.3041 -1.2062
   49CHL1  H19B 3594   4.031   0.443   7.140  1.7014 -0.1561 -1.8306
   49CHL1  H19C 3595   3.947   0.496   6.986 -0.8371 -1.9753 -3.0896
   49CHL1    C1 3596   4.058   0.263   6.908  0.2864  0.6324 -0.6750
   49CHL1   H1A 3597   4.152   0.297   6.955  0.2757  0.9723 -0.9016
   49CHL1   H1B 3598   4.068   0.155   6.883  0.2720  0.7200 -1.0730
   49CHL1    C2 3599   4.023   0.343   6.781 -0.4668  0.4640  0.2360
   49CHL1   H2A 3600   4.107   0.324   6.712  1.4705 -0.2912  2.7633
   49CHL1   H2B 3601   4.015   0.453   6.793  0.8577  0.4836  0.9312
   49CHL1   C20 3602   4.109   0.044   7.665  0.4452  0.6233  0.9429
   49CHL1   H20 3603   4.128   0.151   7.688 -0.4146  1.1617 -0.7047
   49CHL1   C21 3604   4.229  -0.028   7.613  0.1691 -0.7445 -0.2496
   49CHL1  H21A 3605   4.205  -0.101   7.533  0.7536 -1.0030 -0.1890
   49CHL1  H21B 3606   4.284  -0.070   7.700 -0.7078  1.3335  1.3670
   49CHL1  H21C 3607   4.297   0.042   7.561 -0.2747  0.8700  1.2896
   49CHL1   C22 3608   4.069  -0.026   7.792  0.6224 -0.0147 -0.1729
   49CHL1  H22A 3609   3.970   0.013   7.823  0.1460  0.1347 -1.8874
   49CHL1  H22B 3610   4.047  -0.133   7.770 -0.0810 -0.3254  1.9308
   49CHL1   C23 3611   4.137   0.016   7.927  0.3953 -0.0816 -0.2823
   49CHL1  H23A 3612   4.247   0.014   7.913  0.5174  0.4158  0.5762
   49CHL1  H23B 3613   4.110   0.120   7.956 -1.9283 -1.3225  2.2947
   49CHL1   C24 3614   4.115  -0.084   8.047  0.2890 -0.3560  0.7792
   49CHL1  H24A 3615   4.010  -0.072   8.083 -0.4446  0.7043 -1.5719
   49CHL1  H24B 3616   4.109  -0.190   8.015  2.7362 -0.5189  0.7664
   49CHL1   C25 3617   4.223  -0.057   8.153 -0.4765  0.2238 -0.2543
   49CHL1   H25 3618   4.233   0.052   8.167 -1.6761  0.1745  1.1665
   49CHL1   C26 3619   4.176  -0.101   8.295 -1.5218 -0.0496  0.5342
   49CHL1  H26A 3620   4.173  -0.211   8.281  0.6581  0.0584 -1.0379
   49CHL1  H26B 3621   4.245  -0.069   8.377 -0.1894 -1.8447  0.1480
   49CHL1  H26C 3622   4.078  -0.053   8.312 -1.4527  0.3469 -0.1831
   49CHL1   C27 3623   4.356  -0.127   8.130 -0.3223 -0.1225  1.1490
   49CHL1  H27A 3624   4.345  -0.234   8.157 -1.4642 -1.2576 -3.4101
   49CHL1  H27B 3625   4.375  -0.134   8.021  0.6777 -0.4120  1.3298
   49CHL1  H27C 3626   4.442  -0.069   8.171 -1.0553  1.4241  0.5271
   50CHL1    C3 3627   5.230   1.426   6.839 -0.0281  0.1568 -0.1195
   50CHL1    H3 3628   5.340   1.414   6.852  0.2096  0.8495 -1.4476
   50CHL1    O3 3629   5.199   1.416   6.703  0.3557  0.3837 -0.1364
   50CHL1   H3' 3630   5.237   1.498   6.672  0.9266  0.6102  1.1042
   50CHL1    C4 3631   5.151   1.314   6.907 -0.3212 -0.1371 -0.8565
   50CHL1   H4A 3632   5.046   1.316   6.873 -1.9401  1.1423  3.7918
   50CHL1   H4B 3633   5.194   1.217   6.874  2.1782  0.5875  0.1002
   50CHL1    C5 3634   5.156   1.317   7.059  0.1763  0.4119 -0.3029
   50CHL1    C6 3635   5.189   1.214   7.143  0.2879 -0.4607 -0.1252
   50CHL1    H6 3636   5.200   1.111   7.105 -0.3030 -0.2002 -1.0316
   50CHL1    C7 3637   5.181   1.223   7.292  0.2047 -0.7518 -0.2856
   50CHL1   H7A 3638   5.139   1.131   7.339 -3.9035  0.6528 -1.0169
   50CHL1   H7B 3639   5.284   1.238   7.329 -0.1524 -1.2102  0.9250
   50CHL1    C8 3640   5.098   1.342   7.339  0.4711  0.9518 -0.1292
   50CHL1    H8 3641   4.993   1.316   7.313 -0.1816  2.0762  1.3386
   50CHL1   C14 3642   5.120   1.363   7.490 -0.0225  0.0438  0.2889
   50CHL1   H14 3643   5.226   1.398   7.492  0.0112  0.3650 -3.2991
   50CHL1   C15 3644   5.107   1.245   7.592 -0.7281 -0.5767 -0.0867
   50CHL1  H15A 3645   5.009   1.198   7.571 -0.6937 -1.2560  1.1935
   50CHL1  H15B 3646   5.185   1.166   7.582 -0.8879 -0.7441 -0.0334
   50CHL1   C16 3647   5.098   1.315   7.730  0.3091 -0.1523 -0.4187
   50CHL1  H16A 3648   5.016   1.274   7.793  1.4884  0.2778  1.4360
   50CHL1  H16B 3649   5.195   1.304   7.784  0.9190  0.6494 -1.3358
   50CHL1   C17 3650   5.086   1.466   7.700 -0.4211  0.9766 -0.1046
   50CHL1   H17 3651   5.189   1.505   7.714 -0.0543  0.0111 -0.0194
   50CHL1   C13 3652   5.043   1.476   7.551 -0.1466  0.2651 -0.1064
   50CHL1   C18 3653   4.893   1.445   7.532  0.6303  0.4209 -0.2165
   50CHL1  H18A 3654   4.864   1.459   7.426  1.5029 -0.6039 -0.5983
   50CHL1  H18B 3655   4.869   1.341   7.562  0.5617  0.9402  1.6092
   50CHL1  H18C 3656   4.827   1.516   7.587 -0.5937 -1.0617  0.2769
   50CHL1   C12 3657   5.086   1.603   7.483 -0.7442 -0.5115  0.7913
   50CHL1  H12A 3658   5.006   1.674   7.515 -1.5841  0.4867 -3.2535
   50CHL1  H12B 3659   5.187   1.634   7.516 -2.2485  1.1181  4.0488
   50CHL1   C11 3660   5.068   1.598   7.332 -0.7878 -0.1511 -0.4495
   50CHL1  H11A 3661   4.959   1.603   7.311 -0.2601 -1.2561 -3.7600
   50CHL1  H11B 3662   5.119   1.685   7.286  1.0437  0.3996  2.4740
   50CHL1    C9 3663   5.136   1.469   7.264  0.5004  0.1523 -0.3319
   50CHL1    H9 3664   5.246   1.481   7.271  0.6348 -1.7515  1.3206
   50CHL1   C10 3665   5.120   1.452   7.113 -0.0439  0.2244  0.3832
   50CHL1   C19 3666   4.971   1.492   7.080 -0.4898  0.3401 -0.3048
   50CHL1  H19A 3667   4.956   1.476   6.971 -0.1360 -1.3383 -0.1342
   50CHL1  H19B 3668   4.898   1.427   7.133  1.1100 -0.0050  1.5252
   50CHL1  H19C 3669   4.949   1.600   7.088 -2.9851 -0.2247  0.9218
   50CHL1    C1 3670   5.218   1.563   7.049  0.6827 -0.7001  0.5700
   50CHL1   H1A 3671   5.188   1.664   7.085 -1.3654 -1.3578  0.7823
   50CHL1   H1B 3672   5.323   1.551   7.082  0.8053 -0.8431  0.1380
   50CHL1    C2 3673   5.211   1.561   6.892  0.5449 -0.4003  0.5561
   50CHL1   H2A 3674   5.279   1.640   6.854 -0.7527  0.9751  1.0641
   50CHL1   H2B 3675   5.111   1.602   6.865  0.3573 -1.2649 -0.0793
   50CHL1   C20 3676   5.013   1.540   7.818 -0.7617 -0.2080 -0.4478
   50CHL1   H20 3677   4.913   1.491   7.818 -0.6015 -0.5383 -1.1377
   50CHL1   C21 3678   4.985   1.687   7.778 -0.0948 -0.2018  0.1728
   50CHL1  H21A 3679   5.072   1.734   7.728 -0.0577 -2.6082 -2.1453
   50CHL1  H21B 3680   4.971   1.747   7.871 -0.3343 -0.7221  0.4772
   50CHL1  H21C 3681   4.887   1.689   7.726 -0.3949 -2.5002  0.5863
   50CHL1   C22 3682   5.080   1.527   7.958  0.0034  0.6152 -0.3359
   50CHL1  H22A 3683   5.146   1.438   7.957 -0.7999  0.0168 -1.0385
   50CHL1  H22B 3684   5.155   1.606   7.982  1.3271 -1.3686  2.2321
   50CHL1   C23 3685   4.987   1.517   8.078 -0.2319  0.5510  0.8282
   50CHL1  H23A 3686   4.907   1.591   8.055  0.1883  0.7902  0.1171
   50CHL1  H23B 3687   4.944   1.415   8.089 -0.1235  0.6206  1.9040
   50CHL1   C24 3688   5.048   1.570   8.212 -0.1061 -0.1677  0.3079
   50CHL1  H24A 3689   5.122   1.493   8.243  3.2125  1.6033 -2.8366
   50CHL1  H24B 3690   5.106   1.663   8.198 -0.3502  0.2003  1.7251
   50CHL1   C25 3691   4.945   1.613   8.316  0.1269 -0.1669  0.5935
   50CHL1   H25 3692   4.878   1.689   8.271  0.2387  1.8798  3.7369
   50CHL1   C26 3693   4.859   1.495   8.360  0.0818 -0.4715 -0.2514
   50CHL1  H26A 3694   4.794   1.454   8.279 -0.0244 -2.2838  0.7338
   50CHL1  H26B 3695   4.931   1.413   8.380  0.9963 -0.3117 -2.7152
   50CHL1  H26C 3696   4.795   1.512   8.449 -0.6943  1.1892 -1.1103
   50CHL1   C27 3697   5.010   1.681   8.442 -0.2899  0.0938 -0.4768
   50CHL1  H27A 3698   4.929   1.706   8.513 -0.7418 -0.5159 -0.7796
   50CHL1  H27B 3699   5.079   1.602   8.480 -1.8688 -1.9242 -1.7212
   50CHL1  H27C 3700   5.065   1.773   8.413 -0.9972  0.7748  0.3173
   51CHL1    C3 3701   4.549   0.592   6.917 -0.7241 -0.0796 -0.3068
   51CHL1    H3 3702   4.489   0.659   6.982  2.2158  1.2158  1.1462
   51CHL1    O3 3703   4.548   0.643   6.780 -0.1984 -0.3402 -0.5815
   51CHL1   H3' 3704   4.603   0.721   6.769 -1.4725  0.6821  0.0906
   51CHL1    C4 3705   4.696   0.571   6.960 -0.3244 -0.2431  0.9752
   51CHL1   H4A 3706   4.736   0.503   6.883 -1.5366 -0.4665  0.5293
   51CHL1   H4B 3707   4.749   0.666   6.938 -0.1683 -0.1144  1.8824
   51CHL1    C5 3708   4.706   0.524   7.105 -0.9850  0.1604 -0.4415
   51CHL1    C6 3709   4.769   0.600   7.194 -0.5767  0.3107 -0.0659
   51CHL1    H6 3710   4.825   0.690   7.166 -0.9431  0.9740  1.2626
   51CHL1    C7 3711   4.779   0.556   7.335 -0.1741 -0.1034  0.0504
   51CHL1   H7A 3712   4.881   0.561   7.379  0.4350 -0.0773 -1.3113
   51CHL1   H7B 3713   4.718   0.625   7.396  0.6555 -0.1169  0.9050
   51CHL1    C8 3714   4.740   0.416   7.376  0.4916 -0.2934  0.9780
   51CHL1    H8 3715   4.815   0.345   7.337 -0.6545 -0.8327 -0.2790
   51CHL1   C14 3716   4.722   0.389   7.526  0.1295 -0.0744  0.1983
   51CHL1   H14 3717   4.644   0.460   7.559 -0.5307 -1.6488  2.0782
   51CHL1   C15 3718   4.836   0.437   7.615  0.3438 -0.0337  0.4364
   51CHL1  H15A 3719   4.928   0.406   7.562  0.7682  2.6595 -0.4944
   51CHL1  H15B 3720   4.836   0.548   7.604  0.8569 -0.2027 -1.5933
   51CHL1   C16 3721   4.794   0.376   7.753  0.3859  0.3472 -0.1353
   51CHL1  H16A 3722   4.875   0.322   7.808  0.8193 -0.0316 -1.1406
   51CHL1  H16B 3723   4.730   0.447   7.810 -0.9201  0.3110 -1.5321
   51CHL1   C17 3724   4.684   0.259   7.714  0.7872 -0.7298 -0.5260
   51CHL1   H17 3725   4.586   0.307   7.735 -0.1135 -1.6608 -2.4338
   51CHL1   C13 3726   4.685   0.245   7.560 -0.3336  0.5454 -0.1299
   51CHL1   C18 3727   4.791   0.140   7.522  0.0702  0.6846 -0.1533
   51CHL1  H18A 3728   4.824   0.143   7.416  2.3993  0.8315  0.5543
   51CHL1  H18B 3729   4.884   0.161   7.579 -0.0165  1.2020 -0.1960
   51CHL1  H18C 3730   4.766   0.040   7.564  0.0350  1.1929  1.0575
   51CHL1   C12 3731   4.548   0.224   7.490 -0.2969 -0.3361 -0.5038
   51CHL1  H12A 3732   4.518   0.121   7.519  1.3077 -1.1816 -1.8147
   51CHL1  H12B 3733   4.470   0.293   7.531 -0.6066 -0.8664 -0.1944
   51CHL1   C11 3734   4.554   0.234   7.340  0.9978  0.2222  0.6083
   51CHL1  H11A 3735   4.620   0.154   7.302 -0.5637 -0.7710 -0.0711
   51CHL1  H11B 3736   4.453   0.205   7.303  0.8536  1.8705 -0.3351
   51CHL1    C9 3737   4.607   0.376   7.300 -0.3600  0.5850  0.5759
   51CHL1    H9 3738   4.537   0.453   7.337 -0.4925  1.4299 -1.3921
   51CHL1   C10 3739   4.626   0.398   7.148 -0.2149 -0.6980 -0.2217
   51CHL1   C19 3740   4.697   0.277   7.085 -0.0016 -0.2100 -0.2834
   51CHL1  H19A 3741   4.716   0.290   6.976  1.5838 -0.6441 -0.0635
   51CHL1  H19B 3742   4.790   0.250   7.138 -0.0529 -0.7134 -0.4479
   51CHL1  H19C 3743   4.642   0.180   7.090  2.7316 -1.8761 -1.5820
   51CHL1    C1 3744   4.481   0.412   7.081 -0.0008  0.2992 -0.1280
   51CHL1   H1A 3745   4.418   0.322   7.099  1.3047 -0.5965  0.0120
   51CHL1   H1B 3746   4.427   0.488   7.142  0.9248  2.4367 -1.9294
   51CHL1    C2 3747   4.478   0.457   6.934 -0.4719 -1.0079  0.1368
   51CHL1   H2A 3748   4.374   0.458   6.894 -0.6616 -1.9453  0.5849
   51CHL1   H2B 3749   4.529   0.373   6.882  0.2947 -0.3328 -0.2152
   51CHL1   C20 3750   4.695   0.134   7.799  0.1903  0.3482 -0.2598
   51CHL1   H20 3751   4.792   0.090   7.767 -1.0009  0.1094 -3.7588
   51CHL1   C21 3752   4.581   0.034   7.765  0.0948 -0.9155  0.5197
   51CHL1  H21A 3753   4.587  -0.042   7.846  0.1352 -0.1359  1.2571
   51CHL1  H21B 3754   4.587  -0.028   7.673  1.0669  1.3973 -1.0335
   51CHL1  H21C 3755   4.481   0.083   7.770  1.1639  1.4010 -0.3752
   51CHL1   C22 3756   4.704   0.165   7.954  0.5733  0.3453 -0.1830
   51CHL1  H22A 3757   4.717   0.065   8.001 -1.8775 -1.4789 -3.1412
   51CHL1  H22B 3758   4.780   0.237   7.991 -1.4612  1.0949  2.7787
   51CHL1   C23 3759   4.567   0.236   8.006  0.3851 -0.6308 -0.2898
   51CHL1  H23A 3760   4.551   0.344   7.986  0.3881 -1.3563 -4.5800
   51CHL1  H23B 3761   4.480   0.177   7.971 -0.4878 -0.6529  1.8485
   51CHL1   C24 3762   4.552   0.228   8.157  1.1251  0.1631 -0.0616
   51CHL1  H24A 3763   4.561   0.120   8.179 -0.0244 -0.0360 -0.5252
   51CHL1  H24B 3764   4.637   0.269   8.216 -0.1538  0.7078  1.4595
   51CHL1   C25 3765   4.428   0.274   8.236  0.0320 -0.0879  0.7032
   51CHL1   H25 3766   4.343   0.225   8.185  1.8244 -1.0080 -1.5311
   51CHL1   C26 3767   4.445   0.218   8.376 -0.3632  0.0391  0.6303
   51CHL1  H26A 3768   4.499   0.291   8.441 -0.3541  0.2856  0.3467
   51CHL1  H26B 3769   4.341   0.212   8.413  0.4058 -0.4493  2.8014
   51CHL1  H26C 3770   4.483   0.115   8.392 -1.3625 -0.6958 -1.6559
   51CHL1   C27 3771   4.411   0.428   8.242 -0.0204  0.4242 -0.2083
   51CHL1  H27A 3772   4.401   0.460   8.136 -0.0831  1.4185  0.0949
   51CHL1  H27B 3773   4.316   0.455   8.293  1.3102  3.1298  0.9337
   51CHL1  H27C 3774   4.488   0.483   8.300 -1.2394  3.2522 -1.2076
   52CHL1    C3 3775   0.216   1.143   7.009 -0.5550 -0.4456 -0.6964
   52CHL1    H3 3776   0.107   1.158   6.998 -0.3053  2.3114  0.1164
   52CHL1    O3 3777   0.262   1.077   6.891  0.0304  0.0881  0.4466
   52CHL1   H3' 3778   0.357   1.073   6.894  0.0954  0.4688 -0.7246
   52CHL1    C4 3779   0.275   1.281   7.019 -0.3729  0.2333  0.5800
   52CHL1   H4A 3780   0.384   1.266   6.999 -0.5727 -2.3589  1.1722
   52CHL1   H4B 3781   0.223   1.344   6.944  0.3912  0.2899  0.0924
   52CHL1    C5 3782   0.257   1.340   7.153 -0.2743  0.1157 -0.2974
   52CHL1    C6 3783   0.210   1.464   7.159 -0.8083 -0.0882 -0.6027
   52CHL1    H6 3784   0.174   1.518   7.070 -0.7269  2.8820  1.0991
   52CHL1    C7 3785   0.215   1.547   7.287 -0.5067 -0.4745 -0.1081
   52CHL1   H7A 3786   0.266   1.644   7.266  0.6556 -1.3042 -1.1182
   52CHL1   H7B 3787   0.113   1.573   7.324 -0.2287  0.6677 -0.1072
   52CHL1    C8 3788   0.289   1.475   7.407  0.6933  0.1386  0.4704
   52CHL1    H8 3789   0.396   1.489   7.381  0.3247  0.5662 -0.8429
   52CHL1   C14 3790   0.256   1.532   7.545  0.3647 -0.0033  0.2519
   52CHL1   H14 3791   0.148   1.506   7.548  0.6344 -1.0484  1.4869
   52CHL1   C15 3792   0.254   1.681   7.574 -0.3459  0.3559  1.0891
   52CHL1  H15A 3793   0.347   1.719   7.526 -2.2858  2.9696 -0.7754
   52CHL1  H15B 3794   0.169   1.737   7.528 -0.0169 -0.0407 -0.0075
   52CHL1   C16 3795   0.253   1.692   7.728 -0.0940 -0.6509  0.1228
   52CHL1  H16A 3796   0.326   1.759   7.779  0.7080 -0.0953 -1.7025
   52CHL1  H16B 3797   0.154   1.726   7.764  0.9046  2.2558  0.2292
   52CHL1   C17 3798   0.272   1.546   7.785  0.1082 -1.2163 -0.4934
   52CHL1   H17 3799   0.168   1.508   7.783 -0.2625 -0.2249 -0.3669
   52CHL1   C13 3800   0.329   1.470   7.665 -0.0220  0.4136 -0.2733
   52CHL1   C18 3801   0.486   1.495   7.658 -0.5205 -0.5722 -0.5109
   52CHL1  H18A 3802   0.540   1.424   7.724 -2.1793 -0.8469  0.5697
   52CHL1  H18B 3803   0.517   1.481   7.552 -1.3938 -1.9941 -0.5848
   52CHL1  H18C 3804   0.517   1.600   7.677  1.6594 -1.5150  1.2701
   52CHL1   C12 3805   0.294   1.324   7.661  0.9615 -0.8143 -0.4657
   52CHL1  H12A 3806   0.340   1.264   7.744 -1.5887 -2.0008  0.1426
   52CHL1  H12B 3807   0.185   1.319   7.681  1.0041  0.7255  0.1640
   52CHL1   C11 3808   0.336   1.256   7.534 -0.5590  0.0266 -0.1833
   52CHL1  H11A 3809   0.446   1.249   7.540 -0.7549 -2.4633  0.8513
   52CHL1  H11B 3810   0.314   1.147   7.533  1.2348 -0.3674 -3.2496
   52CHL1    C9 3811   0.272   1.322   7.408  0.1697 -0.0774  0.4586
   52CHL1    H9 3812   0.161   1.316   7.416  0.0875 -0.3980 -0.8151
   52CHL1   C10 3813   0.306   1.254   7.269 -0.4418  0.7235  0.6145
   52CHL1   C19 3814   0.460   1.218   7.268 -0.1972 -0.3368  0.2318
   52CHL1  H19A 3815   0.490   1.173   7.172 -2.0447 -3.6415  1.1186
   52CHL1  H19B 3816   0.528   1.302   7.293 -0.7643 -0.2269  1.4547
   52CHL1  H19C 3817   0.494   1.140   7.338 -0.7197 -0.5388  0.2633
   52CHL1    C1 3818   0.218   1.126   7.260  0.5571  0.6955 -0.5044
   52CHL1   H1A 3819   0.251   1.059   7.343 -1.5651  2.3262  1.7004
   52CHL1   H1B 3820   0.114   1.160   7.278  0.4564 -0.3917  1.1055
   52CHL1    C2 3821   0.242   1.050   7.133  0.1985  0.4980  0.6305
   52CHL1   H2A 3822   0.175   0.964   7.115  3.0582 -1.6129 -0.2740
   52CHL1   H2B 3823   0.343   1.007   7.119 -0.7130 -1.1841 -1.0147
   52CHL1   C20 3824   0.331   1.531   7.929 -0.2423 -0.1942  0.0238
   52CHL1   H20 3825   0.431   1.578   7.943  0.1486 -0.8086 -0.6647
   52CHL1   C21 3826   0.348   1.386   7.964  0.3617  0.7041 -0.1442
   52CHL1  H21A 3827   0.427   1.344   7.897  0.7433 -1.3982  1.5558
   52CHL1  H21B 3828   0.256   1.325   7.953  1.0290 -0.1373 -1.1996
   52CHL1  H21C 3829   0.369   1.382   8.073  0.6390 -2.8656 -0.2499
   52CHL1   C22 3830   0.245   1.608   8.034 -0.2525 -0.2197  0.2721
   52CHL1  H22A 3831   0.305   1.596   8.127 -1.4648 -1.4386  0.9068
   52CHL1  H22B 3832   0.261   1.717   8.016 -0.6067 -0.5226 -2.0799
   52CHL1   C23 3833   0.100   1.572   8.051  0.2169  0.1274 -0.0276
   52CHL1  H23A 3834   0.047   1.600   7.958  1.7547 -0.2578 -1.0362
   52CHL1  H23B 3835   0.085   1.463   8.067 -2.7058  0.5082  0.0142
   52CHL1   C24 3836   0.035   1.645   8.182  0.6080 -0.2264 -0.1827
   52CHL1  H24A 3837  -0.072   1.618   8.193  0.9227 -1.4684 -0.0354
   52CHL1  H24B 3838   0.098   1.596   8.260  2.0786 -1.0605 -1.8428
   52CHL1   C25 3839   0.038   1.796   8.199 -0.0597 -0.1082  0.4636
   52CHL1   H25 3840   0.137   1.840   8.176 -0.2395  2.0103  3.5000
   52CHL1   C26 3841  -0.069   1.854   8.107  0.4417 -0.0633 -0.0684
   52CHL1  H26A 3842  -0.060   1.964   8.118  0.3901  0.0711 -1.2586
   52CHL1  H26B 3843  -0.067   1.814   8.003  1.2604 -2.8008  0.9580
   52CHL1  H26C 3844  -0.166   1.823   8.152  0.3704  0.9958  0.5088
   52CHL1   C27 3845  -0.005   1.837   8.341  0.2811 -0.4334  0.0552
   52CHL1  H27A 3846   0.065   1.789   8.412  1.4437 -1.1916 -1.5514
   52CHL1  H27B 3847   0.001   1.948   8.349  0.2394 -0.6282  3.2263
   52CHL1  H27C 3848  -0.104   1.795   8.367  1.0680 -2.8463 -0.7145
   53CHL1    C3 3849   2.984   5.182   7.240  0.0984 -0.1713  0.9595
   53CHL1    H3 3850   3.091   5.172   7.269  0.4461 -2.5105 -1.0122
   53CHL1    O3 3851   2.971   5.148   7.098  0.1294  0.1996 -0.6916
   53CHL1   H3' 3852   3.037   5.204   7.056 -0.6438  0.9988 -0.8464
   53CHL1    C4 3853   2.894   5.095   7.329  0.4261 -0.2069 -0.6641
   53CHL1   H4A 3854   2.785   5.093   7.305  0.5480 -0.3331 -1.2143
   53CHL1   H4B 3855   2.938   4.996   7.306 -0.9371 -0.9183 -0.2779
   53CHL1    C5 3856   2.911   5.140   7.470 -0.2449  0.4870 -0.5466
   53CHL1    C6 3857   2.954   5.058   7.561  0.7803  0.0442 -0.4409
   53CHL1    H6 3858   2.988   4.956   7.538  0.2093 -0.4309  0.7816
   53CHL1    C7 3859   2.969   5.089   7.707 -0.8546 -0.1294 -0.6828
   53CHL1   H7A 3860   2.930   5.005   7.768 -1.8597  0.6364 -0.2627
   53CHL1   H7B 3861   3.074   5.103   7.741 -0.6191 -0.6074 -1.2187
   53CHL1    C8 3862   2.894   5.217   7.737 -0.1671 -0.5083 -0.4271
   53CHL1    H8 3863   2.786   5.190   7.732 -0.8115  1.8014  0.0758
   53CHL1   C14 3864   2.921   5.265   7.883  0.5220 -0.0271  0.0025
   53CHL1   H14 3865   3.031   5.278   7.887  0.2631  1.7486  2.9251
   53CHL1   C15 3866   2.895   5.164   7.996 -0.4145  0.0376  0.2051
   53CHL1  H15A 3867   2.799   5.111   7.982  1.0013 -2.4017 -0.4419
   53CHL1  H15B 3868   2.971   5.083   8.010  0.3490  0.6339 -0.4386
   53CHL1   C16 3869   2.891   5.255   8.125  0.1136  0.1004  0.8997
   53CHL1  H16A 3870   2.798   5.236   8.183  0.3906 -1.2806  0.9190
   53CHL1  H16B 3871   2.978   5.224   8.186  0.2842 -0.0644  0.5769
   53CHL1   C17 3872   2.901   5.399   8.079  0.7929  0.7845 -0.6011
   53CHL1   H17 3873   3.011   5.411   8.079  0.9221 -0.0974  2.5020
   53CHL1   C13 3874   2.856   5.400   7.929  0.6420  0.2914  0.3530
   53CHL1   C18 3875   2.703   5.393   7.920 -0.4932 -1.0174 -0.1975
   53CHL1  H18A 3876   2.665   5.304   7.975 -1.4261  0.6309  1.9068
   53CHL1  H18B 3877   2.653   5.488   7.952 -0.7973 -1.2331 -0.0273
   53CHL1  H18C 3878   2.680   5.381   7.812  0.4550 -1.1598 -0.3814
   53CHL1   C12 3879   2.918   5.503   7.834 -0.7097 -0.7762  0.2926
   53CHL1  H12A 3880   2.872   5.604   7.845 -1.8582 -1.0637 -1.5796
   53CHL1  H12B 3881   3.025   5.500   7.863 -1.0534  0.7636  1.8352
   53CHL1   C11 3882   2.888   5.473   7.682  0.2307 -0.1795  0.5131
   53CHL1  H11A 3883   2.779   5.484   7.663  0.5489 -0.3048 -1.4936
   53CHL1  H11B 3884   2.940   5.551   7.623 -0.7497 -1.4580 -2.1214
   53CHL1    C9 3885   2.927   5.329   7.640  0.0670 -0.2971 -0.4160
   53CHL1    H9 3886   3.038   5.335   7.637 -0.0596  4.0252  1.2082
   53CHL1   C10 3887   2.874   5.284   7.500  1.1148  0.3154 -0.3850
   53CHL1   C19 3888   2.719   5.306   7.488 -0.0847 -0.1325 -0.1876
   53CHL1  H19A 3889   2.699   5.414   7.478 -2.3236 -0.3889  1.1900
   53CHL1  H19B 3890   2.670   5.250   7.406  2.0055 -0.9537 -0.9225
   53CHL1  H19C 3891   2.668   5.280   7.583  1.8815 -1.3138  0.5904
   53CHL1    C1 3892   2.939   5.380   7.400 -0.0210 -0.1212  0.9828
   53CHL1   H1A 3893   2.879   5.473   7.400 -1.2256 -0.8357 -2.4283
   53CHL1   H1B 3894   3.044   5.388   7.435  0.6275  0.9504 -1.1189
   53CHL1    C2 3895   2.951   5.325   7.254 -0.3427 -0.1880  0.3282
   53CHL1   H2A 3896   3.023   5.388   7.197  0.5223 -1.1854  0.2988
   53CHL1   H2B 3897   2.860   5.355   7.199 -1.1698 -0.2158  1.6447
   53CHL1   C20 3898   2.846   5.511   8.166  0.1226 -0.4259 -0.2250
   53CHL1   H20 3899   2.751   5.547   8.121 -0.7830 -0.6050  1.5098
   53CHL1   C21 3900   2.947   5.622   8.157  0.0176  0.0584  0.4131
   53CHL1  H21A 3901   3.043   5.585   8.198 -0.7148 -2.6836 -0.1974
   53CHL1  H21B 3902   2.913   5.706   8.220 -3.2942 -1.5930  0.9702
   53CHL1  H21C 3903   2.965   5.664   8.055 -1.1233 -0.1947  0.1058
   53CHL1   C22 3904   2.805   5.468   8.315 -1.0096  0.2536 -0.0768
   53CHL1  H22A 3905   2.720   5.397   8.304 -1.4570  0.8919 -0.8837
   53CHL1  H22B 3906   2.888   5.422   8.372 -1.7239 -2.2132 -0.9636
   53CHL1   C23 3907   2.749   5.592   8.392 -0.1905 -0.0784  0.3861
   53CHL1  H23A 3908   2.834   5.649   8.435  0.2048 -0.3861  0.0057
   53CHL1  H23B 3909   2.687   5.655   8.324 -1.0284  0.5120  1.6789
   53CHL1   C24 3910   2.650   5.551   8.507 -0.9452 -0.1722  0.4116
   53CHL1  H24A 3911   2.599   5.644   8.541 -1.0058  0.2066 -0.6928
   53CHL1  H24B 3912   2.560   5.492   8.480 -1.1152  0.0462  0.4992
   53CHL1   C25 3913   2.719   5.501   8.637  0.2191 -0.6535  1.0191
   53CHL1   H25 3914   2.822   5.541   8.638 -0.6785  1.9611 -1.7518
   53CHL1   C26 3915   2.638   5.552   8.756 -0.2434 -0.3173 -0.4084
   53CHL1  H26A 3916   2.688   5.525   8.852 -1.6054 -0.7430  0.1949
   53CHL1  H26B 3917   2.623   5.661   8.768 -2.9693 -0.5467 -1.2587
   53CHL1  H26C 3918   2.536   5.508   8.764 -0.6210  0.9030  1.9045
   53CHL1   C27 3919   2.718   5.350   8.631  0.0835 -0.5302 -0.3981
   53CHL1  H27A 3920   2.779   5.311   8.546  0.6316  2.2873 -1.3559
   53CHL1  H27B 3921   2.774   5.311   8.719  2.1578  1.7799 -0.6451
   53CHL1  H27C 3922   2.618   5.302   8.637  0.4836 -1.6450 -2.0558
   54CHL1    C3 3923   3.194   0.345   6.935 -0.2285  0.5366  0.4693
   54CHL1    H3 3924   3.277   0.276   6.908 -0.3708  1.5813 -2.9450
   54CHL1    O3 3925   3.120   0.380   6.815 -0.0833  0.7897  0.5426
   54CHL1   H3' 3926   3.190   0.386   6.750  1.1936 -0.2101  1.7999
   54CHL1    C4 3927   3.094   0.275   7.025 -0.1702  0.4316 -0.0909
   54CHL1   H4A 3928   3.002   0.336   7.038 -1.8232 -1.8039 -1.0880
   54CHL1   H4B 3929   3.048   0.189   6.972 -1.2059 -0.1772  1.7816
   54CHL1    C5 3930   3.167   0.234   7.153  0.6009  0.4334 -0.0775
   54CHL1    C6 3931   3.176   0.107   7.191 -0.4772 -0.2809 -0.4723
   54CHL1    H6 3932   3.146   0.024   7.125  1.7564 -0.8203 -0.8713
   54CHL1    C7 3933   3.255   0.069   7.313  0.1206  0.1856 -0.2283
   54CHL1   H7A 3934   3.218  -0.026   7.356 -0.3048 -1.2617 -3.6489
   54CHL1   H7B 3935   3.356   0.036   7.281  0.0755 -2.1950  1.9478
   54CHL1    C8 3936   3.272   0.186   7.419  0.0324 -0.2443  0.7258
   54CHL1    H8 3937   3.170   0.203   7.459 -1.9766 -1.6429 -3.4455
   54CHL1   C14 3938   3.373   0.152   7.531  0.6471 -0.2381  0.8709
   54CHL1   H14 3939   3.469   0.127   7.482  0.5629  1.1045  0.0087
   54CHL1   C15 3940   3.332   0.029   7.611 -0.3165 -0.2040  0.2095
   54CHL1  H15A 3941   3.221   0.030   7.621 -0.0709  0.7081  3.3613
   54CHL1  H15B 3942   3.365  -0.069   7.572 -1.8733 -0.5137 -0.3829
   54CHL1   C16 3943   3.416   0.049   7.745  0.8599 -0.2067  0.5292
   54CHL1  H16A 3944   3.342   0.036   7.827  1.5085  1.2720  1.3598
   54CHL1  H16B 3945   3.505  -0.015   7.766  0.5005 -0.3910  1.5149
   54CHL1   C17 3946   3.470   0.192   7.737  0.3606  0.4091  0.3173
   54CHL1   H17 3947   3.568   0.185   7.684  1.1589  1.1041  1.6736
   54CHL1   C13 3948   3.394   0.263   7.625  0.2489  0.2809 -0.3626
   54CHL1   C18 3949   3.258   0.309   7.688 -0.1982  0.4939 -0.5938
   54CHL1  H18A 3950   3.281   0.391   7.760 -2.3138 -0.8081  1.6741
   54CHL1  H18B 3951   3.192   0.358   7.614  1.1255 -0.4853 -2.4549
   54CHL1  H18C 3952   3.205   0.222   7.733 -2.3124  2.1017  0.1171
   54CHL1   C12 3953   3.463   0.370   7.547  0.9914 -0.6670  0.0356
   54CHL1  H12A 3954   3.487   0.449   7.622  1.7362  0.4469 -1.3656
   54CHL1  H12B 3955   3.555   0.335   7.496  1.2461 -0.5704  0.4281
   54CHL1   C11 3956   3.374   0.424   7.434 -0.3964 -1.1835  0.7583
   54CHL1  H11A 3957   3.290   0.487   7.471  0.3616 -0.2557  0.9206
   54CHL1  H11B 3958   3.444   0.489   7.378 -0.6759 -2.9236 -1.6956
   54CHL1    C9 3959   3.317   0.310   7.344 -0.4902 -0.9857  0.0991
   54CHL1    H9 3960   3.412   0.270   7.301 -0.3575 -1.4397  0.7994
   54CHL1   C10 3961   3.231   0.356   7.230  0.7311  0.2774  0.1796
   54CHL1   C19 3962   3.105   0.448   7.273 -0.4213  0.0304 -0.4115
   54CHL1  H19A 3963   3.030   0.462   7.192 -0.3242 -1.5936 -0.7906
   54CHL1  H19B 3964   3.050   0.397   7.354  0.3092  0.9705  0.6869
   54CHL1  H19C 3965   3.127   0.551   7.308 -1.9473 -0.0325  0.7560
   54CHL1    C1 3966   3.322   0.432   7.125 -0.2291 -0.6783 -0.2252
   54CHL1   H1A 3967   3.352   0.517   7.190  1.6516 -2.2034  0.9309
   54CHL1   H1B 3968   3.410   0.376   7.088 -0.5531 -0.2433 -1.6921
   54CHL1    C2 3969   3.247   0.474   7.003  0.0749 -0.3995  0.1803
   54CHL1   H2A 3970   3.318   0.533   6.941  0.6152 -1.3385 -0.0974
   54CHL1   H2B 3971   3.161   0.538   7.034  2.3828  1.4783  3.0628
   54CHL1   C20 3972   3.502   0.258   7.872  0.5142 -0.3184 -0.1185
   54CHL1   H20 3973   3.532   0.361   7.843 -1.1503 -0.8831 -4.1515
   54CHL1   C21 3974   3.629   0.191   7.921 -0.0812  0.2519  0.3723
   54CHL1  H21A 3975   3.709   0.197   7.843 -1.7704 -0.3869 -1.4601
   54CHL1  H21B 3976   3.610   0.083   7.941  2.5296 -0.1681  0.8864
   54CHL1  H21C 3977   3.681   0.234   8.009  0.1360  1.2442 -0.2355
   54CHL1   C22 3978   3.397   0.244   7.983 -0.4318 -0.5372  0.2781
   54CHL1  H22A 3979   3.298   0.221   7.939 -0.7535  0.1730  0.6065
   54CHL1  H22B 3980   3.427   0.167   8.057 -3.1296 -0.1802  1.8355
   54CHL1   C23 3981   3.365   0.373   8.061  0.4457  0.0447  0.1670
   54CHL1  H23A 3982   3.465   0.411   8.091 -0.0590  2.4097 -1.0227
   54CHL1  H23B 3983   3.317   0.452   7.999  1.0924  1.5669  1.5787
   54CHL1   C24 3984   3.294   0.337   8.189 -0.2546 -0.1697  0.1478
   54CHL1  H24A 3985   3.187   0.314   8.170 -0.1849  0.6644 -1.3096
   54CHL1  H24B 3986   3.343   0.242   8.221  1.4358  0.0343 -1.7092
   54CHL1   C25 3987   3.327   0.434   8.313 -0.8976  0.0800  0.0092
   54CHL1   H25 3988   3.273   0.382   8.395  1.3282 -1.2708  0.6722
   54CHL1   C26 3989   3.478   0.439   8.357  0.3096  0.8916  0.7229
   54CHL1  H26A 3990   3.511   0.333   8.365 -0.4648  0.5400 -0.5985
   54CHL1  H26B 3991   3.549   0.499   8.296  1.1431 -0.6741  0.1108
   54CHL1  H26C 3992   3.474   0.497   8.451 -0.8174  1.0180  0.6013
   54CHL1   C27 3993   3.287   0.577   8.291 -0.9313 -0.5938  0.0728
   54CHL1  H27A 3994   3.181   0.587   8.261 -0.5977 -0.0460 -0.9386
   54CHL1  H27B 3995   3.290   0.634   8.387  2.9081  0.5758 -0.6851
   54CHL1  H27C 3996   3.357   0.627   8.221 -0.2285  0.3178  1.3880
   55CHL1    C3 3997   3.546   1.929   7.013  0.2446 -0.4722 -0.3222
   55CHL1    H3 3998   3.436   1.937   7.008  0.1726 -1.8603 -1.2747
   55CHL1    O3 3999   3.608   1.947   6.885  0.4472 -0.2425  0.0888
   55CHL1   H3' 4000   3.691   1.900   6.886 -1.0623 -3.0374  0.4986
   55CHL1    C4 4001   3.613   2.028   7.111  0.0252  0.6731  0.0108
   55CHL1   H4A 4002   3.724   2.030   7.106  0.1373  0.7899  2.1499
   55CHL1   H4B 4003   3.577   2.127   7.076  0.3112  0.1948 -1.6628
   55CHL1    C5 4004   3.575   2.002   7.255 -0.1060 -0.7818  0.1805
   55CHL1    C6 4005   3.535   2.099   7.337  0.2754  0.1861 -0.4645
   55CHL1    H6 4006   3.532   2.202   7.299  0.5280 -0.1875 -1.4995
   55CHL1    C7 4007   3.511   2.089   7.483 -0.0879  0.5600  0.5065
   55CHL1   H7A 4008   3.570   2.166   7.538  1.7166  0.0242 -0.6287
   55CHL1   H7B 4009   3.401   2.097   7.498 -0.3812 -1.6037 -0.3901
   55CHL1    C8 4010   3.532   1.947   7.547 -0.8490 -0.4629 -0.4243
   55CHL1    H8 4011   3.640   1.949   7.572 -0.4489 -0.2489 -2.1302
   55CHL1   C14 4012   3.461   1.928   7.681  0.8054 -0.0820  1.1612
   55CHL1   H14 4013   3.356   1.944   7.650  0.9290  1.0261  1.2773
   55CHL1   C15 4014   3.488   2.025   7.791 -0.0453 -0.0955  0.2942
   55CHL1  H15A 4015   3.596   2.049   7.797  0.2731 -1.5816  0.5736
   55CHL1  H15B 4016   3.424   2.116   7.791 -0.5901 -0.4806  0.3673
   55CHL1   C16 4017   3.454   1.939   7.919 -0.5214 -0.5894  0.3048
   55CHL1  H16A 4018   3.540   1.934   7.989  0.0138  0.4761 -0.2709
   55CHL1  H16B 4019   3.374   1.988   7.980  0.5229  2.1163 -0.4503
   55CHL1   C17 4020   3.408   1.800   7.868  0.0073  0.0757 -0.3087
   55CHL1   H17 4021   3.299   1.808   7.846  0.2162 -1.0284 -1.8164
   55CHL1   C13 4022   3.479   1.784   7.735 -0.4294  1.3447  0.1759
   55CHL1   C18 4023   3.629   1.758   7.756 -0.0405 -0.4510 -0.2706
   55CHL1  H18A 4024   3.660   1.795   7.856 -0.6220 -2.2887  0.6111
   55CHL1  H18B 4025   3.633   1.648   7.774 -2.0912 -0.3338  1.0106
   55CHL1  H18C 4026   3.706   1.784   7.680  0.4146 -0.7465  0.0850
   55CHL1   C12 4027   3.426   1.681   7.633 -0.1156 -0.6436  0.1266
   55CHL1  H12A 4028   3.438   1.579   7.675  1.2097 -0.3939  0.3764
   55CHL1  H12B 4029   3.316   1.688   7.618  0.2628  0.4266 -2.3874
   55CHL1   C11 4030   3.492   1.694   7.490 -0.0752  0.0615  0.1709
   55CHL1  H11A 4031   3.595   1.651   7.496 -0.2785 -0.5628 -0.7067
   55CHL1  H11B 4032   3.438   1.623   7.423  1.6125 -2.3999  1.3204
   55CHL1    C9 4033   3.491   1.846   7.442  0.0701 -0.3479  0.2746
   55CHL1    H9 4034   3.387   1.872   7.414 -0.1266 -1.6349 -0.2352
   55CHL1   C10 4035   3.578   1.858   7.309 -0.0409  0.1079  0.3194
   55CHL1   C19 4036   3.726   1.821   7.342  0.0006 -0.2337  0.1955
   55CHL1  H19A 4037   3.743   1.714   7.363  2.0846  0.7094  3.8311
   55CHL1  H19B 4038   3.793   1.849   7.258  1.3741  1.0458  1.6835
   55CHL1  H19C 4039   3.767   1.878   7.428 -0.7531 -0.4794  0.7215
   55CHL1    C1 4040   3.522   1.770   7.202  1.0038  0.3175 -0.2914
   55CHL1   H1A 4041   3.530   1.663   7.229  0.8529  0.9336  2.3752
   55CHL1   H1B 4042   3.413   1.789   7.191  0.9065 -0.3817 -0.5362
   55CHL1    C2 4043   3.584   1.784   7.065  0.2699 -0.4720 -0.0495
   55CHL1   H2A 4044   3.532   1.720   6.991  1.9375  0.6221 -2.2425
   55CHL1   H2B 4045   3.694   1.767   7.067  0.0900 -1.7481 -0.6238
   55CHL1   C20 4046   3.419   1.691   7.977  0.1042  0.1107 -0.7494
   55CHL1   H20 4047   3.437   1.595   7.923  0.3206  0.2063 -0.8477
   55CHL1   C21 4048   3.275   1.681   8.035 -0.2628 -0.3710  0.7441
   55CHL1  H21A 4049   3.277   1.597   8.108  1.1303  0.2786  1.4669
   55CHL1  H21B 4050   3.190   1.666   7.964  0.1340 -0.6974  0.3359
   55CHL1  H21C 4051   3.252   1.768   8.100 -2.5461 -0.5636  0.2434
   55CHL1   C22 4052   3.531   1.702   8.086 -0.5029  0.3256  0.5471
   55CHL1  H22A 4053   3.631   1.733   8.049 -0.7784  0.1120 -0.3757
   55CHL1  H22B 4054   3.499   1.785   8.154 -0.2046 -0.8570  2.1579
   55CHL1   C23 4055   3.555   1.579   8.179 -0.1118  0.5581  0.1311
   55CHL1  H23A 4056   3.460   1.523   8.193 -0.1478  0.2305 -1.3903
   55CHL1  H23B 4057   3.616   1.506   8.122 -1.8910 -0.3353 -0.6955
   55CHL1   C24 4058   3.624   1.600   8.314 -0.6665  0.8652  0.3005
   55CHL1  H24A 4059   3.730   1.629   8.298 -0.2514 -0.5785  0.3281
   55CHL1  H24B 4060   3.577   1.688   8.363 -1.4656  0.4110  0.3604
   55CHL1   C25 4061   3.626   1.474   8.408  0.3422 -0.0006  0.4546
   55CHL1   H25 4062   3.653   1.382   8.352  0.7948 -1.9000  3.6695
   55CHL1   C26 4063   3.728   1.478   8.525 -0.7722 -0.4527 -0.6921
   55CHL1  H26A 4064   3.738   1.383   8.582  0.1317  0.8178  1.3227
   55CHL1  H26B 4065   3.828   1.495   8.481 -0.2752 -0.4355  0.4215
   55CHL1  H26C 4066   3.715   1.559   8.600  2.0953 -1.1553  0.6407
   55CHL1   C27 4067   3.493   1.448   8.474 -0.3324  0.3679 -0.2584
   55CHL1  H27A 4068   3.407   1.425   8.408 -1.1261 -0.0746  0.9112
   55CHL1  H27B 4069   3.505   1.362   8.544  2.0700  0.7657 -0.1164
   55CHL1  H27C 4070   3.470   1.531   8.544 -1.3334  0.0998 -0.2621
   56CHL1    C3 4071   2.442   6.403   6.895  0.6346 -0.2682  0.1477
   56CHL1    H3 4072   2.496   6.323   6.950 -0.3020  0.5382  2.2801
   56CHL1    O3 4073   2.448   6.379   6.754 -0.7309 -0.8989  0.2747
   56CHL1   H3' 4074   2.386   6.440   6.712 -1.1147 -0.6090  1.2378
   56CHL1    C4 4075   2.295   6.408   6.925  1.2588 -0.4650 -0.3395
   56CHL1   H4A 4076   2.245   6.489   6.868  0.4233 -0.7138  0.0313
   56CHL1   H4B 4077   2.246   6.313   6.894 -0.6085  0.4152 -0.1529
   56CHL1    C5 4078   2.270   6.434   7.073 -0.6536  0.6535 -0.7135
   56CHL1    C6 4079   2.209   6.339   7.153 -0.3134 -0.1354 -0.1342
   56CHL1    H6 4080   2.167   6.247   7.110  0.6803 -0.2625 -0.8337
   56CHL1    C7 4081   2.195   6.360   7.299  0.0227 -0.5032  0.0843
   56CHL1   H7A 4082   2.089   6.333   7.316 -0.0536  0.1925  0.7117
   56CHL1   H7B 4083   2.263   6.290   7.351 -0.4125 -1.6064 -0.7974
   56CHL1    C8 4084   2.219   6.508   7.353  0.0615  0.3959  0.8783
   56CHL1    H8 4085   2.135   6.576   7.328 -0.3246 -0.5965 -0.6012
   56CHL1   C14 4086   2.230   6.503   7.501 -0.4154 -0.0355 -0.0092
   56CHL1   H14 4087   2.315   6.434   7.525 -0.2294  0.0485 -0.4278
   56CHL1   C15 4088   2.107   6.449   7.580 -0.0464  0.1703 -0.2107
   56CHL1  H15A 4089   2.017   6.501   7.540 -1.1729 -1.1657  0.5618
   56CHL1  H15B 4090   2.110   6.340   7.560  4.2985 -0.0208  1.0113
   56CHL1   C16 4091   2.140   6.494   7.724 -0.7172 -0.0399 -1.2165
   56CHL1  H16A 4092   2.061   6.562   7.762  1.3478  0.9240  1.4813
   56CHL1  H16B 4093   2.151   6.410   7.797 -0.7190  0.5188 -0.5632
   56CHL1   C17 4094   2.260   6.586   7.718 -0.0099 -0.1899 -0.5021
   56CHL1   H17 4095   2.351   6.523   7.733  1.7668  2.2734 -0.6095
   56CHL1   C13 4096   2.265   6.631   7.572 -0.2429 -0.1089 -0.3476
   56CHL1   C18 4097   2.159   6.737   7.550 -0.2364 -0.0903  0.1641
   56CHL1  H18A 4098   2.138   6.781   7.450 -0.1709 -0.8105 -0.1673
   56CHL1  H18B 4099   2.064   6.706   7.599 -1.6476  0.0204 -2.4542
   56CHL1  H18C 4100   2.190   6.833   7.598 -2.8243  0.0671  1.6066
   56CHL1   C12 4101   2.400   6.677   7.518  0.0971 -0.1105 -0.2074
   56CHL1  H12A 4102   2.409   6.779   7.561  1.2604  0.4792 -1.7978
   56CHL1  H12B 4103   2.484   6.612   7.552  0.8339  0.1399 -1.5351
   56CHL1   C11 4104   2.405   6.687   7.362  0.4764  0.9421  0.8452
   56CHL1  H11A 4105   2.363   6.784   7.328 -0.5911  0.6140  1.2002
   56CHL1  H11B 4106   2.511   6.700   7.332  0.9351 -1.5231  1.2829
   56CHL1    C9 4107   2.349   6.557   7.296  0.4560 -0.0598  0.5883
   56CHL1    H9 4108   2.422   6.485   7.337 -0.2392 -0.0941  1.7814
   56CHL1   C10 4109   2.343   6.556   7.130 -0.5151 -0.2615  0.8699
   56CHL1   C19 4110   2.257   6.684   7.086  0.5008 -0.1184  0.7746
   56CHL1  H19A 4111   2.242   6.696   6.977  2.9599 -2.9809  0.0384
   56CHL1  H19B 4112   2.158   6.692   7.135 -0.5606  3.1217 -1.7505
   56CHL1  H19C 4113   2.316   6.773   7.115  0.0563 -0.3294  2.4325
   56CHL1    C1 4114   2.489   6.566   7.075  0.5268  0.2860  0.2916
   56CHL1   H1A 4115   2.533   6.664   7.105 -1.1132  0.6277  1.6708
   56CHL1   H1B 4116   2.537   6.479   7.124  2.3901  0.0606 -1.8253
   56CHL1    C2 4117   2.524   6.531   6.928 -0.1524 -0.1824 -0.1227
   56CHL1   H2A 4118   2.631   6.509   6.912 -0.6428 -1.1658 -2.2041
   56CHL1   H2B 4119   2.478   6.614   6.871 -0.8152  2.1559  3.5979
   56CHL1   C20 4120   2.257   6.694   7.835 -0.0908  0.6129  0.0639
   56CHL1   H20 4121   2.165   6.753   7.816  0.0325  0.9220  0.4134
   56CHL1   C21 4122   2.377   6.782   7.821  0.0571 -0.7474  0.0441
   56CHL1  H21A 4123   2.363   6.863   7.746 -0.9742 -1.6287 -0.7415
   56CHL1  H21B 4124   2.465   6.724   7.786  0.7898 -0.3504  1.2082
   56CHL1  H21C 4125   2.406   6.838   7.912  2.0137  1.6595 -1.9818
   56CHL1   C22 4126   2.255   6.638   7.975 -0.4903  0.5151  0.5988
   56CHL1  H22A 4127   2.276   6.718   8.049 -0.5661  0.4647  0.6748
   56CHL1  H22B 4128   2.148   6.610   7.985 -0.3891 -0.6463 -1.3276
   56CHL1   C23 4129   2.343   6.524   8.006  0.3341  0.5574  0.3868
   56CHL1  H23A 4130   2.350   6.453   7.921 -3.8645  0.7071 -0.1654
   56CHL1  H23B 4131   2.448   6.556   8.026  0.7579 -1.8884  2.3087
   56CHL1   C24 4132   2.291   6.445   8.131  0.8211 -0.1906  0.0302
   56CHL1  H24A 4133   2.182   6.424   8.119  0.4472  1.0083  1.3139
   56CHL1  H24B 4134   2.338   6.344   8.132 -1.4186 -1.2930 -0.8028
   56CHL1   C25 4135   2.322   6.497   8.273  0.3430 -0.2494  0.1905
   56CHL1   H25 4136   2.280   6.599   8.282 -3.0300 -1.6531  1.6154
   56CHL1   C26 4137   2.256   6.416   8.379  0.3758  0.2241  0.5741
   56CHL1  H26A 4138   2.288   6.455   8.479  0.5917 -1.8676  1.3375
   56CHL1  H26B 4139   2.299   6.314   8.377  0.8689  0.4198  0.8422
   56CHL1  H26C 4140   2.146   6.418   8.365  0.5967 -2.7155 -2.0472
   56CHL1   C27 4141   2.470   6.508   8.313 -0.0358  0.1050  0.1995
   56CHL1  H27A 4142   2.512   6.600   8.268 -1.8184  0.8398 -0.0088
   56CHL1  H27B 4143   2.478   6.520   8.423  0.4409 -0.4091  0.2205
   56CHL1  H27C 4144   2.520   6.416   8.277  1.1056 -0.1061  2.2799
   57SAPC     N 4145   2.699   4.064  10.964  0.6358  0.3245  0.1506
   57SAPC   C12 4146   2.771   4.015  10.842  0.7056 -0.1369  0.3940
   57SAPC  H12A 4147   2.871   3.986  10.872  0.2594 -1.4114  0.6859
   57SAPC  H12B 4148   2.789   4.099  10.776 -2.4925 -0.6286 -1.2160
   57SAPC   C13 4149   2.555   4.105  10.939 -0.6904 -0.3986 -0.1308
   57SAPC  H13A 4150   2.531   4.169  10.856 -1.7126  1.3497  1.4657
   57SAPC  H13B 4151   2.492   4.019  10.923 -2.0504  0.6482 -0.4822
   57SAPC  H13C 4152   2.520   4.146  11.033 -1.6016 -1.0250 -0.1897
   57SAPC   C14 4153   2.699   3.955  11.066  0.1399  0.7302  0.2032
   57SAPC  H14A 4154   2.630   3.975  11.147 -0.3606 -0.2205  0.0189
   57SAPC  H14B 4155   2.670   3.865  11.015 -1.2218  0.7702  0.9033
   57SAPC  H14C 4156   2.793   3.930  11.114 -0.2808 -1.8581 -0.2783
   57SAPC   C15 4157   2.763   4.185  11.011  0.2143 -0.6681  0.3002
   57SAPC  H15A 4158   2.728   4.205  11.111  0.4143 -3.1553  0.9051
   57SAPC  H15B 4159   2.869   4.165  11.022  0.0717 -1.1406  0.8282
   57SAPC  H15C 4160   2.740   4.266  10.943 -3.7779 -1.1227  0.9918
   57SAPC   C11 4161   2.697   3.908  10.767  0.0583 -0.1151  0.2895
   57SAPC  H11A 4162   2.740   3.882  10.668 -0.4365 -2.1663  0.5763
   57SAPC  H11B 4163   2.598   3.945  10.734  0.9359  2.8417  0.8249
   57SAPC     P 4164   2.774   3.674  10.849 -0.0053 -0.0445  0.2329
   57SAPC   O13 4165   2.915   3.719  10.874 -0.2570 -0.7102 -0.1666
   57SAPC   O14 4166   2.718   3.574  10.942  0.4793 -0.3026 -0.1129
   57SAPC   O12 4167   2.669   3.788  10.838  0.3572 -0.5590 -0.7597
   57SAPC   O11 4168   2.763   3.619  10.697  0.1554  0.0906 -0.3557
   57SAPC    C1 4169   2.641   3.549  10.663  0.3897 -0.0895 -0.4644
   57SAPC    HA 4170   2.665   3.444  10.691  2.1706  0.7074  1.1145
   57SAPC    HB 4171   2.557   3.576  10.730  0.2712  0.6439 -0.9020
   57SAPC    C2 4172   2.599   3.570  10.515 -0.5002 -0.3989 -0.9890
   57SAPC    HS 4173   2.520   3.495  10.492  1.7145 -2.7754 -1.2112
   57SAPC   O21 4174   2.708   3.541  10.423 -0.9023 -0.4592  0.1927
   57SAPC   C21 4175   2.740   3.414  10.411 -0.4044  0.1716  0.1641
   57SAPC   O22 4176   2.685   3.321  10.468 -0.5715  0.2017  0.2168
   57SAPC   C22 4177   2.859   3.407  10.325  0.3274  0.0334  0.9360
   57SAPC   H2R 4178   2.913   3.504  10.319  1.0583 -0.2772  2.2643
   57SAPC   H2S 4179   2.927   3.333  10.373 -0.4010 -1.3000 -0.0603
   57SAPC    C3 4180   2.537   3.707  10.496 -0.8767  0.6190 -0.2376
   57SAPC    HX 4181   2.612   3.787  10.519 -0.5248 -0.3137  2.0118
   57SAPC    HY 4182   2.459   3.709  10.575  0.6366 -0.3240  1.3378
   57SAPC   O31 4183   2.483   3.700  10.367 -0.3690 -0.4196  0.0971
   57SAPC   C31 4184   2.412   3.814  10.343 -0.1757  0.1068 -0.2990
   57SAPC   O32 4185   2.393   3.908  10.416  0.6215  0.1340  0.4936
   57SAPC   C32 4186   2.355   3.806  10.206  1.0912  0.0836  0.0166
   57SAPC   H2X 4187   2.261   3.747  10.203  1.6129 -0.7588  0.0813
   57SAPC   H2Y 4188   2.433   3.759  10.142  1.7165  0.5600  0.4170
   57SAPC   C23 4189   2.823   3.363  10.187 -0.7570  0.7409 -0.0001
   57SAPC   H3R 4190   2.774   3.265  10.204 -1.9446  1.3588  0.1898
   57SAPC   H3S 4191   2.919   3.343  10.135 -1.8140 -2.1946 -0.9233
   57SAPC   C24 4192   2.743   3.461  10.106 -0.9092  0.7589  0.6594
   57SAPC   H4R 4193   2.776   3.439  10.002 -1.4320  0.5646  0.5278
   57SAPC   H4S 4194   2.772   3.566  10.125  1.4422  0.1989  0.2783
   57SAPC   C25 4195   2.593   3.448  10.112 -0.0689  0.2641  0.3758
   57SAPC   H5R 4196   2.556   3.492  10.206 -0.3109 -0.4762  0.6309
   57SAPC   C26 4197   2.518   3.399  10.010 -0.6156 -0.1424 -0.7132
   57SAPC   H6R 4198   2.408   3.402  10.021 -0.5483  0.3898 -0.1773
   57SAPC   C27 4199   2.565   3.334   9.881 -0.3204 -0.4042  0.8691
   57SAPC   H7R 4200   2.530   3.230   9.871 -0.1922 -0.4017  0.3694
   57SAPC   H7S 4201   2.675   3.316   9.871 -0.1265  0.9809  0.3113
   57SAPC   C28 4202   2.526   3.405   9.755 -0.0684  0.2743 -0.2529
   57SAPC   H8R 4203   2.417   3.422   9.743 -0.2415 -0.8534 -0.2995
   57SAPC   C29 4204   2.608   3.463   9.662  0.1442 -0.7880 -0.5660
   57SAPC   H9R 4205   2.561   3.530   9.589  0.9836  1.3437  0.8072
   57SAPC  C210 4206   2.760   3.458   9.653 -0.0285  0.8938  0.0243
   57SAPC  H10R 4207   2.799   3.414   9.748  1.3481 -0.7352 -1.2811
   57SAPC  H10S 4208   2.806   3.559   9.648 -2.1896  1.9719  1.1133
   57SAPC  C211 4209   2.823   3.371   9.546 -0.6764 -0.7722 -0.9048
   57SAPC  H11R 4210   2.835   3.267   9.581 -0.9343 -0.6679 -0.4951
   57SAPC  C212 4211   2.876   3.407   9.428  0.2954 -0.3565  0.1451
   57SAPC  H12R 4212   2.912   3.328   9.360  0.5373  0.4414 -0.6678
   57SAPC  C213 4213   2.876   3.553   9.376  0.2023  0.2951  0.2349
   57SAPC  H13R 4214   2.789   3.605   9.422  0.2762  1.9830 -1.4777
   57SAPC  H13S 4215   2.860   3.547   9.266  0.5818 -0.9076  0.2369
   57SAPC  C214 4216   3.003   3.636   9.397  0.3151  0.4817 -0.0766
   57SAPC  H14R 4217   3.085   3.597   9.459  2.0572  2.1979 -1.1980
   57SAPC  C215 4218   3.015   3.763   9.378  0.4585  0.1930 -0.1072
   57SAPC  H15R 4219   3.112   3.812   9.395 -0.1531  1.6835 -0.8650
   57SAPC  C216 4220   2.903   3.843   9.307  0.1076  0.2321 -0.3260
   57SAPC  H16R 4221   2.901   3.950   9.337 -0.9894 -0.6020  2.8101
   57SAPC  H16S 4222   2.800   3.813   9.336  0.4895 -2.2821 -1.5084
   57SAPC  C217 4223   2.913   3.843   9.155  0.5671 -0.3817  0.4057
   57SAPC  H17R 4224   2.918   3.738   9.120 -0.7651 -0.2106 -0.3172
   57SAPC  H17S 4225   3.009   3.886   9.118 -0.1305  0.4394 -0.4878
   57SAPC  C218 4226   2.804   3.915   9.075  0.1800  0.7286  0.8026
   57SAPC  H18R 4227   2.835   4.022   9.067 -0.8250  0.9618 -0.1446
   57SAPC  H18S 4228   2.713   3.913   9.139  2.2636  2.1847  3.9778
   57SAPC  C219 4229   2.764   3.869   8.937  0.1818 -0.0542  0.7121
   57SAPC  H19R 4230   2.682   3.934   8.902 -0.4086 -1.2661 -0.2063
   57SAPC  H19S 4231   2.730   3.763   8.930  0.4109 -0.2524  2.3006
   57SAPC  C220 4232   2.885   3.899   8.850 -0.5002 -0.0756  0.0801
   57SAPC  H20R 4233   2.926   4.001   8.868  0.2874 -0.9384  3.6309
   57SAPC  H20S 4234   2.865   3.895   8.741  1.4434 -2.6221 -0.2369
   57SAPC  H20T 4235   2.965   3.823   8.862 -1.4125 -0.6875  2.7878
   57SAPC   C33 4236   2.312   3.944  10.136  0.4749  0.2548 -0.9857
   57SAPC   H3X 4237   2.402   4.007  10.119  2.5863 -2.0762  1.2461
   57SAPC   H3Y 4238   2.239   3.991  10.204  1.9552  0.5656  0.4160
   57SAPC   C34 4239   2.242   3.921  10.007  0.3608  0.0047  0.2143
   57SAPC   H4X 4240   2.184   4.010   9.974  0.3573 -0.2773 -0.5587
   57SAPC   H4Y 4241   2.169   3.840  10.024  1.3129 -0.8294  0.3838
   57SAPC   C35 4242   2.333   3.872   9.894  0.4795 -0.0111 -0.4908
   57SAPC   H5X 4243   2.371   3.771   9.918 -1.6647 -0.9949 -1.0796
   57SAPC   H5Y 4244   2.415   3.945   9.876  0.4952  0.3583  1.0469
   57SAPC   C36 4245   2.271   3.872   9.758  0.1284 -0.3048 -0.5331
   57SAPC   H6X 4246   2.219   3.967   9.735  0.4659  0.1732  0.6171
   57SAPC   H6Y 4247   2.193   3.793   9.758 -1.0631  0.8451 -0.9463
   57SAPC   C37 4248   2.376   3.838   9.648  0.0380  0.4448 -0.3083
   57SAPC   H7X 4249   2.423   3.742   9.679  0.0466  0.4261 -0.3805
   57SAPC   H7Y 4250   2.455   3.915   9.637  0.5699 -0.0997 -0.3344
   57SAPC   C38 4251   2.319   3.812   9.514 -0.3554  0.0295  0.2548
   57SAPC   H8X 4252   2.257   3.901   9.491  2.2407  2.2682  1.5563
   57SAPC   H8Y 4253   2.251   3.725   9.523 -1.0137  0.7118  2.1485
   57SAPC   C39 4254   2.429   3.791   9.413  0.1006  0.4359  0.0439
   57SAPC   H9X 4255   2.468   3.688   9.425 -0.2177  0.3600  0.4763
   57SAPC   H9Y 4256   2.510   3.867   9.419 -0.2752  0.8143  0.3893
   57SAPC  C310 4257   2.367   3.804   9.274 -0.4647  0.0105 -0.0081
   57SAPC  H10X 4258   2.285   3.730   9.268 -0.7004  0.3520 -1.1276
   57SAPC  H10Y 4259   2.435   3.766   9.196 -0.5705 -0.6782  0.2333
   57SAPC  C311 4260   2.316   3.947   9.245 -0.3825  0.3950  0.1274
   57SAPC  H11X 4261   2.382   4.017   9.301 -0.8813 -0.6601  2.0814
   57SAPC  H11Y 4262   2.213   3.955   9.286 -1.6142 -3.2956 -2.0158
   57SAPC  C312 4263   2.318   3.990   9.102 -0.0373  0.0530 -0.4385
   57SAPC  H12X 4264   2.418   3.973   9.058 -0.5940 -0.6401 -1.4582
   57SAPC  H12Y 4265   2.298   4.099   9.094  1.0437  0.4299  1.5623
   57SAPC  C313 4266   2.222   3.905   9.024  0.4918  0.6297 -0.8488
   57SAPC  H13X 4267   2.123   3.953   9.040  0.2768 -0.5301  1.4952
   57SAPC  H13Y 4268   2.205   3.802   9.062 -3.4365  2.4847  2.8710
   57SAPC  C314 4269   2.250   3.913   8.869  0.1848 -0.2737  0.5564
   57SAPC  H14X 4270   2.344   3.857   8.850  0.6945  0.7545 -0.0141
   57SAPC  H14Y 4271   2.243   4.021   8.845  0.3836 -0.0737  1.3807
   57SAPC  C315 4272   2.142   3.831   8.796 -0.6463 -0.0773  0.4339
   57SAPC  H15X 4273   2.041   3.865   8.827 -0.3338  0.8171  0.4765
   57SAPC  H15Y 4274   2.153   3.726   8.833  1.4516  0.3912  1.2278
   57SAPC  C316 4275   2.155   3.837   8.640 -0.0131 -0.6288 -0.7382
   57SAPC  H16X 4276   2.262   3.819   8.616  0.6461 -0.0740  1.6557
   57SAPC  H16Y 4277   2.126   3.942   8.617 -0.1829 -0.5875 -0.3451
   57SAPC  C317 4278   2.059   3.739   8.574 -0.1973  0.3859  0.2279
   57SAPC  H17X 4279   1.952   3.755   8.600 -0.8907 -2.7556 -0.5453
   57SAPC  H17Y 4280   2.094   3.642   8.614 -1.1528  0.6189  1.6901
   57SAPC  C318 4281   2.065   3.756   8.421  0.0467  0.1573 -0.0851
   57SAPC  H18X 4282   2.171   3.761   8.387  0.8142  0.8658  2.2993
   57SAPC  H18Y 4283   2.005   3.846   8.397 -0.6459 -0.4026 -0.4708
   57SAPC  H18Z 4284   2.010   3.668   8.382 -1.7268 -0.0075  2.6751
   58SAPC     N 4285   4.469   1.191  10.689 -0.6253  0.1855 -0.1247
   58SAPC   C12 4286   4.608   1.214  10.616  0.1956  0.2805 -0.2963
   58SAPC  H12A 4287   4.651   1.116  10.600  0.6623  0.5629 -0.7743
   58SAPC  H12B 4288   4.674   1.260  10.688 -0.8529  0.2679  0.6857
   58SAPC   C13 4289   4.382   1.103  10.611 -0.4183  0.1830  0.0975
   58SAPC  H13A 4290   4.435   1.010  10.600  1.8047  1.2933  1.2250
   58SAPC  H13B 4291   4.290   1.075  10.662  0.2811  0.8241  1.7591
   58SAPC  H13C 4292   4.348   1.136  10.514 -1.0956 -0.6908  0.0245
   58SAPC   C14 4293   4.501   1.125  10.823  0.3027  1.0817  0.3718
   58SAPC  H14A 4294   4.542   1.026  10.810  1.9659  2.1453 -3.4504
   58SAPC  H14B 4295   4.574   1.176  10.884 -0.4731 -1.2565  3.3144
   58SAPC  H14C 4296   4.408   1.112  10.876  2.2509 -0.0582  3.6592
   58SAPC   C15 4297   4.406   1.320  10.719  0.1351 -0.2009  0.5617
   58SAPC  H15A 4298   4.309   1.299  10.760  0.2897  0.7696  1.4395
   58SAPC  H15B 4299   4.467   1.370  10.793  0.7170 -1.7003  1.1221
   58SAPC  H15C 4300   4.400   1.384  10.632  0.5566 -0.1632  0.5593
   58SAPC   C11 4301   4.598   1.295  10.485 -0.0918  0.2950  0.4959
   58SAPC  H11A 4302   4.548   1.230  10.411 -0.0447  0.2197  0.5298
   58SAPC  H11B 4303   4.693   1.325  10.435 -2.6473  1.8808 -3.6206
   58SAPC     P 4304   4.581   1.556  10.521  0.1782 -0.0822 -0.2033
   58SAPC   O13 4305   4.478   1.614  10.602  0.3934 -0.6004 -0.0767
   58SAPC   O14 4306   4.721   1.546  10.568 -0.1916  0.3586 -0.0661
   58SAPC   O12 4307   4.523   1.414  10.482  0.0830  0.6415 -0.3380
   58SAPC   O11 4308   4.597   1.621  10.380  0.1818 -0.0799 -0.6038
   58SAPC    C1 4309   4.512   1.615  10.266  0.3757  0.3233  0.3004
   58SAPC    HA 4310   4.418   1.564  10.295  0.4242 -1.0570 -1.8906
   58SAPC    HB 4311   4.475   1.714  10.234  0.3230  0.6967  1.4809
   58SAPC    C2 4312   4.594   1.543  10.160  0.5985  0.3075 -0.2821
   58SAPC    HS 4313   4.639   1.451  10.201  0.6126 -0.6587 -2.4124
   58SAPC   O21 4314   4.693   1.643  10.114 -0.0002 -0.1760 -0.1393
   58SAPC   C21 4315   4.806   1.582  10.078 -0.4763 -0.0314 -0.2666
   58SAPC   O22 4316   4.832   1.465  10.081 -0.3528  0.0628 -0.1348
   58SAPC   C22 4317   4.902   1.692  10.041  0.3883 -0.2471  0.0884
   58SAPC   H2R 4318   4.906   1.758  10.130  0.1164  0.0738 -0.1390
   58SAPC   H2S 4319   5.006   1.654  10.031  0.6862  0.8870 -1.1982
   58SAPC    C3 4320   4.494   1.498  10.057 -0.4987 -0.1826  0.6355
   58SAPC    HX 4321   4.442   1.590  10.023  2.5034  2.1272  2.0230
   58SAPC    HY 4322   4.413   1.438  10.103 -0.2247 -0.1868  1.1098
   58SAPC   O31 4323   4.547   1.436   9.936 -0.2267 -0.4006  0.0659
   58SAPC   C31 4324   4.614   1.322   9.963  0.1130 -0.2521 -0.6511
   58SAPC   O32 4325   4.612   1.257  10.069  0.2393  0.0020  0.0802
   58SAPC   C32 4326   4.686   1.283   9.838  0.8713 -0.7612 -0.4057
   58SAPC   H2X 4327   4.784   1.336   9.842  0.5968 -0.0149 -2.6091
   58SAPC   H2Y 4328   4.633   1.322   9.748  2.4381 -0.3382 -1.1664
   58SAPC   C23 4329   4.862   1.785   9.922  0.1413  0.1632  0.5272
   58SAPC   H3R 4330   4.774   1.843   9.958  2.5130  2.6024  2.6046
   58SAPC   H3S 4331   4.839   1.724   9.832 -1.8271  2.8698 -0.8772
   58SAPC   C24 4332   4.970   1.896   9.894 -1.1690 -0.4300  0.0416
   58SAPC   H4R 4333   5.002   1.922   9.997 -1.1639  1.8644 -0.5213
   58SAPC   H4S 4334   4.930   1.981   9.835  2.7149  0.5907 -1.2392
   58SAPC   C25 4335   5.083   1.840   9.814 -0.4291 -0.4113  0.3341
   58SAPC   H5R 4336   5.153   1.790   9.882 -2.0085 -2.6971  0.3187
   58SAPC   C26 4337   5.116   1.862   9.683 -0.1588  0.0337  0.0592
   58SAPC   H6R 4338   5.201   1.806   9.642 -1.0649 -1.6671  0.4742
   58SAPC   C27 4339   5.031   1.953   9.597  0.3837 -0.7760  0.4144
   58SAPC   H7R 4340   5.087   2.048   9.586  0.2809 -0.4325  2.6968
   58SAPC   H7S 4341   4.936   1.991   9.641  0.3263  2.5006 -2.2649
   58SAPC   C28 4342   4.982   1.896   9.471  0.5884 -0.1041  0.1863
   58SAPC   H8R 4343   4.879   1.858   9.478  0.5400 -0.0117 -0.0085
   58SAPC   C29 4344   5.056   1.895   9.359 -0.5296 -0.4156  0.5322
   58SAPC   H9R 4345   5.010   1.867   9.263  0.0624 -0.7652  0.3490
   58SAPC  C210 4346   5.206   1.943   9.349  0.2559  0.1132 -0.1407
   58SAPC  H10R 4347   5.253   1.846   9.321  0.4678  0.5360 -1.2723
   58SAPC  H10S 4348   5.242   1.986   9.444 -1.9945  1.1050  0.2988
   58SAPC  C211 4349   5.206   2.042   9.232 -0.2326 -0.0470  0.2966
   58SAPC  H11R 4350   5.137   2.128   9.235 -0.4159 -0.1777 -0.1213
   58SAPC  C212 4351   5.269   2.035   9.117  0.7115  0.0042 -0.9592
   58SAPC  H12R 4352   5.254   2.108   9.036  1.7321  2.0552  0.6509
   58SAPC  C213 4353   5.353   1.919   9.071  0.0211  0.6251  0.5681
   58SAPC  H13R 4354   5.307   1.825   9.107 -0.5235  1.5497  2.3440
   58SAPC  H13S 4355   5.444   1.919   9.134  1.1020 -1.2915 -0.9587
   58SAPC  C214 4356   5.382   1.929   8.922  0.0418  0.2363  0.2803
   58SAPC  H14R 4357   5.469   1.987   8.888  0.3928 -1.4446 -1.8615
   58SAPC  C215 4358   5.309   1.880   8.823 -0.5251  0.3761  0.3611
   58SAPC  H15R 4359   5.333   1.888   8.716  2.2202  2.3642  1.0651
   58SAPC  C216 4360   5.185   1.811   8.847 -0.1049 -0.1822 -0.3293
   58SAPC  H16R 4361   5.118   1.859   8.773 -0.3942  1.0892  0.7460
   58SAPC  H16S 4362   5.136   1.837   8.943  2.5376 -0.4892  1.1503
   58SAPC  C217 4363   5.200   1.666   8.808  0.1492 -0.4294 -0.0526
   58SAPC  H17R 4364   5.279   1.621   8.872 -0.6685  0.0006  1.2923
   58SAPC  H17S 4365   5.226   1.663   8.700  0.6370  0.4810  0.0352
   58SAPC  C218 4366   5.069   1.600   8.812 -0.2904 -0.4506 -0.4461
   58SAPC  H18R 4367   4.989   1.643   8.748 -0.6532 -0.4747 -0.0131
   58SAPC  H18S 4368   5.034   1.600   8.917 -0.5873 -1.1739 -0.5445
   58SAPC  C219 4369   5.085   1.454   8.757  0.4011 -0.4604 -0.7508
   58SAPC  H19R 4370   5.138   1.453   8.660  3.2546 -0.0786  0.7672
   58SAPC  H19S 4371   4.980   1.418   8.748 -0.0359 -0.4695  3.3156
   58SAPC  C220 4372   5.153   1.357   8.854  0.1696  0.4002 -0.4001
   58SAPC  H20R 4373   5.174   1.259   8.805 -0.2175  0.1087 -0.0005
   58SAPC  H20S 4374   5.084   1.329   8.937 -0.0877  0.9804 -0.4197
   58SAPC  H20T 4375   5.243   1.401   8.901  0.1218  0.5273 -0.4309
   58SAPC   C33 4376   4.720   1.132   9.830 -0.1334  0.5300 -0.2869
   58SAPC   H3X 4377   4.635   1.070   9.795 -1.1787  3.0195 -2.3623
   58SAPC   H3Y 4378   4.743   1.104   9.935  0.7549  0.4486 -0.4969
   58SAPC   C34 4379   4.852   1.085   9.755  0.4599  0.6303 -0.1821
   58SAPC   H4X 4380   4.864   0.976   9.771  2.0150  1.1486  2.4045
   58SAPC   H4Y 4381   4.943   1.132   9.798  1.0773 -1.3413  0.7138
   58SAPC   C35 4382   4.853   1.107   9.601  0.3915 -0.2524 -0.1634
   58SAPC   H5X 4383   4.836   1.216   9.586 -0.1424 -0.3338 -0.1549
   58SAPC   H5Y 4384   4.762   1.053   9.567  1.2374 -0.5417 -1.9798
   58SAPC   C36 4385   4.976   1.044   9.528  0.2623  0.3070 -0.0439
   58SAPC   H6X 4386   4.998   0.946   9.575 -0.4291 -0.5675 -1.4987
   58SAPC   H6Y 4387   5.056   1.120   9.545  1.4625 -1.0344  0.4485
   58SAPC   C37 4388   4.943   1.039   9.381  0.7518  0.5088  0.0606
   58SAPC   H7X 4389   4.899   1.136   9.351 -1.2609 -0.0552  1.0693
   58SAPC   H7Y 4390   4.858   0.973   9.350  1.8896 -1.7156  1.5260
   58SAPC   C38 4391   5.069   1.008   9.298 -0.3478  0.0803  0.3109
   58SAPC   H8X 4392   5.114   0.910   9.321  1.2315  0.7683  0.1752
   58SAPC   H8Y 4393   5.156   1.073   9.321 -0.4781 -0.2616  1.8443
   58SAPC   C39 4394   5.033   1.001   9.156 -0.1866 -0.6586 -0.6475
   58SAPC   H9X 4395   5.023   1.102   9.112 -1.4573 -0.3463  0.3456
   58SAPC   H9Y 4396   4.938   0.944   9.145 -0.3692 -0.3515 -0.6398
   58SAPC  C310 4397   5.138   0.921   9.072  0.0989  0.7840  0.4097
   58SAPC  H10X 4398   5.159   0.822   9.119 -1.7769 -0.2864 -0.9372
   58SAPC  H10Y 4399   5.233   0.978   9.086 -0.8892  2.4734  0.3872
   58SAPC  C311 4400   5.102   0.901   8.922 -0.2647  0.0674  0.7523
   58SAPC  H11X 4401   5.062   0.998   8.888 -0.3067 -0.5492 -1.0242
   58SAPC  H11Y 4402   5.024   0.822   8.914  2.0286 -2.2094 -0.1405
   58SAPC  C312 4403   5.222   0.849   8.849  0.0505 -0.2810 -0.9191
   58SAPC  H12X 4404   5.252   0.762   8.912 -2.5058 -0.1638  0.5206
   58SAPC  H12Y 4405   5.302   0.924   8.872  1.3889 -2.1751  0.8243
   58SAPC  C313 4406   5.205   0.803   8.703  0.2094  0.9313 -1.0105
   58SAPC  H13X 4407   5.203   0.897   8.644  1.1876  1.6237  0.0357
   58SAPC  H13Y 4408   5.106   0.753   8.691 -0.1585  0.8795  1.8106
   58SAPC  C314 4409   5.319   0.715   8.638 -0.6847 -0.2350  0.1080
   58SAPC  H14X 4410   5.310   0.612   8.680  0.9222 -1.3983 -2.2591
   58SAPC  H14Y 4411   5.419   0.755   8.667 -0.4231 -0.7332 -0.0994
   58SAPC  C315 4412   5.310   0.706   8.484  0.1920 -0.1279 -0.7968
   58SAPC  H15X 4413   5.346   0.803   8.444  0.0304 -0.4957 -1.8406
   58SAPC  H15Y 4414   5.212   0.679   8.440  0.3416 -1.5092 -0.3087
   58SAPC  C316 4415   5.390   0.590   8.424  0.0821 -0.0182 -0.1226
   58SAPC  H16X 4416   5.347   0.500   8.473 -2.0474  1.4407  0.7620
   58SAPC  H16Y 4417   5.498   0.602   8.446 -0.3223  0.1071  1.9313
   58SAPC  C317 4418   5.379   0.576   8.274 -0.0201 -0.3723 -0.1684
   58SAPC  H17X 4419   5.396   0.676   8.229  2.0797  0.3101  1.9817
   58SAPC  H17Y 4420   5.273   0.554   8.249  0.5925 -0.8468 -2.4556
   58SAPC  C318 4421   5.479   0.473   8.220 -0.1798  0.0480  0.1461
   58SAPC  H18X 4422   5.465   0.472   8.110 -1.4690  0.9446  0.2973
   58SAPC  H18Y 4423   5.468   0.369   8.257 -1.0396 -0.2043 -0.7944
   58SAPC  H18Z 4424   5.574   0.515   8.261 -0.2236  3.2551 -2.8394
   59SAPC     N 4425   6.037   2.962  11.192 -0.3096 -0.0666  0.1033
   59SAPC   C12 4426   6.160   2.918  11.120 -0.0522  0.2361 -0.3829
   59SAPC  H12A 4427   6.235   2.895  11.194  0.5293  2.5012 -0.2239
   59SAPC  H12B 4428   6.203   2.999  11.063  1.7599 -0.7259 -0.4165
   59SAPC   C13 4429   5.933   3.025  11.093 -0.0341 -0.4383  0.2459
   59SAPC  H13A 4430   5.971   3.108  11.035  2.8370 -1.0492  1.1428
   59SAPC  H13B 4431   5.910   2.942  11.027 -0.8828 -0.8591  1.0530
   59SAPC  H13C 4432   5.838   3.058  11.132 -0.5677 -1.0771 -0.4767
   59SAPC   C14 4433   5.966   2.844  11.246  1.1006  0.1425  0.5704
   59SAPC  H14A 4434   6.015   2.784  11.322  2.4057  3.5645  2.5212
   59SAPC  H14B 4435   5.873   2.882  11.287  1.1606  1.4975 -0.5294
   59SAPC  H14C 4436   5.937   2.775  11.168 -1.1512  1.6477  0.0403
   59SAPC   C15 4437   6.067   3.070  11.300  0.3465  0.6200 -0.5453
   59SAPC  H15A 4438   6.104   3.158  11.249  0.9442  0.7642  0.1311
   59SAPC  H15B 4439   5.980   3.110  11.350  0.5456  1.1720 -0.6371
   59SAPC  H15C 4440   6.142   3.038  11.370 -1.2768  0.2061  1.0399
   59SAPC   C11 4441   6.132   2.791  11.032 -0.0168  0.1986 -0.2371
   59SAPC  H11A 4442   6.217   2.792  10.961  0.3985  0.5916  0.2562
   59SAPC  H11B 4443   6.038   2.805  10.975  0.7710  0.6131 -1.4353
   59SAPC     P 4444   6.277   2.598  11.135  0.3430 -0.1838 -0.1590
   59SAPC   O13 4445   6.370   2.701  11.188 -0.3750 -0.3701  0.0208
   59SAPC   O14 4446   6.257   2.473  11.211 -0.0767 -0.3341  0.0941
   59SAPC   O12 4447   6.136   2.670  11.103 -0.1557  0.4884 -0.4008
   59SAPC   O11 4448   6.317   2.560  10.982 -1.0680 -0.0636 -0.2088
   59SAPC    C1 4449   6.269   2.444  10.922 -0.2577 -0.7553  0.3193
   59SAPC    HA 4450   6.316   2.350  10.956  1.3512  0.5813  1.8964
   59SAPC    HB 4451   6.164   2.442  10.959  0.2811  0.8516  2.0265
   59SAPC    C2 4452   6.259   2.447  10.768  0.7369  0.5660  0.1085
   59SAPC    HS 4453   6.203   2.363  10.722  0.9914  0.3788  0.1441
   59SAPC   O21 4454   6.385   2.460  10.703  0.2663 -0.2998  0.2231
   59SAPC   C21 4455   6.452   2.346  10.705  0.4132 -0.2139 -0.9865
   59SAPC   O22 4456   6.400   2.240  10.737 -0.0454  0.0759 -0.1605
   59SAPC   C22 4457   6.597   2.357  10.665  0.1021 -0.2900  0.2996
   59SAPC   H2R 4458   6.632   2.457  10.696  1.0568 -0.5900  0.2065
   59SAPC   H2S 4459   6.657   2.276  10.711  1.3949  0.4059 -0.1151
   59SAPC    C3 4460   6.162   2.559  10.718  0.2713  0.8994  0.7811
   59SAPC    HX 4461   6.190   2.651  10.773  0.2959  0.8702  0.8165
   59SAPC    HY 4462   6.056   2.533  10.743 -0.0284  0.9176 -0.4556
   59SAPC   O31 4463   6.155   2.576  10.568  0.8507 -0.0828  0.2698
   59SAPC   C31 4464   6.250   2.653  10.518 -0.8750  0.5095  0.1509
   59SAPC   O32 4465   6.317   2.731  10.580  0.8364 -0.4033  0.1507
   59SAPC   C32 4466   6.256   2.629  10.364  0.2076 -0.6156 -0.1882
   59SAPC   H2X 4467   6.168   2.679  10.318  1.8854  2.3810 -0.2429
   59SAPC   H2Y 4468   6.246   2.519  10.347 -1.4790 -0.5210  0.1431
   59SAPC   C23 4469   6.621   2.341  10.516 -0.0657  0.3288 -0.3347
   59SAPC   H3R 4470   6.598   2.439  10.469 -1.4281  0.3377  0.3296
   59SAPC   H3S 4471   6.552   2.272  10.462  0.0714 -1.3549  1.6088
   59SAPC   C24 4472   6.763   2.285  10.488  0.3088  0.6052  0.2022
   59SAPC   H4R 4473   6.780   2.271  10.379 -0.5426  0.5794  0.0732
   59SAPC   H4S 4474   6.767   2.189  10.544 -0.0688  0.3124 -0.2721
   59SAPC   C25 4475   6.881   2.362  10.544  0.0495  0.5318 -0.0291
   59SAPC   H5R 4476   6.894   2.356  10.654  0.8670 -0.7006 -0.1830
   59SAPC   C26 4477   6.976   2.429  10.470  0.1455 -0.4763 -0.0530
   59SAPC   H6R 4478   7.049   2.492  10.523 -0.8715  2.2258 -1.7753
   59SAPC   C27 4479   6.980   2.447  10.315  0.3824  0.0020  0.0670
   59SAPC   H7R 4480   7.017   2.351  10.273 -1.5617 -1.1212  0.8212
   59SAPC   H7S 4481   7.058   2.523  10.298  0.1929  0.3190  0.5863
   59SAPC   C28 4482   6.852   2.487  10.243  0.2997 -0.8267  0.6664
   59SAPC   H8R 4483   6.788   2.560  10.295 -0.2991  0.7599 -2.2044
   59SAPC   C29 4484   6.825   2.454  10.117  0.6817 -0.0439 -0.2847
   59SAPC   H9R 4485   6.737   2.500  10.068  0.4851 -0.0009  0.1050
   59SAPC  C210 4486   6.907   2.361  10.025  1.0090  0.6445 -0.0621
   59SAPC  H10R 4487   6.838   2.345   9.939 -2.7515  2.8918  2.3768
   59SAPC  H10S 4488   6.910   2.262  10.076  0.9678  0.4806 -0.3736
   59SAPC  C211 4489   7.053   2.396   9.990  0.0254  0.0368 -0.3160
   59SAPC  H11R 4490   7.115   2.377  10.078  0.3193 -3.5393 -1.1903
   59SAPC  C212 4491   7.113   2.424   9.872  0.1355 -0.1826  0.3491
   59SAPC  H12R 4492   7.222   2.427   9.861  0.1060 -3.4528 -1.4919
   59SAPC  C213 4493   7.038   2.425   9.740  0.0181 -0.2111  0.3512
   59SAPC  H13R 4494   6.959   2.348   9.730  0.6610 -1.1784  2.4611
   59SAPC  H13S 4495   7.109   2.395   9.659  0.8191 -0.0797  0.9990
   59SAPC  C214 4496   6.970   2.556   9.702  0.2615 -1.2283 -0.8816
   59SAPC  H14R 4497   6.929   2.602   9.792 -1.4642 -0.7588 -1.8890
   59SAPC  C215 4498   6.976   2.627   9.589  0.1123  0.1210 -0.5254
   59SAPC  H15R 4499   6.911   2.715   9.577  1.6833  0.9654 -3.3805
   59SAPC  C216 4500   7.030   2.579   9.450 -0.5632  0.2288  0.2030
   59SAPC  H16R 4501   7.109   2.504   9.469  1.0669  1.4613 -1.5500
   59SAPC  H16S 4502   7.085   2.664   9.406  2.9644 -2.5343 -0.9446
   59SAPC  C217 4503   6.924   2.526   9.347 -0.3471  0.3639  0.1732
   59SAPC  H17R 4504   6.843   2.592   9.308  0.8965  1.6713 -0.2323
   59SAPC  H17S 4505   6.873   2.441   9.397 -0.3858 -1.2052 -2.4911
   59SAPC  C218 4506   6.992   2.464   9.223 -0.7332  0.1125  0.0933
   59SAPC  H18R 4507   7.082   2.408   9.257  0.4697  2.3063  0.6903
   59SAPC  H18S 4508   7.016   2.550   9.157  0.2826  0.3081  0.7062
   59SAPC  C219 4509   6.894   2.363   9.162 -1.1291 -0.1239  0.4846
   59SAPC  H19R 4510   6.801   2.420   9.140 -2.5786 -1.9778  1.6560
   59SAPC  H19S 4511   6.870   2.283   9.235  0.2841 -1.8734 -0.9294
   59SAPC  C220 4512   6.942   2.298   9.026 -0.3724  0.6619 -0.1832
   59SAPC  H20R 4513   6.868   2.228   8.983 -0.9240  0.6629  0.7516
   59SAPC  H20S 4514   7.030   2.234   9.048 -0.6917  0.9997  2.1725
   59SAPC  H20T 4515   6.968   2.375   8.950  0.2313 -0.4898 -1.1657
   59SAPC   C33 4516   6.384   2.677  10.291  0.2757  0.4890  0.1120
   59SAPC   H3X 4517   6.478   2.661  10.347  1.3391 -0.0538 -1.7999
   59SAPC   H3Y 4518   6.384   2.786  10.274  0.8321  0.4177 -0.3407
   59SAPC   C34 4519   6.402   2.593  10.163 -0.4638  0.1891 -0.7063
   59SAPC   H4X 4520   6.301   2.565  10.125  0.2312  0.0162 -2.4876
   59SAPC   H4Y 4521   6.463   2.505  10.191 -0.4456  1.0005  1.9223
   59SAPC   C35 4522   6.472   2.671  10.047  0.1116  0.0504 -0.7593
   59SAPC   H5X 4523   6.576   2.693  10.076  0.0248 -0.4491 -0.0824
   59SAPC   H5Y 4524   6.425   2.772  10.034 -0.9545  0.0189  2.4039
   59SAPC   C36 4525   6.469   2.603   9.914 -0.2727  0.1291  0.4733
   59SAPC   H6X 4526   6.360   2.590   9.892 -0.5318  2.0608  0.4903
   59SAPC   H6Y 4527   6.502   2.498   9.928 -2.7923 -0.8701 -0.5948
   59SAPC   C37 4528   6.555   2.688   9.818 -0.5793  0.1637  0.0241
   59SAPC   H7X 4529   6.652   2.696   9.872 -0.5798  0.4944 -0.0245
   59SAPC   H7Y 4530   6.519   2.793   9.814  2.7349  1.3687  0.4436
   59SAPC   C38 4531   6.563   2.642   9.670 -0.5576  0.6099 -0.1764
   59SAPC   H8X 4532   6.465   2.608   9.631 -2.0240  3.0260  1.2731
   59SAPC   H8Y 4533   6.646   2.568   9.667 -1.3156 -0.2223 -0.5140
   59SAPC   C39 4534   6.592   2.760   9.574  0.7268  0.2065  0.7529
   59SAPC   H9X 4535   6.697   2.791   9.591  0.7245  0.7778 -0.2528
   59SAPC   H9Y 4536   6.530   2.849   9.597 -1.8016 -1.0563 -0.8195
   59SAPC  C310 4537   6.579   2.716   9.425 -0.3279  0.6788 -0.1764
   59SAPC  H10X 4538   6.481   2.668   9.402 -0.3661  0.5375  0.2778
   59SAPC  H10Y 4539   6.654   2.638   9.399 -0.8079 -0.4522  1.7489
   59SAPC  C311 4540   6.589   2.833   9.329 -1.4628 -0.5627 -0.1352
   59SAPC  H11X 4541   6.691   2.877   9.333 -0.9361 -1.8417  2.1912
   59SAPC  H11Y 4542   6.534   2.923   9.364  1.9146  1.8424 -0.7861
   59SAPC  C312 4543   6.565   2.804   9.178 -0.6391  0.0507 -0.1285
   59SAPC  H12X 4544   6.547   2.902   9.129  1.7924  1.3317  1.4139
   59SAPC  H12Y 4545   6.485   2.727   9.170  0.4595 -1.1302  0.0684
   59SAPC  C313 4546   6.695   2.736   9.117 -0.6003 -0.3980 -0.6396
   59SAPC  H13X 4547   6.717   2.643   9.173 -0.1706  0.4531  0.6087
   59SAPC  H13Y 4548   6.783   2.802   9.134 -0.5616  0.0993 -2.6220
   59SAPC  C314 4549   6.679   2.709   8.967  0.0726 -0.5368 -0.4776
   59SAPC  H14X 4550   6.625   2.795   8.921  3.7348  0.9482 -2.1498
   59SAPC  H14Y 4551   6.623   2.613   8.962 -1.1860  0.2919 -3.3374
   59SAPC  C315 4552   6.820   2.698   8.905  0.2525 -0.2477 -0.2295
   59SAPC  H15X 4553   6.890   2.626   8.953 -1.4449 -1.6194  0.2307
   59SAPC  H15Y 4554   6.867   2.798   8.914  0.8100 -0.5555  0.3542
   59SAPC  C316 4555   6.827   2.661   8.753 -0.7294  0.3186 -0.1925
   59SAPC  H16X 4556   6.736   2.601   8.730 -1.4050  0.4389  2.0273
   59SAPC  H16Y 4557   6.914   2.596   8.732  0.2297  1.3843  0.4000
   59SAPC  C317 4558   6.837   2.784   8.664 -0.5089 -0.2632  0.3620
   59SAPC  H17X 4559   6.759   2.859   8.691 -1.1156 -0.1919 -1.5292
   59SAPC  H17Y 4560   6.815   2.755   8.559  0.9630  3.7384 -1.1646
   59SAPC  C318 4561   6.966   2.871   8.658 -0.1360 -0.0128 -0.2983
   59SAPC  H18X 4562   7.044   2.812   8.607  0.8339  3.9359 -3.6188
   59SAPC  H18Y 4563   6.991   2.895   8.764 -1.0979  0.7638 -0.2406
   59SAPC  H18Z 4564   6.949   2.967   8.604  1.2092  1.4541  1.7803
   60SAPC     N 4565   0.706   0.284  10.836 -0.5655  0.1999 -0.3230
   60SAPC   C12 4566   0.814   0.387  10.811 -0.6071  0.0633  0.5817
   60SAPC  H12A 4567   0.904   0.332  10.788  0.6345  2.5942 -0.7347
   60SAPC  H12B 4568   0.829   0.456  10.893  0.5558  0.8271 -0.2699
   60SAPC   C13 4569   0.687   0.186  10.726  0.0130 -0.0477 -0.5310
   60SAPC  H13A 4570   0.647   0.228  10.636  1.6351 -0.1882 -1.3427
   60SAPC  H13B 4571   0.785   0.152  10.694 -0.1676 -0.2371 -0.8847
   60SAPC  H13C 4572   0.635   0.100  10.765  1.3783 -0.5880  0.1697
   60SAPC   C14 4573   0.747   0.188  10.940 -0.1446  0.0376 -0.5949
   60SAPC  H14A 4574   0.675   0.110  10.958  1.3178 -1.2156 -0.0636
   60SAPC  H14B 4575   0.840   0.144  10.908  1.0736  2.1451 -0.0414
   60SAPC  H14C 4576   0.773   0.240  11.031 -2.3916  1.4416 -0.7065
   60SAPC   C15 4577   0.575   0.348  10.874  0.0976 -0.6539  0.2133
   60SAPC  H15A 4578   0.546   0.403  10.786 -0.9715 -1.7504 -0.1257
   60SAPC  H15B 4579   0.492   0.281  10.888  0.2211 -1.3957 -2.3196
   60SAPC  H15C 4580   0.578   0.402  10.968  1.7660 -0.0101 -0.1712
   60SAPC   C11 4581   0.792   0.484  10.689  0.2961 -0.7944 -0.3334
   60SAPC  H11A 4582   0.770   0.418  10.603 -1.9363  0.1103 -0.4865
   60SAPC  H11B 4583   0.888   0.533  10.663 -0.2161 -0.5739 -1.8860
   60SAPC     P 4584   0.707   0.712  10.755 -0.1396 -0.2388 -0.2083
   60SAPC   O13 4585   0.595   0.798  10.727  0.4122  0.4524  0.0776
   60SAPC   O14 4586   0.749   0.711  10.903 -0.5380 -0.2351 -0.4090
   60SAPC   O12 4587   0.680   0.570  10.696  0.7246  0.2737  0.2256
   60SAPC   O11 4588   0.832   0.766  10.669 -0.1056  0.0327  0.6676
   60SAPC    C1 4589   0.849   0.901  10.642  0.0770  0.3139  0.0865
   60SAPC    HA 4590   0.760   0.939  10.588  0.7336  2.1624  0.2582
   60SAPC    HB 4591   0.869   0.954  10.738 -1.4912  0.2648  0.4534
   60SAPC    C2 4592   0.967   0.924  10.535 -0.6553 -0.5405  0.2272
   60SAPC    HS 4593   0.977   1.034  10.521 -0.9352 -0.7731 -1.8515
   60SAPC   O21 4594   0.923   0.860  10.411  0.8854  0.3252 -0.0143
   60SAPC   C21 4595   0.958   0.926  10.303  0.1972 -0.3498  0.3580
   60SAPC   O22 4596   1.023   1.028  10.304  0.5468 -0.1752 -0.7476
   60SAPC   C22 4597   0.914   0.852  10.175 -0.3757 -0.6657 -0.4094
   60SAPC   H2R 4598   0.971   0.757  10.168  2.4965  0.9636  0.3767
   60SAPC   H2S 4599   0.805   0.829  10.185 -0.5517 -1.1556 -2.9737
   60SAPC    C3 4600   1.105   0.878  10.585  0.0364 -0.5375 -0.5466
   60SAPC    HX 4601   1.102   0.768  10.606  0.7911 -0.1112  1.9567
   60SAPC    HY 4602   1.119   0.922  10.685 -2.8247 -1.1217  0.1558
   60SAPC   O31 4603   1.218   0.907  10.492  0.8058  0.2658  0.3579
   60SAPC   C31 4604   1.250   0.809  10.402  0.1759 -0.1524 -0.4365
   60SAPC   O32 4605   1.210   0.695  10.408  0.1048  0.3400  0.3683
   60SAPC   C32 4606   1.365   0.859  10.307  0.1221 -0.6242 -1.0885
   60SAPC   H2X 4607   1.469   0.852  10.346  0.5221 -0.7533 -2.1457
   60SAPC   H2Y 4608   1.342   0.966  10.284 -1.3828 -1.2065 -2.3480
   60SAPC   C23 4609   0.940   0.926  10.040  0.7360 -0.3188 -0.3849
   60SAPC   H3R 4610   1.050   0.942  10.035  0.5528  0.6362 -1.5861
   60SAPC   H3S 4611   0.884   1.022  10.038  0.2566 -0.5902  0.1346
   60SAPC   C24 4612   0.905   0.838   9.910 -0.0626 -0.3869 -0.2520
   60SAPC   H4R 4613   0.917   0.909   9.825 -1.9603 -1.6051 -1.5705
   60SAPC   H4S 4614   0.795   0.822   9.914 -0.3858  1.5564 -0.4974
   60SAPC   C25 4615   0.993   0.717   9.894  0.1014 -0.0033  0.8396
   60SAPC   H5R 4616   1.016   0.662   9.986  0.7412 -0.7970  0.2169
   60SAPC   C26 4617   1.041   0.673   9.774 -0.2700 -0.5054 -0.4817
   60SAPC   H6R 4618   1.094   0.580   9.800  1.2426  0.4869  0.1072
   60SAPC   C27 4619   1.029   0.720   9.632  0.3192 -0.7474  0.0575
   60SAPC   H7R 4620   1.119   0.702   9.570  0.6447  2.1816 -0.4242
   60SAPC   H7S 4621   1.018   0.831   9.637 -0.8495 -0.8968  1.0080
   60SAPC   C28 4622   0.908   0.664   9.562  0.2840  0.3182 -0.3044
   60SAPC   H8R 4623   0.841   0.629   9.642  0.9792  1.8728  0.9912
   60SAPC   C29 4624   0.886   0.641   9.427  0.2664 -0.0514 -0.4572
   60SAPC   H9R 4625   0.790   0.596   9.398  0.5013  0.2593 -1.7219
   60SAPC  C210 4626   0.975   0.668   9.305 -0.5631  0.0455 -0.1424
   60SAPC  H10R 4627   1.082   0.673   9.332 -0.6939 -0.7659  0.5326
   60SAPC  H10S 4628   0.936   0.766   9.269 -2.1713 -0.0057  1.3930
   60SAPC  C211 4629   0.959   0.565   9.193 -0.2375 -0.0410 -0.1205
   60SAPC  H11R 4630   0.892   0.481   9.214  1.5049 -1.5817 -0.5047
   60SAPC  C212 4631   1.020   0.595   9.078  0.2784 -0.4015  0.1745
   60SAPC  H12R 4632   1.002   0.520   8.999 -0.0713 -0.8883  0.7150
   60SAPC  C213 4633   1.101   0.717   9.053 -0.3643  0.2149  0.4041
   60SAPC  H13R 4634   1.210   0.695   9.054 -0.2013  0.9971  1.2903
   60SAPC  H13S 4635   1.076   0.801   9.121 -0.2521  0.7168 -0.1745
   60SAPC  C214 4636   1.075   0.770   8.915  0.2134 -0.4249  0.5358
   60SAPC  H14R 4637   0.987   0.834   8.904  2.9929  3.3359 -0.6455
   60SAPC  C215 4638   1.149   0.747   8.805 -0.5540 -0.5628  0.4216
   60SAPC  H15R 4639   1.114   0.792   8.710  0.6879  0.2359  0.3391
   60SAPC  C216 4640   1.266   0.655   8.786  0.2898  0.1444  0.0351
   60SAPC  H16R 4641   1.303   0.617   8.884  0.5387  0.5396  0.0937
   60SAPC  H16S 4642   1.354   0.713   8.753  0.0741  0.2320 -0.3921
   60SAPC  C217 4643   1.237   0.533   8.697 -0.6988  0.2929  1.1117
   60SAPC  H17R 4644   1.165   0.466   8.748  0.6609 -1.3417  0.9036
   60SAPC  H17S 4645   1.330   0.473   8.694 -1.4846 -0.9365  1.2506
   60SAPC  C218 4646   1.181   0.574   8.554  0.3985 -0.3288  0.2590
   60SAPC  H18R 4647   1.253   0.635   8.495 -0.5667  0.0815 -0.5066
   60SAPC  H18S 4648   1.088   0.635   8.562  0.8495  0.3539  0.4054
   60SAPC  C219 4649   1.134   0.457   8.458  0.8675  0.0497 -0.4493
   60SAPC  H19R 4650   1.096   0.494   8.360 -0.8762  0.3527  0.3115
   60SAPC  H19S 4651   1.053   0.397   8.505  1.3909 -0.0120  0.3716
   60SAPC  C220 4652   1.245   0.363   8.443 -0.1685  0.5975  0.0870
   60SAPC  H20R 4653   1.324   0.412   8.382 -0.3750 -0.4225 -1.0033
   60SAPC  H20S 4654   1.210   0.268   8.399  0.1337  0.6255 -0.2158
   60SAPC  H20T 4655   1.289   0.333   8.541  0.0935  1.5480  0.2737
   60SAPC   C33 4656   1.364   0.793  10.169 -0.3343 -0.3203  0.8679
   60SAPC   H3X 4657   1.280   0.835  10.109  0.1250  1.1504  1.2435
   60SAPC   H3Y 4658   1.350   0.685  10.192  1.6559 -1.2732 -2.0770
   60SAPC   C34 4659   1.486   0.794  10.088  0.6792  0.3905 -0.0079
   60SAPC   H4X 4660   1.555   0.713  10.119 -0.2995 -1.4833 -2.6105
   60SAPC   H4Y 4661   1.529   0.897  10.097 -2.5321  1.7806 -0.0128
   60SAPC   C35 4662   1.467   0.769   9.943 -0.0767  0.1869 -0.4273
   60SAPC   H5X 4663   1.400   0.851   9.910 -0.5171 -0.1166 -0.2913
   60SAPC   H5Y 4664   1.436   0.667   9.910  0.3328  0.7460 -2.5920
   60SAPC   C36 4665   1.593   0.792   9.857  0.2369  0.4675 -0.7248
   60SAPC   H6X 4666   1.673   0.726   9.897  1.9937  3.0498  0.1952
   60SAPC   H6Y 4667   1.630   0.895   9.875 -1.3614  1.1504 -1.2288
   60SAPC   C37 4668   1.577   0.770   9.706 -0.0894 -1.2663 -0.0748
   60SAPC   H7X 4669   1.684   0.761   9.678  0.2162 -0.9853  0.9808
   60SAPC   H7Y 4670   1.529   0.863   9.668  2.2348 -0.2038 -0.4800
   60SAPC   C38 4671   1.490   0.652   9.665 -0.1445  0.2930  0.6966
   60SAPC   H8X 4672   1.380   0.663   9.676 -0.1421  0.6830  0.3045
   60SAPC   H8Y 4673   1.525   0.563   9.721  1.2892  2.2348  3.0134
   60SAPC   C39 4674   1.507   0.616   9.517 -0.0751 -0.5061 -0.2482
   60SAPC   H9X 4675   1.471   0.514   9.490 -3.1810  0.8917 -1.5021
   60SAPC   H9Y 4676   1.617   0.611   9.498  0.2754  0.3292  1.5084
   60SAPC  C310 4677   1.455   0.715   9.420 -0.6397  0.1106  0.7359
   60SAPC  H10X 4678   1.470   0.820   9.453  2.0533 -0.1509  0.4589
   60SAPC  H10Y 4679   1.347   0.694   9.406 -0.3213 -0.6598 -0.5748
   60SAPC  C311 4680   1.506   0.706   9.281  0.2094  0.0443  0.3863
   60SAPC  H11X 4681   1.610   0.747   9.279  0.4222 -0.5393 -1.7882
   60SAPC  H11Y 4682   1.440   0.765   9.214  1.0484 -1.8671 -2.1822
   60SAPC  C312 4683   1.502   0.560   9.224 -0.4323  0.5885 -0.1537
   60SAPC  H12X 4684   1.400   0.516   9.222 -0.2976  0.3439 -2.9701
   60SAPC  H12Y 4685   1.560   0.484   9.280  0.5743  0.8262 -0.8682
   60SAPC  C313 4686   1.560   0.545   9.087  0.9737 -0.0898  0.1476
   60SAPC  H13X 4687   1.670   0.556   9.089  1.1587 -1.9005  0.1606
   60SAPC  H13Y 4688   1.513   0.621   9.021 -1.6461 -1.6493  0.1169
   60SAPC  C314 4689   1.514   0.413   9.025 -0.1081 -0.2068 -0.6127
   60SAPC  H14X 4690   1.404   0.402   9.013 -0.0326 -1.6351 -0.0369
   60SAPC  H14Y 4691   1.545   0.335   9.097  1.7992  0.3425 -0.8232
   60SAPC  C315 4692   1.565   0.380   8.886 -0.2216  0.0625 -0.9216
   60SAPC  H15X 4693   1.675   0.398   8.892  0.0243  0.0959 -4.2877
   60SAPC  H15Y 4694   1.514   0.454   8.821  0.7402  0.0760 -1.6815
   60SAPC  C316 4695   1.541   0.235   8.842  0.2197  0.2503  0.0054
   60SAPC  H16X 4696   1.431   0.242   8.833  0.0876  1.0722  1.9617
   60SAPC  H16Y 4697   1.588   0.170   8.919 -2.7420 -0.6935  1.0850
   60SAPC  C317 4698   1.603   0.208   8.705  0.5168 -0.0122 -0.3704
   60SAPC  H17X 4699   1.713   0.220   8.714  0.1799  2.5527  0.7797
   60SAPC  H17Y 4700   1.574   0.299   8.649 -1.7779 -0.9499 -0.7706
   60SAPC  C318 4701   1.560   0.090   8.620 -0.6044  0.2234 -0.7444
   60SAPC  H18X 4702   1.573  -0.007   8.673  1.0978  1.4558  1.1348
   60SAPC  H18Y 4703   1.625   0.093   8.531  2.7293 -1.4193  1.5291
   60SAPC  H18Z 4704   1.455   0.094   8.584 -0.6032 -1.6373 -1.0159
   61SAPC     N 4705   3.044   6.438  10.807  0.4432 -0.0987 -0.1545
   61SAPC   C12 4706   3.161   6.535  10.790 -0.0350 -0.4506  0.0256
   61SAPC  H12A 4707   3.217   6.514  10.699 -1.7059  2.1272 -1.6686
   61SAPC  H12B 4708   3.216   6.513  10.880  0.6250  1.5492  0.1352
   61SAPC   C13 4709   2.932   6.454  10.707  0.0887 -0.4381 -0.3921
   61SAPC  H13A 4710   2.845   6.399  10.742  0.7230  0.5721  2.9340
   61SAPC  H13B 4711   2.899   6.556  10.698 -0.0387 -0.5414 -1.1653
   61SAPC  H13C 4712   2.973   6.427  10.611  0.4639 -0.1543 -0.3094
   61SAPC   C14 4713   3.087   6.296  10.796  0.1786  0.3380  0.4917
   61SAPC  H14A 4714   3.174   6.272  10.855 -1.5021 -0.4220  2.7222
   61SAPC  H14B 4715   3.003   6.233  10.819 -0.6147  0.4103 -2.0678
   61SAPC  H14C 4716   3.120   6.277  10.695  1.1809  0.3864  0.7999
   61SAPC   C15 4717   2.983   6.453  10.951 -0.1519  0.2576 -0.0779
   61SAPC  H15A 4718   3.051   6.411  11.023 -0.6975 -0.5647 -0.0432
   61SAPC  H15B 4719   2.959   6.558  10.959 -0.4258  0.1345  0.7128
   61SAPC  H15C 4720   2.887   6.405  10.953  0.6593 -1.4854 -1.4032
   61SAPC   C11 4721   3.126   6.684  10.799  0.7123  0.2583 -0.5394
   61SAPC  H11A 4722   3.057   6.697  10.713 -1.6027  0.2506  1.2807
   61SAPC  H11B 4723   3.227   6.730  10.790  0.3311  0.9905 -1.1669
   61SAPC     P 4724   2.957   6.819  10.948  0.3573 -0.1928  0.1333
   61SAPC   O13 4725   2.844   6.765  11.025  0.0043  0.2811  0.2781
   61SAPC   O14 4726   3.024   6.941  10.998 -0.5075 -0.6559 -0.8192
   61SAPC   O12 4727   3.070   6.716  10.932 -0.1356 -0.1903  0.6220
   61SAPC   O11 4728   2.915   6.853  10.804  0.2974  0.1382  0.0229
   61SAPC    C1 4729   2.846   6.977  10.771  0.9636  0.0263 -0.1171
   61SAPC    HA 4730   2.800   7.030  10.857  0.3516 -1.9314  0.8006
   61SAPC    HB 4731   2.917   7.047  10.723  0.0658 -0.5799 -2.3800
   61SAPC    C2 4732   2.729   6.961  10.659  0.2579  0.1578  0.3628
   61SAPC    HS 4733   2.648   6.903  10.706 -0.0860  0.7361  0.4867
   61SAPC   O21 4734   2.781   6.905  10.540  0.0167  0.6632  0.3429
   61SAPC   C21 4735   2.772   6.780  10.529  0.3849 -0.4604  0.2694
   61SAPC   O22 4736   2.710   6.709  10.606 -0.7539 -0.0191 -0.2660
   61SAPC   C22 4737   2.847   6.735  10.407  0.1757 -0.4817 -0.5809
   61SAPC   H2R 4738   2.889   6.824  10.356  0.8950 -2.0651 -2.8272
   61SAPC   H2S 4739   2.935   6.682  10.448 -0.2841  0.5978  1.8492
   61SAPC    C3 4740   2.669   7.099  10.626  0.2743  0.3808  0.0218
   61SAPC    HX 4741   2.759   7.156  10.594  1.7492 -1.3121  1.0480
   61SAPC    HY 4742   2.620   7.131  10.720 -0.4334  0.4163 -0.3533
   61SAPC   O31 4743   2.577   7.097  10.515 -0.0099  0.1312  0.2083
   61SAPC   C31 4744   2.454   7.042  10.538 -0.1555  0.6438  1.0295
   61SAPC   O32 4745   2.412   7.014  10.647  0.3494  0.2406 -0.4282
   61SAPC   C32 4746   2.381   7.044  10.399 -0.0799  0.1833 -0.2593
   61SAPC   H2X 4747   2.332   7.143  10.387 -1.3427 -0.4668 -0.5475
   61SAPC   H2Y 4748   2.302   6.966  10.413 -0.3397  0.6792  1.0621
   61SAPC   C23 4749   2.760   6.659  10.308  0.7906 -0.4337 -0.1801
   61SAPC   H3R 4750   2.676   6.726  10.278  1.8373  0.6902 -0.6561
   61SAPC   H3S 4751   2.719   6.572  10.363  0.9685 -0.3431  0.0974
   61SAPC   C24 4752   2.834   6.624  10.179 -0.0369 -0.4194  0.9928
   61SAPC   H4R 4753   2.893   6.707  10.135  2.9807 -2.1746  1.6536
   61SAPC   H4S 4754   2.754   6.596  10.107 -0.6111 -0.2659  1.5706
   61SAPC   C25 4755   2.920   6.500  10.198 -0.3951  0.4303  0.2949
   61SAPC   H5R 4756   2.959   6.479  10.299 -0.3278 -1.6940 -0.1583
   61SAPC   C26 4757   2.944   6.399  10.109  0.0464  0.5279 -0.5335
   61SAPC   H6R 4758   3.002   6.316  10.151 -0.4020  1.5583  2.1765
   61SAPC   C27 4759   2.900   6.400   9.964  0.2029 -0.5019  0.3811
   61SAPC   H7R 4760   2.799   6.445   9.966  0.2766 -0.3743  1.7024
   61SAPC   H7S 4761   2.904   6.296   9.926  1.6067 -0.9545  1.6631
   61SAPC   C28 4762   2.974   6.503   9.883  0.3058 -0.3947  0.0809
   61SAPC   H8R 4763   2.996   6.594   9.941  0.4807 -2.1047  2.7980
   61SAPC   C29 4764   3.023   6.482   9.758  0.2433 -0.1116  0.0869
   61SAPC   H9R 4765   3.076   6.565   9.708 -1.5478  0.5883 -0.6985
   61SAPC  C210 4766   3.013   6.359   9.661  0.1363  0.9352  0.0466
   61SAPC  H10R 4767   3.033   6.388   9.555 -1.4849  1.3914 -0.1576
   61SAPC  H10S 4768   2.908   6.324   9.673  0.9296 -1.0997  1.2002
   61SAPC  C211 4769   3.104   6.263   9.721  0.2742 -0.4525  0.1340
   61SAPC  H11R 4770   3.117   6.250   9.830  0.9075 -3.0578 -0.2281
   61SAPC  C212 4771   3.195   6.198   9.647 -0.3160 -0.2829 -0.0729
   61SAPC  H12R 4772   3.248   6.119   9.703  1.3127  0.0647 -1.0894
   61SAPC  C213 4773   3.232   6.207   9.507  0.1790 -1.3521 -0.0917
   61SAPC  H13R 4774   3.339   6.237   9.508  0.4087 -2.1059  2.0188
   61SAPC  H13S 4775   3.174   6.281   9.448  0.0913 -0.4009  1.1629
   61SAPC  C214 4776   3.220   6.075   9.435  0.0212  0.0515  0.7904
   61SAPC  H14R 4777   3.207   5.986   9.498  0.2354 -0.2947  0.3511
   61SAPC  C215 4778   3.219   6.046   9.304  0.4874 -0.4504  0.6332
   61SAPC  H15R 4779   3.208   5.942   9.269 -0.7618 -0.4819  1.0878
   61SAPC  C216 4780   3.230   6.155   9.201 -0.6212  0.0847  0.4281
   61SAPC  H16R 4781   3.215   6.254   9.249  3.0923  0.3661  1.1836
   61SAPC  H16S 4782   3.134   6.153   9.145  0.2553  1.0799 -1.1597
   61SAPC  C217 4783   3.337   6.160   9.094 -0.0441  0.1397  0.6003
   61SAPC  H17R 4784   3.318   6.082   9.017  0.3569 -1.2483  1.8869
   61SAPC  H17S 4785   3.445   6.147   9.119  0.2420 -0.0213 -0.6564
   61SAPC  C218 4786   3.321   6.289   9.015  0.0876 -0.0140  0.8233
   61SAPC  H18R 4787   3.334   6.375   9.084 -0.3466  0.3507  0.4561
   61SAPC  H18S 4788   3.221   6.301   8.969  0.9704 -0.7947 -1.3748
   61SAPC  C219 4789   3.434   6.328   8.920 -0.5023  0.8334  0.1114
   61SAPC  H19R 4790   3.427   6.255   8.837 -4.0805  0.8742  0.2827
   61SAPC  H19S 4791   3.529   6.319   8.976 -0.2500  1.0139 -0.2900
   61SAPC  C220 4792   3.429   6.471   8.855 -0.4557  0.2435 -0.1656
   61SAPC  H20R 4793   3.490   6.539   8.918  2.5828 -0.6587 -2.0048
   61SAPC  H20S 4794   3.322   6.499   8.855 -1.1220 -1.9395  3.2395
   61SAPC  H20T 4795   3.473   6.478   8.753  0.7967  1.7761  0.4517
   61SAPC   C33 4796   2.475   7.006  10.280 -0.2482 -0.5872 -0.2978
   61SAPC   H3X 4797   2.502   6.898  10.283 -0.9202 -0.7912 -1.1843
   61SAPC   H3Y 4798   2.571   7.061  10.280  1.7716 -3.9539  0.0476
   61SAPC   C34 4799   2.406   7.030  10.145  0.0959  0.1236 -0.0683
   61SAPC   H4X 4800   2.377   7.137  10.140 -3.0684 -0.6763  0.4409
   61SAPC   H4Y 4801   2.309   6.977  10.137 -0.2876  0.8582 -0.3672
   61SAPC   C35 4802   2.503   6.991  10.032 -0.2274  0.2308  1.6052
   61SAPC   H5X 4803   2.547   6.890  10.046 -1.1281 -0.3602  0.3009
   61SAPC   H5Y 4804   2.579   7.072  10.029  0.6704 -0.6485 -0.4745
   61SAPC   C36 4805   2.452   7.005   9.885  0.1196  0.4584  0.1144
   61SAPC   H6X 4806   2.403   7.104   9.870 -1.7147 -0.6736 -1.5389
   61SAPC   H6Y 4807   2.378   6.924   9.871  1.3362 -0.8094  0.7921
   61SAPC   C37 4808   2.560   6.992   9.777  0.1792 -0.3366 -0.6494
   61SAPC   H7X 4809   2.600   6.889   9.761  0.0311 -0.6979  1.2374
   61SAPC   H7Y 4810   2.648   7.051   9.811 -0.1181  0.0870 -0.6190
   61SAPC   C38 4811   2.512   7.049   9.641  0.8060 -0.4232 -0.4436
   61SAPC   H8X 4812   2.493   7.159   9.648  2.1167 -0.0979 -1.9745
   61SAPC   H8Y 4813   2.420   6.990   9.621  0.6647 -0.4924  0.3902
   61SAPC   C39 4814   2.612   7.022   9.528  0.0628 -0.0442 -0.1679
   61SAPC   H9X 4815   2.643   6.917   9.547 -2.3663 -0.6743  0.5172
   61SAPC   H9Y 4816   2.690   7.101   9.535  0.7854 -0.9803  3.3066
   61SAPC  C310 4817   2.556   7.030   9.391  0.1862 -0.1933  0.4187
   61SAPC  H10X 4818   2.508   7.130   9.387 -3.8327 -2.0021  1.2791
   61SAPC  H10Y 4819   2.471   6.961   9.373  0.3759 -0.1675 -0.5935
   61SAPC  C311 4820   2.649   6.992   9.277 -0.0648  0.7873  0.7415
   61SAPC  H11X 4821   2.694   6.898   9.316 -1.1351 -0.2136 -0.3874
   61SAPC  H11Y 4822   2.727   7.067   9.256  0.7834 -0.0465  0.8783
   61SAPC  C312 4823   2.575   6.945   9.152 -0.5898  0.5308 -0.7666
   61SAPC  H12X 4824   2.497   6.866   9.158  0.0442 -0.2233 -2.1993
   61SAPC  H12Y 4825   2.649   6.903   9.080  0.5381  0.8159  0.2247
   61SAPC  C313 4826   2.496   7.054   9.071  0.5738 -0.6482 -0.0393
   61SAPC  H13X 4827   2.539   7.153   9.096  1.5337 -0.5644 -1.8906
   61SAPC  H13Y 4828   2.396   7.045   9.118  0.7910 -0.3376  0.4775
   61SAPC  C314 4829   2.503   7.031   8.917 -0.3784  0.3349  0.1676
   61SAPC  H14X 4830   2.412   7.074   8.869 -0.1436 -0.6160 -1.1747
   61SAPC  H14Y 4831   2.504   6.922   8.897 -0.5411 -0.2484  3.1459
   61SAPC  C315 4832   2.625   7.106   8.858  0.2880  0.0319 -0.1753
   61SAPC  H15X 4833   2.707   7.085   8.931 -1.5813  0.5155  2.1028
   61SAPC  H15Y 4834   2.604   7.215   8.856  0.7561  0.0963 -2.4524
   61SAPC  C316 4835   2.671   7.060   8.716 -0.0759 -0.8357 -1.0137
   61SAPC  H16X 4836   2.715   6.958   8.721  0.9287 -0.3943 -0.6855
   61SAPC  H16Y 4837   2.764   7.113   8.688 -1.0076  0.5342 -1.5567
   61SAPC  C317 4838   2.564   7.084   8.607 -0.7470 -0.0231  0.1769
   61SAPC  H17X 4839   2.477   7.022   8.636 -1.7322  0.8512 -0.8409
   61SAPC  H17Y 4840   2.602   7.047   8.509  1.4954 -0.1608  1.0656
   61SAPC  C318 4841   2.517   7.224   8.600 -0.1926 -0.7802  0.7626
   61SAPC  H18X 4842   2.601   7.295   8.591 -0.5093 -0.4358  0.4942
   61SAPC  H18Y 4843   2.457   7.256   8.689  0.4003  1.3039  0.4213
   61SAPC  H18Z 4844   2.454   7.246   8.512 -0.3165 -1.5491  0.6495
   62SAPC     N 4845   1.602   5.802  10.880 -0.7951 -0.1837  0.5730
   62SAPC   C12 4846   1.535   5.700  10.793  0.0942 -0.1104  0.5489
   62SAPC  H12A 4847   1.489   5.619  10.847  0.7607 -1.7778 -1.3216
   62SAPC  H12B 4848   1.621   5.645  10.758  0.2256  0.8420 -0.6921
   62SAPC   C13 4849   1.508   5.914  10.924 -0.9076 -0.2877  0.1521
   62SAPC  H13A 4850   1.421   5.875  10.976 -0.1242  0.6139  2.1963
   62SAPC  H13B 4851   1.550   5.989  10.990 -0.2423 -1.3155  0.9084
   62SAPC  H13C 4852   1.467   5.970  10.841  1.9853  0.3104 -0.9362
   62SAPC   C14 4853   1.652   5.735  11.004 -0.9354  1.1868 -0.5181
   62SAPC  H14A 4854   1.731   5.790  11.054 -1.0324  1.0869 -0.2529
   62SAPC  H14B 4855   1.570   5.726  11.073  0.0582  0.7519  0.6235
   62SAPC  H14C 4856   1.690   5.636  10.988 -0.1747  1.1282  1.5068
   62SAPC   C15 4857   1.705   5.884  10.799  0.0958  0.9381 -0.3451
   62SAPC  H15A 4858   1.742   5.971  10.851 -1.3092  0.9348  0.6907
   62SAPC  H15B 4859   1.786   5.817  10.773  2.2365  3.1280  0.4876
   62SAPC  H15C 4860   1.671   5.901  10.698  0.4437 -2.7587 -1.1756
   62SAPC   C11 4861   1.424   5.737  10.692 -0.6479  0.0822  0.3504
   62SAPC  H11A 4862   1.412   5.663  10.611 -0.8160 -1.3641  1.6642
   62SAPC  H11B 4863   1.448   5.839  10.653  0.9288 -0.6250 -0.5662
   62SAPC     P 4864   1.223   5.632  10.817  0.1570 -0.6155  0.0807
   62SAPC   O13 4865   1.325   5.553  10.898 -0.0199 -0.3483  0.0919
   62SAPC   O14 4866   1.105   5.687  10.885 -0.5393 -0.4504  0.4336
   62SAPC   O12 4867   1.293   5.753  10.755  0.2164 -0.1944 -0.0193
   62SAPC   O11 4868   1.174   5.546  10.694 -0.0984 -0.2221  0.0078
   62SAPC    C1 4869   1.094   5.607  10.591 -0.4846 -0.2058  0.0016
   62SAPC    HA 4870   0.999   5.553  10.572 -0.8779  0.9631 -1.4130
   62SAPC    HB 4871   1.070   5.714  10.607 -0.5444 -0.3517  0.9526
   62SAPC    C2 4872   1.168   5.599  10.454  0.0534  0.3329  0.6511
   62SAPC    HS 4873   1.267   5.650  10.455 -0.2248  0.8604  1.6800
   62SAPC   O21 4874   1.088   5.648  10.344  0.3847 -0.0171  0.3913
   62SAPC   C21 4875   1.149   5.730  10.260 -0.4234  0.2919 -0.6611
   62SAPC   O22 4876   1.269   5.753  10.258  0.0079  0.1609 -0.5377
   62SAPC   C22 4877   1.054   5.780  10.152 -0.2125 -0.6775 -0.1849
   62SAPC   H2R 4878   1.000   5.692  10.114  3.3551 -2.2183 -1.9027
   62SAPC   H2S 4879   0.975   5.843  10.198 -0.7629 -0.2806 -1.6333
   62SAPC    C3 4880   1.194   5.452  10.423  0.0691  0.2543  0.3488
   62SAPC    HX 4881   1.111   5.379  10.419 -0.0670  0.4239  0.1129
   62SAPC    HY 4882   1.255   5.420  10.510 -1.1947 -2.4241  0.2956
   62SAPC   O31 4883   1.279   5.436  10.305 -0.1804 -0.3025 -0.0024
   62SAPC   C31 4884   1.219   5.400  10.193  0.3489  0.0390  0.4701
   62SAPC   O32 4885   1.100   5.373  10.171  0.4943 -0.0717 -0.6701
   62SAPC   C32 4886   1.327   5.405  10.085 -0.1130  0.4272 -0.2726
   62SAPC   H2X 4887   1.414   5.341  10.108 -0.5058  0.4825  1.4542
   62SAPC   H2Y 4888   1.362   5.510  10.072  1.9080 -0.1101  0.8092
   62SAPC   C23 4889   1.115   5.844  10.026 -0.5130  1.1279 -0.3849
   62SAPC   H3R 4890   1.190   5.770   9.992  0.6597  0.9188  2.5565
   62SAPC   H3S 4891   1.182   5.926  10.060 -0.0453  0.2902  0.7261
   62SAPC   C24 4892   1.014   5.894   9.930 -0.1955 -0.4772 -0.1347
   62SAPC   H4R 4893   1.070   5.943   9.848 -1.1479  1.8843  0.5697
   62SAPC   H4S 4894   0.950   5.974   9.974  0.9389  0.0561  0.5664
   62SAPC   C25 4895   0.933   5.783   9.867  0.5308  0.0009 -0.0760
   62SAPC   H5R 4896   0.863   5.731   9.934 -0.1919  0.3740 -0.5230
   62SAPC   C26 4897   0.936   5.749   9.734  0.1969  0.5389 -0.1683
   62SAPC   H6R 4898   0.873   5.667   9.696  1.2005 -0.5907  0.5964
   62SAPC   C27 4899   1.011   5.802   9.614  0.2623 -0.2253  0.1437
   62SAPC   H7R 4900   1.107   5.748   9.626 -0.2462 -0.7583  1.8471
   62SAPC   H7S 4901   1.024   5.912   9.628 -0.5693 -0.3538  1.9907
   62SAPC   C28 4902   0.943   5.779   9.477 -0.6368  0.0367 -0.6956
   62SAPC   H8R 4903   0.833   5.780   9.478 -0.6510 -0.5047 -1.4969
   62SAPC   C29 4904   0.998   5.759   9.357 -0.0894 -0.4004 -0.4088
   62SAPC   H9R 4905   0.939   5.745   9.265 -0.4861  0.7113 -0.3371
   62SAPC  C210 4906   1.148   5.766   9.330  0.5193 -0.2533 -0.3779
   62SAPC  H10R 4907   1.183   5.673   9.280  0.2930  0.9212 -2.7976
   62SAPC  H10S 4908   1.201   5.766   9.428  0.7115  2.0769 -0.4448
   62SAPC  C211 4909   1.199   5.891   9.271  0.0757  0.1421  0.2314
   62SAPC  H11R 4910   1.218   5.970   9.345  0.0310 -0.9789  1.4491
   62SAPC  C212 4911   1.237   5.911   9.141 -0.3481  0.2752  0.5334
   62SAPC  H12R 4912   1.264   6.016   9.120  0.8050 -0.7071 -3.1773
   62SAPC  C213 4913   1.236   5.813   9.027  0.1899  0.1411 -0.4432
   62SAPC  H13R 4914   1.151   5.743   9.037  0.2668  0.3295  1.9001
   62SAPC  H13S 4915   1.321   5.741   9.036  1.5690  2.0910  3.3808
   62SAPC  C214 4916   1.252   5.878   8.893  0.1358  0.6120 -0.0486
   62SAPC  H14R 4917   1.342   5.938   8.871  0.0282  0.2856 -1.4402
   62SAPC  C215 4918   1.166   5.882   8.797 -0.3182  0.9060 -0.3503
   62SAPC  H15R 4919   1.196   5.929   8.702 -1.2368  1.9150 -0.1465
   62SAPC  C216 4920   1.033   5.818   8.774 -0.0987  0.6049 -0.1360
   62SAPC  H16R 4921   0.949   5.885   8.744  1.2783  2.3719 -0.1053
   62SAPC  H16S 4922   1.011   5.753   8.862  0.7453 -2.7998 -2.3305
   62SAPC  C217 4923   1.054   5.709   8.666 -0.1698  1.2886 -0.1855
   62SAPC  H17R 4924   0.959   5.650   8.664  1.0594 -0.7063 -1.4463
   62SAPC  H17S 4925   1.134   5.644   8.705 -2.1638 -0.6379  0.8302
   62SAPC  C218 4926   1.077   5.745   8.518 -0.4296 -1.2544  0.2465
   62SAPC  H18R 4927   1.169   5.808   8.511 -1.3411  0.1857  0.9873
   62SAPC  H18S 4928   0.992   5.809   8.486 -0.3129 -1.7038 -1.0050
   62SAPC  C219 4929   1.084   5.626   8.425  0.0308 -0.4210  0.3217
   62SAPC  H19R 4930   0.995   5.561   8.439 -0.9499  1.2584  2.2098
   62SAPC  H19S 4931   1.174   5.568   8.456 -0.6952 -1.7746 -0.0930
   62SAPC  C220 4932   1.106   5.649   8.271  0.0283  0.1093 -0.2729
   62SAPC  H20R 4933   1.205   5.694   8.249  0.5581  0.0935  1.8746
   62SAPC  H20S 4934   1.027   5.711   8.224 -0.1344  0.9267  1.0323
   62SAPC  H20T 4935   1.095   5.546   8.231  1.4323 -0.0527 -0.2661
   62SAPC   C33 4936   1.254   5.374   9.947 -0.2683 -0.0456  0.3395
   62SAPC   H3X 4937   1.187   5.455   9.911  0.8945  0.9812  0.4529
   62SAPC   H3Y 4938   1.209   5.273   9.943  0.0804 -0.1187 -2.5359
   62SAPC   C34 4939   1.366   5.369   9.838  0.0682 -0.7436  0.9489
   62SAPC   H4X 4940   1.449   5.303   9.869 -0.1751 -2.4029 -1.7149
   62SAPC   H4Y 4941   1.414   5.470   9.840 -0.3048 -0.5578  0.6494
   62SAPC   C35 4942   1.312   5.324   9.697 -0.2529 -0.0606 -0.7224
   62SAPC   H5X 4943   1.204   5.353   9.692  0.4458  2.6303 -1.2832
   62SAPC   H5Y 4944   1.323   5.214   9.690 -1.8093 -0.4103  1.6286
   62SAPC   C36 4945   1.385   5.386   9.577  0.4038 -1.2314 -0.2031
   62SAPC   H6X 4946   1.483   5.334   9.573  0.9304 -0.1722 -0.9975
   62SAPC   H6Y 4947   1.382   5.495   9.596 -0.8557 -1.2644 -0.1355
   62SAPC   C37 4948   1.304   5.370   9.444 -0.6166  0.0353  0.6519
   62SAPC   H7X 4949   1.208   5.423   9.463 -0.2510  1.1893 -0.5798
   62SAPC   H7Y 4950   1.298   5.265   9.411  1.1199 -0.3828  1.6027
   62SAPC   C38 4951   1.360   5.442   9.314 -0.3278  0.0578  0.7060
   62SAPC   H8X 4952   1.318   5.544   9.299 -0.0098  0.2361  0.9986
   62SAPC   H8Y 4953   1.304   5.387   9.236 -0.9110  0.5955  0.7468
   62SAPC   C39 4954   1.510   5.440   9.295  0.5378  0.2174  0.6374
   62SAPC   H9X 4955   1.560   5.350   9.337 -1.0563 -1.6153 -1.2545
   62SAPC   H9Y 4956   1.551   5.529   9.347  3.1351  1.6403 -3.5482
   62SAPC  C310 4957   1.559   5.438   9.144  0.4012 -0.2038 -0.3298
   62SAPC  H10X 4958   1.510   5.530   9.106  2.8721  1.9274  1.4175
   62SAPC  H10Y 4959   1.517   5.352   9.088 -0.0748 -0.8060  0.9503
   62SAPC  C311 4960   1.711   5.461   9.135  0.3450  0.3439 -0.3685
   62SAPC  H11X 4961   1.750   5.385   9.205 -0.3482  0.8623  0.5872
   62SAPC  H11Y 4962   1.721   5.558   9.186 -1.1541 -0.3782  1.3480
   62SAPC  C312 4963   1.760   5.459   8.990  0.0174  0.2760 -0.3575
   62SAPC  H12X 4964   1.868   5.483   8.982  0.1546 -0.0713  0.3644
   62SAPC  H12Y 4965   1.697   5.526   8.928 -1.7642  0.6631  1.7843
   62SAPC  C313 4966   1.752   5.320   8.927  0.1319  0.0866  0.5605
   62SAPC  H13X 4967   1.645   5.293   8.914 -0.3063  1.3757  1.4537
   62SAPC  H13Y 4968   1.808   5.240   8.980 -0.7111 -2.2972 -2.0102
   62SAPC  C314 4969   1.805   5.318   8.781  0.1242  0.3817  0.7879
   62SAPC  H14X 4970   1.910   5.351   8.778  0.1874  0.1543  0.4536
   62SAPC  H14Y 4971   1.747   5.383   8.712  0.7111 -0.6052 -0.6573
   62SAPC  C315 4972   1.796   5.183   8.714  0.6643  0.2732 -0.3812
   62SAPC  H15X 4973   1.699   5.137   8.743  0.2927  0.9038 -0.6097
   62SAPC  H15Y 4974   1.873   5.113   8.752  1.0670  1.0581  0.2515
   62SAPC  C316 4975   1.795   5.186   8.562 -0.0840  0.0253 -1.2496
   62SAPC  H16X 4976   1.707   5.246   8.532 -0.2576  0.2461 -0.3075
   62SAPC  H16Y 4977   1.767   5.087   8.519 -0.9195  0.2589 -1.2422
   62SAPC  C317 4978   1.929   5.222   8.501  0.1322 -0.0341 -0.0159
   62SAPC  H17X 4979   2.008   5.147   8.522  0.0840 -0.4200 -1.2238
   62SAPC  H17Y 4980   1.961   5.320   8.544  0.3710 -0.6096  1.1347
   62SAPC  C318 4981   1.914   5.223   8.346 -0.4427 -0.2714  0.3465
   62SAPC  H18X 4982   1.878   5.122   8.317  0.3199 -0.7230  0.9520
   62SAPC  H18Y 4983   2.005   5.250   8.289 -2.5061  1.3580 -2.3293
   62SAPC  H18Z 4984   1.845   5.306   8.317  0.2039  0.4686  0.9050
   63SAPC     N 4985   5.136   4.938   6.115  0.3653 -0.7787 -0.1800
   63SAPC   C12 4986   5.221   4.960   6.243  0.4431  0.1491  0.3056
   63SAPC  H12A 4987   5.187   5.048   6.296  0.8156  1.5496 -1.7134
   63SAPC  H12B 4988   5.321   4.985   6.210  0.5847 -1.7883 -0.8259
   63SAPC   C13 4989   5.004   4.887   6.144 -0.1923 -0.1003  0.5041
   63SAPC  H13A 4990   5.014   4.798   6.205  1.1542 -0.6058 -0.4366
   63SAPC  H13B 4991   4.940   4.956   6.198  0.5534 -0.4180  1.8171
   63SAPC  H13C 4992   4.958   4.849   6.054  0.0741  1.0115 -0.1091
   63SAPC   C14 4993   5.119   5.062   6.041 -0.0178  0.0067  0.5238
   63SAPC  H14A 4994   5.060   5.052   5.951  0.7400 -0.0377  0.0315
   63SAPC  H14B 4995   5.060   5.127   6.105 -0.2495 -0.2495  0.5717
   63SAPC  H14C 4996   5.213   5.112   6.025 -0.5349  1.2851  1.3922
   63SAPC   C15 4997   5.215   4.840   6.035  0.4995 -0.2064  1.4953
   63SAPC  H15A 4998   5.249   4.755   6.093 -0.2760 -1.2590  0.4306
   63SAPC  H15B 4999   5.146   4.804   5.961 -0.3889  1.5827  1.4394
   63SAPC  H15C 5000   5.296   4.885   5.980  0.9575 -0.8042  1.6661
   63SAPC   C11 5001   5.235   4.849   6.339  0.8140  0.1035 -0.7055
   63SAPC  H11A 5002   5.139   4.831   6.390  0.8781  1.9349  0.1101
   63SAPC  H11B 5003   5.296   4.893   6.421 -0.1321 -0.3302  0.2458
   63SAPC     P 5004   5.326   4.603   6.372 -0.1879  0.3339 -0.3249
   63SAPC   O13 5005   5.251   4.489   6.311  0.3791  0.6309  0.2196
   63SAPC   O14 5006   5.473   4.586   6.375 -0.3413  0.4498  0.3831
   63SAPC   O12 5007   5.298   4.728   6.292 -0.9481 -0.1743 -0.0263
   63SAPC   O11 5008   5.268   4.627   6.516  0.3900 -0.0767  0.0969
   63SAPC    C1 5009   5.356   4.669   6.622 -0.0656 -0.7105  0.0154
   63SAPC    HA 5010   5.455   4.706   6.588 -1.0251  0.7744 -1.2417
   63SAPC    HB 5011   5.307   4.753   6.675  0.4036 -0.2770 -0.2389
   63SAPC    C2 5012   5.375   4.557   6.721  0.4402 -0.5007  0.2082
   63SAPC    HS 5013   5.414   4.467   6.670  1.7746 -0.6019  1.3718
   63SAPC   O21 5014   5.246   4.524   6.781  0.6274 -0.1118 -0.5313
   63SAPC   C21 5015   5.250   4.410   6.851 -0.4425 -0.2603 -0.4828
   63SAPC   O22 5016   5.337   4.326   6.848  0.1303  0.1957 -0.1099
   63SAPC   C22 5017   5.130   4.417   6.953 -0.3326 -0.2223  0.2512
   63SAPC   H2R 5018   5.058   4.495   6.922  0.1695 -0.5822 -1.9166
   63SAPC   H2S 5019   5.079   4.318   6.945 -0.0762 -0.2313 -1.4791
   63SAPC    C3 5020   5.483   4.597   6.831  0.7980  0.2493 -0.4801
   63SAPC    HX 5021   5.575   4.628   6.778  0.7022  2.4134  0.5521
   63SAPC    HY 5022   5.507   4.503   6.883  4.3249  0.0111 -2.4035
   63SAPC   O31 5023   5.437   4.701   6.920  0.3122  0.0521 -0.4765
   63SAPC   C31 5024   5.453   4.829   6.885 -0.2980 -0.0557  0.5517
   63SAPC   O32 5025   5.529   4.866   6.801  0.3134  0.8459  0.2615
   63SAPC   C32 5026   5.352   4.922   6.947 -0.6984  0.5479  0.0289
   63SAPC   H2X 5027   5.255   4.869   6.962 -0.0993 -0.0258  2.0033
   63SAPC   H2Y 5028   5.335   5.003   6.873 -0.6626  0.6874  0.1739
   63SAPC   C23 5029   5.176   4.442   7.099 -0.1526 -0.2301  0.2306
   63SAPC   H3R 5030   5.124   4.535   7.132 -0.3722 -0.1801 -0.2511
   63SAPC   H3S 5031   5.286   4.451   7.113 -0.2562  0.5594  0.5981
   63SAPC   C24 5032   5.138   4.325   7.194 -0.3941  0.1655  0.2122
   63SAPC   H4R 5033   5.191   4.340   7.290  0.9269  0.2057 -0.5142
   63SAPC   H4S 5034   5.189   4.242   7.139  0.1611  0.6071  0.0580
   63SAPC   C25 5035   4.994   4.308   7.208 -0.2249  0.7080  0.2504
   63SAPC   H5R 5036   4.949   4.281   7.111  0.8559 -1.5388  0.3608
   63SAPC   C26 5037   4.919   4.317   7.319 -0.2559 -0.9491 -0.1776
   63SAPC   H6R 5038   4.810   4.320   7.304 -0.0845  0.0142 -1.2816
   63SAPC   C27 5039   4.960   4.338   7.463  0.0821 -1.2194  0.5693
   63SAPC   H7R 5040   5.065   4.374   7.471 -0.0284  0.0911 -2.9319
   63SAPC   H7S 5041   4.959   4.234   7.502  0.4443 -1.4924 -0.1502
   63SAPC   C28 5042   4.877   4.435   7.543  0.1668 -0.0179  0.7744
   63SAPC   H8R 5043   4.831   4.514   7.482  0.2860 -0.4700  0.1034
   63SAPC   C29 5044   4.861   4.425   7.676 -0.0753  0.7614  0.1227
   63SAPC   H9R 5045   4.798   4.508   7.712 -1.9379  0.1654 -1.6436
   63SAPC  C210 5046   4.919   4.331   7.770  0.2309  0.1471 -0.0256
   63SAPC  H10R 5047   4.950   4.231   7.735 -1.0589 -1.1004  2.2665
   63SAPC  H10S 5048   4.831   4.297   7.829 -0.4376  1.2861 -0.3427
   63SAPC  C211 5049   5.023   4.396   7.857 -0.3143  0.2123  0.1178
   63SAPC  H11R 5050   5.090   4.458   7.795 -1.1265  0.0584 -0.9418
   63SAPC  C212 5051   5.033   4.414   7.988  0.2707  0.7166 -0.3446
   63SAPC  H12R 5052   5.126   4.459   8.027 -2.0264  4.0922  1.4639
   63SAPC  C213 5053   4.929   4.357   8.090  0.3725 -0.1664  0.2226
   63SAPC  H13R 5054   4.929   4.245   8.090 -1.8951 -0.1917  1.2746
   63SAPC  H13S 5055   4.826   4.377   8.057  1.5934  1.6357 -2.6380
   63SAPC  C214 5056   4.941   4.405   8.231 -0.3342  0.1042  0.0427
   63SAPC  H14R 5057   4.896   4.505   8.241  2.3329  1.2537  0.9376
   63SAPC  C215 5058   4.969   4.337   8.348  0.1087  0.0488 -0.4048
   63SAPC  H15R 5059   4.983   4.384   8.447 -2.4224 -0.3797  0.2011
   63SAPC  C216 5060   5.001   4.189   8.351  0.1416 -0.0021 -0.1204
   63SAPC  H16R 5061   5.063   4.166   8.263  0.5925 -2.0570  0.7196
   63SAPC  H16S 5062   4.913   4.123   8.334  1.2386 -1.5794  0.2594
   63SAPC  C217 5063   5.049   4.117   8.478  0.0090 -0.7541 -0.7310
   63SAPC  H17R 5064   5.062   4.013   8.442 -0.6170 -0.6817 -1.1821
   63SAPC  H17S 5065   4.974   4.112   8.560  0.7120 -0.5040 -0.0733
   63SAPC  C218 5066   5.175   4.183   8.532 -0.0546 -0.0393 -0.1601
   63SAPC  H18R 5067   5.164   4.261   8.610  1.5631  0.0692 -0.0167
   63SAPC  H18S 5068   5.230   4.237   8.452  2.2204 -1.1167  0.6166
   63SAPC  C219 5069   5.272   4.067   8.571 -0.2433 -0.7290  0.0322
   63SAPC  H19R 5070   5.377   4.099   8.587 -0.5573  0.7077 -0.7109
   63SAPC  H19S 5071   5.273   4.003   8.481  0.6812 -0.1502 -0.3718
   63SAPC  C220 5072   5.215   3.986   8.684  0.6859  0.2371  0.4687
   63SAPC  H20R 5073   5.188   4.048   8.772 -0.2215  1.7112 -0.8172
   63SAPC  H20S 5074   5.287   3.911   8.720 -0.3743 -1.1933 -0.3212
   63SAPC  H20T 5075   5.126   3.926   8.654  1.0808  0.0493 -0.3350
   63SAPC   C33 5076   5.396   4.967   7.083  0.6000 -0.9838  0.0252
   63SAPC   H3X 5077   5.318   5.033   7.128  1.9102  2.3025 -2.3234
   63SAPC   H3Y 5078   5.485   5.032   7.077 -2.0955  2.9271  0.6815
   63SAPC   C34 5079   5.429   4.844   7.179 -0.6196 -0.3391  0.0681
   63SAPC   H4X 5080   5.531   4.808   7.154 -0.6187 -0.8205  0.7501
   63SAPC   H4Y 5081   5.362   4.759   7.154 -0.4431  0.3283 -2.7872
   63SAPC   C35 5082   5.415   4.873   7.330 -0.3048  0.2615 -0.5655
   63SAPC   H5X 5083   5.308   4.895   7.354 -1.3302 -0.9489 -3.8236
   63SAPC   H5Y 5084   5.480   4.958   7.359 -0.8569  0.9978 -1.4543
   63SAPC   C36 5085   5.457   4.757   7.416 -0.1161 -0.1443 -0.8642
   63SAPC   H6X 5086   5.567   4.754   7.435 -0.0819  2.0894 -0.6043
   63SAPC   H6Y 5087   5.415   4.663   7.374  0.0211  0.7314 -3.0126
   63SAPC   C37 5088   5.392   4.769   7.555  0.6893 -0.7639  0.5566
   63SAPC   H7X 5089   5.281   4.774   7.550  0.7108  1.0293  1.2484
   63SAPC   H7Y 5090   5.422   4.866   7.601 -0.7192 -0.4834  0.9204
   63SAPC   C38 5091   5.443   4.659   7.653  0.4832 -0.2498  0.1972
   63SAPC   H8X 5092   5.550   4.683   7.672  1.6176 -4.5832 -0.3259
   63SAPC   H8Y 5093   5.430   4.560   7.605  2.2812 -0.7969  0.8034
   63SAPC   C39 5094   5.367   4.652   7.790  0.3447 -0.3544 -0.0723
   63SAPC   H9X 5095   5.394   4.556   7.840 -2.2167 -0.1952  1.7417
   63SAPC   H9Y 5096   5.258   4.647   7.772  0.0954  1.4211  0.8168
   63SAPC  C310 5097   5.405   4.775   7.881 -0.7960 -0.9226 -0.1429
   63SAPC  H10X 5098   5.340   4.760   7.969 -0.9094 -0.2312 -0.1060
   63SAPC  H10Y 5099   5.366   4.868   7.834 -0.0615 -1.2627 -1.4646
   63SAPC  C311 5100   5.549   4.792   7.927 -1.0289  0.5691 -0.5167
   63SAPC  H11X 5101   5.549   4.878   7.997  2.3183  1.7218 -1.8064
   63SAPC  H11Y 5102   5.618   4.805   7.840 -1.0688 -1.2702 -0.8361
   63SAPC  C312 5103   5.611   4.670   7.998 -1.1222  0.4233 -0.5292
   63SAPC  H12X 5104   5.601   4.584   7.929 -0.7928 -0.6981  0.7815
   63SAPC  H12Y 5105   5.560   4.639   8.092  0.7520 -1.9397 -0.2155
   63SAPC  C313 5106   5.761   4.686   8.038  0.8422 -0.1042  0.6823
   63SAPC  H13X 5107   5.819   4.716   7.948  0.9457  0.7246  1.0128
   63SAPC  H13Y 5108   5.794   4.590   8.082 -0.4012 -0.7113  0.3054
   63SAPC  C314 5109   5.774   4.797   8.144  0.0185  0.0479  0.0533
   63SAPC  H14X 5110   5.685   4.807   8.210  1.8512  2.1438  2.2888
   63SAPC  H14Y 5111   5.800   4.887   8.085 -2.0076 -0.6211 -1.9472
   63SAPC  C315 5112   5.891   4.762   8.234 -0.4387  0.3697  0.0864
   63SAPC  H15X 5113   5.977   4.746   8.165 -1.0852  0.9629 -0.8688
   63SAPC  H15Y 5114   5.872   4.667   8.289 -1.4120  0.4002 -0.1947
   63SAPC  C316 5115   5.936   4.872   8.336 -0.0185  0.1360  0.6588
   63SAPC  H16X 5116   5.848   4.898   8.398  1.1243 -0.0807  2.4236
   63SAPC  H16Y 5117   5.969   4.970   8.293 -0.3512 -0.7163 -1.5797
   63SAPC  C317 5118   6.037   4.827   8.442 -0.5190  0.0092 -1.0827
   63SAPC  H17X 5119   6.114   4.767   8.389 -0.7410 -1.0976 -0.1779
   63SAPC  H17Y 5120   5.987   4.770   8.523 -1.4437  1.1226 -0.8510
   63SAPC  C318 5121   6.105   4.946   8.509  0.3907  0.0366  0.3142
   63SAPC  H18X 5122   6.043   4.988   8.590 -2.8471 -1.7449 -1.1550
   63SAPC  H18Y 5123   6.136   5.021   8.433 -0.8462 -2.4037 -2.7366
   63SAPC  H18Z 5124   6.192   4.900   8.561 -0.7108 -1.3739  0.9468
   64SAPC     N 5125   0.629   4.525   5.924  0.0752 -0.6263  0.3558
   64SAPC   C12 5126   0.649   4.630   6.024 -0.2139  0.1690  0.3214
   64SAPC  H12A 5127   0.553   4.646   6.071  0.3677  1.4687  1.0868
   64SAPC  H12B 5128   0.681   4.726   5.988  2.2328  0.8602  4.0847
   64SAPC   C13 5129   0.756   4.489   5.851  0.6216 -0.4109 -0.3103
   64SAPC  H13A 5130   0.733   4.413   5.776 -1.0215 -1.0894  0.8508
   64SAPC  H13B 5131   0.799   4.571   5.796 -0.6114  0.2027 -0.3697
   64SAPC  H13C 5132   0.826   4.456   5.925  1.5410  0.6363 -0.7103
   64SAPC   C14 5133   0.590   4.400   5.987 -0.7772  0.5484 -0.6807
   64SAPC  H14A 5134   0.596   4.319   5.916 -0.2344  0.3989 -0.4680
   64SAPC  H14B 5135   0.663   4.381   6.064 -0.4694  0.8164 -0.9048
   64SAPC  H14C 5136   0.497   4.399   6.042  1.0346  1.3000  2.4959
   64SAPC   C15 5137   0.524   4.577   5.833  0.1673 -0.4684 -0.0506
   64SAPC  H15A 5138   0.511   4.509   5.751  0.2193 -0.1489 -0.3252
   64SAPC  H15B 5139   0.424   4.579   5.875 -0.4984  2.0957 -1.6482
   64SAPC  H15C 5140   0.546   4.670   5.782 -2.1610  1.5992  2.5507
   64SAPC   C11 5141   0.742   4.599   6.142  0.2144  0.0720 -0.1044
   64SAPC  H11A 5142   0.725   4.500   6.189  2.2637 -0.7350 -1.0003
   64SAPC  H11B 5143   0.727   4.667   6.228 -0.1882  0.4429 -0.4634
   64SAPC     P 5144   0.959   4.743   6.099 -0.5130 -0.0850 -0.0963
   64SAPC   O13 5145   1.103   4.723   6.072 -0.2641 -0.3617  0.1752
   64SAPC   O14 5146   0.897   4.835   6.007 -0.1082 -0.6015  0.9907
   64SAPC   O12 5147   0.876   4.607   6.103 -0.0922  0.6647  0.4757
   64SAPC   O11 5148   0.941   4.793   6.246 -0.1403  0.1086  0.6723
   64SAPC    C1 5149   0.973   4.725   6.370 -0.1744 -0.8969 -0.0049
   64SAPC    HA 5150   0.928   4.624   6.380 -2.9530  0.4407  1.6748
   64SAPC    HB 5151   1.083   4.707   6.368 -0.3126 -1.6630 -2.2936
   64SAPC    C2 5152   0.927   4.826   6.486 -0.2976  0.1000  0.0170
   64SAPC    HS 5153   0.964   4.927   6.459  0.5042 -0.5932 -1.5926
   64SAPC   O21 5154   0.978   4.783   6.616 -0.1512  0.6057  0.4229
   64SAPC   C21 5155   0.984   4.874   6.708 -0.0772 -0.2104 -0.5496
   64SAPC   O22 5156   0.979   4.994   6.690  0.1999  0.4495  0.4165
   64SAPC   C22 5157   1.003   4.808   6.841  0.1539  0.3167  0.6983
   64SAPC   H2R 5158   0.907   4.773   6.883 -0.5592  1.3792 -0.0068
   64SAPC   H2S 5159   1.073   4.722   6.831  0.8718  0.9093  0.6149
   64SAPC    C3 5160   0.773   4.847   6.485  0.9156 -0.0399 -0.2143
   64SAPC    HX 5161   0.721   4.755   6.520 -2.1263  1.1626 -1.4611
   64SAPC    HY 5162   0.731   4.866   6.385 -1.8353 -2.3336  0.4532
   64SAPC   O31 5163   0.731   4.945   6.586 -0.6313  0.3273  0.2625
   64SAPC   C31 5164   0.713   5.073   6.542  0.5462  0.4889  0.0880
   64SAPC   O32 5165   0.711   5.110   6.427 -0.1718 -0.3721  0.5118
   64SAPC   C32 5166   0.676   5.154   6.656  0.4892 -0.1419  0.4621
   64SAPC   H2X 5167   0.761   5.166   6.727  2.0659 -2.2926 -1.0058
   64SAPC   H2Y 5168   0.591   5.105   6.709 -0.1010 -2.0078 -2.0850
   64SAPC   C23 5169   1.061   4.911   6.938 -0.2066 -0.2615 -0.3666
   64SAPC   H3R 5170   0.997   5.000   6.954 -0.6461 -0.7691  0.7135
   64SAPC   H3S 5171   1.164   4.943   6.913 -0.1519  0.0692  0.2738
   64SAPC   C24 5172   1.096   4.846   7.076 -0.6704 -0.2999  0.4439
   64SAPC   H4R 5173   1.179   4.899   7.126 -2.7145  2.8450  0.6501
   64SAPC   H4S 5174   1.139   4.746   7.053  0.5926 -0.0631  1.7103
   64SAPC   C25 5175   0.979   4.809   7.164  0.0510 -0.4727 -0.3096
   64SAPC   H5R 5176   0.892   4.787   7.101  0.4178 -0.3449 -0.8609
   64SAPC   C26 5177   0.992   4.795   7.295  0.4497 -0.0663 -0.4167
   64SAPC   H6R 5178   0.908   4.770   7.362  0.3506 -0.8997 -0.8466
   64SAPC   C27 5179   1.121   4.817   7.379  1.1519 -0.3661 -0.3058
   64SAPC   H7R 5180   1.122   4.915   7.432  0.4704 -0.0846 -0.8124
   64SAPC   H7S 5181   1.211   4.814   7.314  0.4345 -0.7995 -1.2923
   64SAPC   C28 5182   1.148   4.708   7.472  0.4744 -0.2538 -0.1494
   64SAPC   H8R 5183   1.182   4.617   7.421 -1.2626 -0.0131 -1.7734
   64SAPC   C29 5184   1.119   4.702   7.607  0.3540 -0.9627 -0.2621
   64SAPC   H9R 5185   1.159   4.617   7.664 -0.5761 -0.8449  0.5763
   64SAPC  C210 5186   1.070   4.821   7.688 -0.4131 -0.7683  0.1108
   64SAPC  H10R 5187   1.000   4.789   7.769 -2.5292  1.8530 -0.6157
   64SAPC  H10S 5188   1.019   4.896   7.625  0.9349 -0.8897 -1.1577
   64SAPC  C211 5189   1.178   4.893   7.766 -0.2185 -0.1201  0.0146
   64SAPC  H11R 5190   1.266   4.925   7.708 -0.0892 -0.1164  0.2127
   64SAPC  C212 5191   1.172   4.936   7.893 -0.2079  0.0966 -0.1425
   64SAPC  H12R 5192   1.256   4.992   7.936 -2.0598  2.6455  0.2735
   64SAPC  C213 5193   1.057   4.928   7.992  0.5324  0.0433  0.0172
   64SAPC  H13R 5194   0.996   4.837   7.975  0.4864 -0.0357  0.6015
   64SAPC  H13S 5195   0.984   5.011   7.980 -0.8470 -1.0390  0.8018
   64SAPC  C214 5196   1.105   4.921   8.136 -0.3210 -0.2208 -0.1388
   64SAPC  H14R 5197   1.051   5.000   8.190 -0.0584  0.6451 -1.1195
   64SAPC  C215 5198   1.199   4.843   8.199 -1.0632 -0.5320  0.5181
   64SAPC  H15R 5199   1.214   4.855   8.307  2.0354 -3.1348  0.4863
   64SAPC  C216 5200   1.271   4.725   8.143  0.7426  0.2072 -0.0104
   64SAPC  H16R 5201   1.381   4.739   8.147  0.5306  3.1718 -2.6581
   64SAPC  H16S 5202   1.240   4.716   8.037 -0.0803 -0.0372  0.2473
   64SAPC  C217 5203   1.234   4.596   8.214  0.7467 -0.1478 -1.2148
   64SAPC  H17R 5204   1.262   4.513   8.145 -0.4495 -0.6628 -1.1037
   64SAPC  H17S 5205   1.130   4.583   8.251  0.9363  0.4434 -0.4734
   64SAPC  C218 5206   1.330   4.579   8.331 -0.1797  0.1308  0.5621
   64SAPC  H18R 5207   1.333   4.667   8.399  2.1611  2.5657 -2.5087
   64SAPC  H18S 5208   1.433   4.561   8.293 -0.2228  0.5841  0.2219
   64SAPC  C219 5209   1.298   4.451   8.415  0.2355  0.4027 -0.6442
   64SAPC  H19R 5210   1.388   4.429   8.476  0.1942 -0.8015 -1.0145
   64SAPC  H19S 5211   1.287   4.363   8.349  0.1106  1.1295 -1.6035
   64SAPC  C220 5212   1.179   4.468   8.497 -0.4748  0.1653 -0.4497
   64SAPC  H20R 5213   1.191   4.552   8.569 -0.3737  1.2740 -1.7402
   64SAPC  H20S 5214   1.166   4.377   8.560  0.9015  0.1788 -0.1165
   64SAPC  H20T 5215   1.084   4.499   8.448 -0.7026  1.2811  0.6688
   64SAPC   C33 5216   0.634   5.293   6.615  0.1081  0.0923  0.1340
   64SAPC   H3X 5217   0.537   5.286   6.561  1.5397 -2.0022 -2.2941
   64SAPC   H3Y 5218   0.716   5.335   6.553  0.0673 -2.2559 -1.5772
   64SAPC   C34 5219   0.610   5.387   6.733  0.5953  0.1948  0.6598
   64SAPC   H4X 5220   0.563   5.336   6.819 -1.6418 -1.2102 -1.3231
   64SAPC   H4Y 5221   0.538   5.466   6.703 -2.4887 -2.8522 -0.2555
   64SAPC   C35 5222   0.742   5.449   6.788 -0.3015 -0.6359 -0.4819
   64SAPC   H5X 5223   0.794   5.496   6.702  1.2702  5.3093  3.3984
   64SAPC   H5Y 5224   0.801   5.367   6.833 -0.2356 -0.6371 -0.5709
   64SAPC   C36 5225   0.730   5.573   6.881 -0.7747 -0.0214 -0.1382
   64SAPC   H6X 5226   0.703   5.667   6.828 -1.2768  0.3551  0.7715
   64SAPC   H6Y 5227   0.828   5.590   6.930  1.0955 -1.6393 -3.1858
   64SAPC   C37 5228   0.622   5.552   6.989  0.2455 -0.6663  0.2699
   64SAPC   H7X 5229   0.656   5.463   7.046 -1.0798 -1.0280  0.5199
   64SAPC   H7Y 5230   0.525   5.536   6.938  0.3109  3.4594 -1.3601
   64SAPC   C38 5231   0.614   5.679   7.082 -0.0092  0.2026 -0.0643
   64SAPC   H8X 5232   0.530   5.656   7.152 -0.5501  2.7265  0.1780
   64SAPC   H8Y 5233   0.602   5.773   7.025 -1.0486  0.5173  0.6332
   64SAPC   C39 5234   0.731   5.699   7.180 -0.2055 -0.0698 -0.4304
   64SAPC   H9X 5235   0.814   5.753   7.132 -0.4116 -1.2112 -2.1054
   64SAPC   H9Y 5236   0.784   5.605   7.207 -0.0943 -1.2006 -4.2876
   64SAPC  C310 5237   0.694   5.770   7.314  0.3689  0.5077 -0.5042
   64SAPC  H10X 5238   0.623   5.854   7.297 -0.8632 -0.2809  0.6789
   64SAPC  H10Y 5239   0.796   5.808   7.340  1.4681 -1.6677 -1.4966
   64SAPC  C311 5240   0.644   5.683   7.430  0.2201 -0.2496 -0.4343
   64SAPC  H11X 5241   0.707   5.592   7.436 -2.3048 -1.9365  1.7631
   64SAPC  H11Y 5242   0.541   5.649   7.407  0.5159 -1.1882 -0.3669
   64SAPC  C312 5243   0.650   5.757   7.561  0.0113 -0.2040  0.3384
   64SAPC  H12X 5244   0.578   5.841   7.553 -1.9875 -1.8480  0.7229
   64SAPC  H12Y 5245   0.747   5.809   7.574  0.1876 -0.6271  0.7126
   64SAPC  C313 5246   0.598   5.697   7.693  0.2469  0.9197 -0.1323
   64SAPC  H13X 5247   0.504   5.640   7.676  0.0463  0.9795  0.7726
   64SAPC  H13Y 5248   0.584   5.774   7.771 -1.1710  3.1140 -2.4654
   64SAPC  C314 5249   0.715   5.615   7.757 -0.2858  0.3267 -0.0793
   64SAPC  H14X 5250   0.808   5.675   7.748  1.3038 -1.9450  0.7048
   64SAPC  H14Y 5251   0.745   5.523   7.702  0.7722  1.7727 -1.9787
   64SAPC  C315 5252   0.692   5.577   7.905 -0.5104  0.3630  0.3822
   64SAPC  H15X 5253   0.588   5.538   7.900  0.3205 -1.6878 -1.5022
   64SAPC  H15Y 5254   0.693   5.680   7.948 -1.8963 -0.0522  1.4415
   64SAPC  C316 5255   0.790   5.468   7.964  0.3764 -0.3715 -0.1834
   64SAPC  H16X 5256   0.892   5.511   7.963  0.6935 -1.0888  0.6921
   64SAPC  H16Y 5257   0.809   5.392   7.884  2.3123 -1.5894  1.3821
   64SAPC  C317 5258   0.736   5.417   8.100 -1.1867  0.1814  0.6230
   64SAPC  H17X 5259   0.636   5.372   8.085 -1.0667  0.3576 -0.7673
   64SAPC  H17Y 5260   0.725   5.498   8.175  2.9494 -0.8616  2.4491
   64SAPC  C318 5261   0.824   5.304   8.162  0.2057 -0.1738 -0.4901
   64SAPC  H18X 5262   0.802   5.265   8.264  0.3329  0.5894 -0.1675
   64SAPC  H18Y 5263   0.928   5.343   8.168 -0.0638  0.4532  0.2044
   64SAPC  H18Z 5264   0.825   5.221   8.088 -0.6161 -1.2886  0.7256
   65SAPC     N 5265   0.027   6.707   5.670 -0.2273 -0.2448  0.2354
   65SAPC   C12 5266   0.118   6.770   5.771 -0.6429 -0.2858  0.0637
   65SAPC  H12A 5267   0.062   6.780   5.863 -0.6017 -1.3594  0.2096
   65SAPC  H12B 5268   0.144   6.870   5.739  2.9112 -1.2288 -0.2576
   65SAPC   C13 5269  -0.025   6.581   5.729  0.2068 -0.2476 -0.0309
   65SAPC  H13A 5270  -0.094   6.593   5.810 -1.6397 -1.6245 -1.3549
   65SAPC  H13B 5271  -0.067   6.517   5.653 -0.9347  1.9571 -1.2955
   65SAPC  H13C 5272   0.058   6.529   5.774 -1.1535 -0.5959  2.1359
   65SAPC   C14 5273  -0.092   6.795   5.643 -0.0123 -0.2414 -0.7971
   65SAPC  H14A 5274  -0.050   6.889   5.612  0.2713 -0.0825  0.0476
   65SAPC  H14B 5275  -0.157   6.748   5.571 -1.2762  0.1079  0.0976
   65SAPC  H14C 5276  -0.143   6.809   5.738 -0.9759  0.1152 -1.3653
   65SAPC   C15 5277   0.108   6.685   5.550  0.1802 -0.5996 -0.1059
   65SAPC  H15A 5278   0.183   6.608   5.561  1.5105  0.5649 -0.8498
   65SAPC  H15B 5279   0.043   6.655   5.469 -2.3629  0.1872  1.5756
   65SAPC  H15C 5280   0.165   6.771   5.515 -2.8437  1.1524 -0.8887
   65SAPC   C11 5281   0.254   6.705   5.808 -0.3784  0.0248  0.5582
   65SAPC  H11A 5282   0.298   6.771   5.886 -0.6734 -0.2463  0.9583
   65SAPC  H11B 5283   0.317   6.703   5.716 -0.8015  0.0084  0.2710
   65SAPC     P 5284   0.224   6.545   6.014 -0.0120  0.2732 -0.1762
   65SAPC   O13 5285   0.127   6.436   6.046 -0.3580 -0.3371 -0.3101
   65SAPC   O14 5286   0.354   6.520   6.068 -0.7828 -0.0686 -0.9190
   65SAPC   O12 5287   0.237   6.571   5.857 -0.1808 -0.1037 -0.5210
   65SAPC   O11 5288   0.160   6.675   6.081  0.2444 -0.5885 -0.3284
   65SAPC    C1 5289   0.225   6.789   6.138 -0.0251 -0.0972  0.9374
   65SAPC    HA 5290   0.332   6.792   6.106 -0.7309  2.0367 -1.3670
   65SAPC    HB 5291   0.185   6.889   6.110  2.6641  1.5493  2.6407
   65SAPC    C2 5292   0.219   6.788   6.291  0.4764  0.0834  0.1798
   65SAPC    HS 5293   0.266   6.879   6.333  3.3632 -0.6300 -1.3377
   65SAPC   O21 5294   0.273   6.673   6.349  0.5394 -0.2942 -0.1818
   65SAPC   C21 5295   0.402   6.664   6.353  0.6343  0.2446 -0.8186
   65SAPC   O22 5296   0.476   6.761   6.330 -0.1230  0.7383 -0.2834
   65SAPC   C22 5297   0.457   6.529   6.393  0.3561  0.3865  0.0093
   65SAPC   H2R 5298   0.426   6.444   6.329  0.9327 -1.9121  2.6755
   65SAPC   H2S 5299   0.567   6.528   6.378  0.3531  1.0683 -0.0838
   65SAPC    C3 5300   0.066   6.791   6.336  1.0047 -0.9228  0.3441
   65SAPC    HX 5301   0.018   6.702   6.289 -0.5748 -1.3005  2.5869
   65SAPC    HY 5302   0.018   6.875   6.281 -2.8575 -3.3190 -0.1438
   65SAPC   O31 5303   0.053   6.786   6.480 -0.4933  0.6152 -0.4064
   65SAPC   C31 5304   0.008   6.899   6.544  0.0139 -0.7277  0.6764
   65SAPC   O32 5305  -0.005   7.008   6.484  0.2041  0.3571 -0.4474
   65SAPC   C32 5306  -0.012   6.864   6.687  0.7394 -0.3333 -0.1214
   65SAPC   H2X 5307   0.084   6.851   6.742  1.0346  0.7592 -0.3696
   65SAPC   H2Y 5308  -0.054   6.762   6.674 -0.8546  0.0152  2.0629
   65SAPC   C23 5309   0.427   6.494   6.544 -0.0503  0.4965  0.3116
   65SAPC   H3R 5310   0.474   6.393   6.549  1.7751  1.1683 -2.3156
   65SAPC   H3S 5311   0.317   6.482   6.556 -0.0232 -2.9898 -2.2068
   65SAPC   C24 5312   0.487   6.580   6.652 -0.3252 -0.1743  0.5796
   65SAPC   H4R 5313   0.482   6.530   6.751  1.0980 -0.1668  0.6699
   65SAPC   H4S 5314   0.427   6.674   6.658  0.7439  0.4786  1.1229
   65SAPC   C25 5315   0.630   6.614   6.614  0.5336  0.4132  0.1737
   65SAPC   H5R 5316   0.673   6.529   6.560  0.0405  0.3485 -0.1166
   65SAPC   C26 5317   0.708   6.714   6.644  0.3140 -0.1915 -0.4262
   65SAPC   H6R 5318   0.808   6.717   6.599  1.0752 -0.9782  1.1732
   65SAPC   C27 5319   0.668   6.836   6.726 -0.0342  0.1711 -0.4270
   65SAPC   H7R 5320   0.752   6.870   6.790 -0.9820 -0.2962  1.1056
   65SAPC   H7S 5321   0.578   6.818   6.789 -1.6210  1.8375 -2.1693
   65SAPC   C28 5322   0.641   6.956   6.639  0.5270  0.3623 -0.3158
   65SAPC   H8R 5323   0.730   6.996   6.588 -0.1848  1.4096 -0.7493
   65SAPC   C29 5324   0.516   7.023   6.621 -0.2298 -0.0052 -0.2405
   65SAPC   H9R 5325   0.505   7.102   6.546  2.5330  0.8427  0.2169
   65SAPC  C210 5326   0.387   6.988   6.680  0.7121 -0.4277 -0.0706
   65SAPC  H10R 5327   0.390   6.921   6.769 -0.2481 -1.2494 -0.6486
   65SAPC  H10S 5328   0.335   6.935   6.598 -0.0725  0.7202 -0.3337
   65SAPC  C211 5329   0.295   7.104   6.705  0.1878 -0.4016  0.2839
   65SAPC  H11R 5330   0.243   7.146   6.618 -1.6281 -2.1029  0.4935
   65SAPC  C212 5331   0.252   7.156   6.819  0.1946 -0.1584  0.5066
   65SAPC  H12R 5332   0.193   7.249   6.810 -1.0645 -1.0078 -0.1779
   65SAPC  C213 5333   0.291   7.123   6.964 -0.2293  0.8577  0.0841
   65SAPC  H13R 5334   0.325   7.017   6.962 -2.2760  0.1956 -0.6186
   65SAPC  H13S 5335   0.205   7.126   7.033  0.0306  0.5322  0.4265
   65SAPC  C214 5336   0.398   7.219   7.019 -0.7046 -0.5371  0.6096
   65SAPC  H14R 5337   0.453   7.267   6.938 -0.2868 -0.9457  0.6439
   65SAPC  C215 5338   0.410   7.248   7.149  0.2077 -1.1569  0.8405
   65SAPC  H15R 5339   0.496   7.308   7.181  0.6525 -1.7663  0.7867
   65SAPC  C216 5340   0.335   7.196   7.266  0.6039 -0.1906  0.0656
   65SAPC  H16R 5341   0.413   7.171   7.341 -1.1237 -0.1808  1.8988
   65SAPC  H16S 5342   0.291   7.096   7.247  2.3971 -0.8951 -0.5291
   65SAPC  C217 5343   0.226   7.293   7.313  0.2022  0.0733  0.7483
   65SAPC  H17R 5344   0.168   7.245   7.395  3.1515 -1.1987  2.1711
   65SAPC  H17S 5345   0.159   7.307   7.226  0.6751  0.2724  0.4182
   65SAPC  C218 5346   0.286   7.414   7.374  0.1886 -0.0541 -0.4863
   65SAPC  H18R 5347   0.368   7.454   7.310  1.8404 -1.1340  0.9136
   65SAPC  H18S 5348   0.331   7.367   7.464 -0.7134 -1.5294 -0.7989
   65SAPC  C219 5349   0.192   7.523   7.422  0.3797 -0.2494 -0.2659
   65SAPC  H19R 5350   0.132   7.501   7.513  0.0648 -2.8234 -1.0561
   65SAPC  H19S 5351   0.122   7.570   7.349  1.2545  0.6499 -0.5225
   65SAPC  C220 5352   0.286   7.637   7.467  0.7587 -0.6542 -0.6426
   65SAPC  H20R 5353   0.346   7.600   7.553 -0.1062 -0.1768  0.1731
   65SAPC  H20S 5354   0.224   7.724   7.498  1.9713  0.9956 -2.6473
   65SAPC  H20T 5355   0.357   7.664   7.385  0.6138  0.1727 -0.5033
   65SAPC   C33 5356  -0.092   6.969   6.763 -0.6100 -0.2831  0.2976
   65SAPC   H3X 5357  -0.181   7.005   6.707  0.1279 -0.1670 -0.8076
   65SAPC   H3Y 5358  -0.032   7.061   6.778  0.0699 -0.6068 -0.4252
   65SAPC   C34 5359  -0.150   6.931   6.900 -0.2089 -0.5880 -0.2126
   65SAPC   H4X 5360  -0.247   6.880   6.884 -1.0650  1.4044 -1.6315
   65SAPC   H4Y 5361  -0.179   7.026   6.950  0.7222 -1.1620  1.4406
   65SAPC   C35 5362  -0.069   6.839   6.991 -0.3766 -0.5411 -0.3325
   65SAPC   H5X 5363   0.031   6.882   7.015 -0.8466  1.5278 -1.9015
   65SAPC   H5Y 5364  -0.050   6.745   6.933  3.2677 -0.4318  0.5289
   65SAPC   C36 5365  -0.136   6.802   7.129  0.2250  0.3004 -0.3178
   65SAPC   H6X 5366  -0.236   6.757   7.114  0.8426 -1.7632  1.4651
   65SAPC   H6Y 5367  -0.142   6.895   7.189  3.0554 -0.3638  1.1123
   65SAPC   C37 5368  -0.049   6.705   7.203 -0.7048  0.5352 -0.4724
   65SAPC   H7X 5369   0.055   6.745   7.210 -0.8762  0.5793  2.2006
   65SAPC   H7Y 5370  -0.042   6.607   7.152 -2.4635  1.0616 -1.7844
   65SAPC   C38 5371  -0.104   6.679   7.341 -0.1697 -0.5664 -0.0390
   65SAPC   H8X 5372  -0.208   6.641   7.334 -0.7121  0.6421  1.1980
   65SAPC   H8Y 5373  -0.109   6.779   7.390  1.8249 -0.4311 -0.0817
   65SAPC   C39 5374  -0.029   6.584   7.442  0.1190  0.3976 -0.4777
   65SAPC   H9X 5375   0.076   6.617   7.432 -0.0435  0.5094 -1.9452
   65SAPC   H9Y 5376  -0.046   6.480   7.406 -2.8117  1.0514 -1.1360
   65SAPC  C310 5377  -0.086   6.597   7.583  0.6895 -0.0781 -0.0748
   65SAPC  H10X 5378  -0.197   6.595   7.593  0.8484  1.4282  2.6418
   65SAPC  H10Y 5379  -0.070   6.705   7.606 -1.6952  0.1118  0.8302
   65SAPC  C311 5380  -0.008   6.508   7.683 -0.5484  0.5232  0.4628
   65SAPC  H11X 5381   0.097   6.542   7.678  0.1812 -1.9140 -1.4981
   65SAPC  H11Y 5382  -0.013   6.401   7.654  2.2172  0.7529 -0.9978
   65SAPC  C312 5383  -0.064   6.534   7.826  0.7416  0.7429 -0.4039
   65SAPC  H12X 5384  -0.165   6.494   7.845 -0.1253  2.2532 -1.6726
   65SAPC  H12Y 5385  -0.063   6.644   7.843  1.5987  0.7119 -0.2030
   65SAPC  C313 5386   0.025   6.474   7.938  0.6440  0.2254  0.7031
   65SAPC  H13X 5387  -0.019   6.491   8.039  0.5061  0.1810  0.6494
   65SAPC  H13Y 5388   0.128   6.512   7.924  1.1159 -1.4696 -0.5246
   65SAPC  C314 5389   0.035   6.326   7.927  0.1400  0.5501  0.2722
   65SAPC  H14X 5390   0.093   6.306   7.834 -2.0320 -0.4725 -0.9160
   65SAPC  H14Y 5391  -0.064   6.278   7.911 -0.2319  1.3327  0.1994
   65SAPC  C315 5392   0.103   6.267   8.053  0.0428  0.3412  0.1372
   65SAPC  H15X 5393   0.184   6.341   8.074  0.2399  0.3665 -0.6668
   65SAPC  H15Y 5394   0.149   6.170   8.022  1.4150  0.9729  0.1387
   65SAPC  C316 5395  -0.001   6.237   8.169 -0.0253  0.6973  0.4584
   65SAPC  H16X 5396  -0.105   6.239   8.129  0.4305 -0.1482 -0.7858
   65SAPC  H16Y 5397  -0.004   6.328   8.233 -1.0199 -0.5654  2.2503
   65SAPC  C317 5398   0.005   6.104   8.246  0.2686  0.1566  0.5117
   65SAPC  H17X 5399   0.009   6.025   8.167 -2.7784  1.2042 -0.7711
   65SAPC  H17Y 5400  -0.091   6.086   8.300 -0.6204 -0.4508 -1.2322
   65SAPC  C318 5401   0.117   6.077   8.349  0.1349 -0.1916 -0.1416
   65SAPC  H18X 5402   0.120   6.143   8.438 -0.7278 -1.0016  0.4970
   65SAPC  H18Y 5403   0.217   6.083   8.303  0.5142  0.8132  0.7937
   65SAPC  H18Z 5404   0.108   5.978   8.398 -0.4611  0.1351  0.4244
   66SAPC     N 5405   4.969   5.914   5.722  0.2454  0.5691  0.7488
   66SAPC   C12 5406   4.845   5.919   5.826 -0.3580  0.1201  0.3165
   66SAPC  H12A 5407   4.770   5.858   5.778  0.8061 -1.1665  0.0743
   66SAPC  H12B 5408   4.814   6.022   5.832  1.6724  0.7064  1.2558
   66SAPC   C13 5409   5.026   5.777   5.714 -0.1171 -0.5050 -0.0657
   66SAPC  H13A 5410   4.948   5.702   5.711 -0.1340 -0.4645 -0.5743
   66SAPC  H13B 5411   5.082   5.755   5.625 -0.1697 -3.3849  0.5815
   66SAPC  H13C 5412   5.075   5.760   5.809  0.3302  0.2502 -0.1550
   66SAPC   C14 5413   4.913   5.951   5.585  0.3061 -0.3387 -0.0441
   66SAPC  H14A 5414   4.859   5.872   5.534 -1.4480 -0.5546  2.0846
   66SAPC  H14B 5415   4.846   6.036   5.589 -0.4002 -0.8273 -1.0316
   66SAPC  H14C 5416   4.993   5.976   5.517 -0.1444  1.2944  0.0199
   66SAPC   C15 5417   5.071   6.008   5.757 -0.4383 -0.0725 -0.4471
   66SAPC  H15A 5418   5.118   5.965   5.845  1.1707  1.1034 -0.6907
   66SAPC  H15B 5419   5.145   6.005   5.678 -0.1308 -1.3470 -0.1267
   66SAPC  H15C 5420   5.030   6.107   5.772 -1.7859 -0.5421 -1.0404
   66SAPC   C11 5421   4.868   5.872   5.963 -0.2997  0.4640  0.1799
   66SAPC  H11A 5422   4.775   5.893   6.021 -2.5121 -0.6706 -2.8685
   66SAPC  H11B 5423   4.949   5.936   6.006  1.6723 -1.1490 -1.0791
   66SAPC     P 5424   4.974   5.682   6.092  0.2235 -0.7527 -0.2038
   66SAPC   O13 5425   4.998   5.536   6.073  0.6030 -0.4531  0.0588
   66SAPC   O14 5426   5.095   5.765   6.121 -0.1308  0.3333  0.3185
   66SAPC   O12 5427   4.894   5.731   5.972 -0.2970  0.1702 -0.4550
   66SAPC   O11 5428   4.873   5.706   6.214 -0.1777 -0.6332  0.1450
   66SAPC    C1 5429   4.923   5.748   6.345 -0.5984 -0.1719  0.1871
   66SAPC    HA 5430   4.854   5.710   6.423 -0.1260  1.6048  1.5179
   66SAPC    HB 5431   5.024   5.704   6.363 -0.2829 -0.4964 -2.2211
   66SAPC    C2 5432   4.934   5.903   6.366 -0.3588  0.3730 -0.1184
   66SAPC    HS 5433   5.000   5.941   6.286  0.0924 -0.4873 -0.1606
   66SAPC   O21 5434   4.994   5.925   6.492 -0.1893 -1.1589 -0.4780
   66SAPC   C21 5435   5.040   6.048   6.507  0.6189 -0.1008  0.1233
   66SAPC   O22 5436   5.049   6.132   6.419  0.5021 -0.1238  0.2239
   66SAPC   C22 5437   5.074   6.076   6.657  0.2609  0.6242 -0.0935
   66SAPC   H2R 5438   4.993   6.047   6.727  2.5309  1.4004  2.9917
   66SAPC   H2S 5439   5.164   6.014   6.678  0.6370  0.4060 -2.2946
   66SAPC    C3 5440   4.785   5.957   6.352  0.1273 -1.0039 -0.2899
   66SAPC    HX 5441   4.757   5.938   6.246  0.0408 -1.4939 -0.1776
   66SAPC    HY 5442   4.786   6.066   6.373  1.2219 -1.2163  0.8714
   66SAPC   O31 5443   4.692   5.875   6.433  0.1772  0.7879 -0.1215
   66SAPC   C31 5444   4.690   5.909   6.563  0.0966 -0.4172 -0.3028
   66SAPC   O32 5445   4.751   5.999   6.612  0.2788 -0.1806 -0.3012
   66SAPC   C32 5446   4.587   5.822   6.639  0.3868 -0.1503 -0.4525
   66SAPC   H2X 5447   4.564   5.732   6.577 -0.7343  1.3171 -2.2099
   66SAPC   H2Y 5448   4.493   5.878   6.658  1.8116  2.5453 -1.1148
   66SAPC   C23 5449   5.101   6.230   6.688 -0.1944 -0.4400 -0.1007
   66SAPC   H3R 5450   5.014   6.278   6.639  0.3951  0.1539 -0.5649
   66SAPC   H3S 5451   5.194   6.260   6.635  0.6474  1.7594  2.4905
   66SAPC   C24 5452   5.105   6.263   6.837  0.0682  0.5812 -0.9362
   66SAPC   H4R 5453   5.159   6.359   6.849  1.7782 -0.4454 -0.0914
   66SAPC   H4S 5454   5.178   6.193   6.884 -0.0409 -0.1926 -1.8872
   66SAPC   C25 5455   4.971   6.285   6.894 -0.2866 -0.3094 -0.0237
   66SAPC   H5R 5456   4.905   6.367   6.864 -0.3239 -0.5390 -0.5674
   66SAPC   C26 5457   4.944   6.208   6.998 -0.3507 -0.4182 -0.0712
   66SAPC   H6R 5458   4.844   6.219   7.042  0.5655 -1.9528  2.5314
   66SAPC   C27 5459   5.031   6.107   7.066 -0.3729  0.2236 -0.0466
   66SAPC   H7R 5460   5.094   6.156   7.143 -0.9450 -1.7123  1.7152
   66SAPC   H7S 5461   5.106   6.049   7.009 -0.1853  0.6553 -0.2412
   66SAPC   C28 5462   4.957   5.990   7.134 -0.0773  0.0300 -0.2455
   66SAPC   H8R 5463   4.881   5.941   7.072  1.3762  0.3788 -2.3314
   66SAPC   C29 5464   4.967   5.932   7.256 -0.2816  0.0905  0.0519
   66SAPC   H9R 5465   4.915   5.839   7.284  0.8803 -1.0545 -1.5075
   66SAPC  C210 5466   5.068   5.987   7.359 -0.2131  0.1640 -0.5561
   66SAPC  H10R 5467   5.026   6.084   7.394 -2.0373 -0.9026  0.3206
   66SAPC  H10S 5468   5.168   6.011   7.316  0.2227 -1.8048 -0.6924
   66SAPC  C211 5469   5.073   5.888   7.474 -0.4020  0.0357 -0.0700
   66SAPC  H11R 5470   5.150   5.809   7.463  0.9781  1.4701 -0.9126
   66SAPC  C212 5471   4.989   5.884   7.585 -0.1260 -0.2949  0.5841
   66SAPC  H12R 5472   4.994   5.804   7.661  0.5069  0.1055  0.9702
   66SAPC  C213 5473   4.877   5.984   7.601  0.3025 -0.3542 -0.4803
   66SAPC  H13R 5474   4.821   5.995   7.506 -0.6658 -0.0097  0.1259
   66SAPC  H13S 5475   4.936   6.075   7.626  0.9191 -1.3679  1.8151
   66SAPC  C214 5476   4.782   5.946   7.711 -0.0387 -0.2028  0.4994
   66SAPC  H14R 5477   4.705   5.870   7.691 -0.0798 -0.3188  1.0739
   66SAPC  C215 5478   4.782   5.998   7.836 -0.1498  0.7297 -0.1885
   66SAPC  H15R 5479   4.713   5.960   7.913  0.9399  2.2032  1.5705
   66SAPC  C216 5480   4.874   6.103   7.892  0.8007  0.0485 -0.4736
   66SAPC  H16R 5481   4.813   6.194   7.905  0.1060 -0.1148 -2.3954
   66SAPC  H16S 5482   4.954   6.132   7.820 -0.6933  0.6423 -1.9199
   66SAPC  C217 5483   4.952   6.061   8.023  0.1457 -0.2574  0.2131
   66SAPC  H17R 5484   4.895   6.086   8.115  2.5443  0.8335  1.4537
   66SAPC  H17S 5485   5.047   6.114   8.047 -0.0732  0.2704 -0.0791
   66SAPC  C218 5486   4.985   5.907   8.036 -0.7841  0.1088 -0.1483
   66SAPC  H18R 5487   5.067   5.879   7.966 -0.9182  1.0823 -0.6966
   66SAPC  H18S 5488   4.893   5.847   8.019  0.1274 -0.5552 -2.8788
   66SAPC  C219 5489   5.029   5.867   8.181  0.2635  0.5302 -0.5987
   66SAPC  H19R 5490   4.957   5.921   8.246 -0.5668  0.1269 -1.1825
   66SAPC  H19S 5491   5.126   5.913   8.209  0.5380 -1.5496  2.0125
   66SAPC  C220 5492   5.038   5.722   8.202 -0.6858 -0.3912 -0.4988
   66SAPC  H20R 5493   4.941   5.671   8.186 -2.6134  2.7417  0.7805
   66SAPC  H20S 5494   5.072   5.706   8.307  1.9649 -0.0414 -1.2744
   66SAPC  H20T 5495   5.120   5.672   8.145 -0.8450 -1.5771  0.2847
   66SAPC   C33 5496   4.651   5.763   6.771  0.2983 -0.1168 -0.0494
   66SAPC   H3X 5497   4.571   5.723   6.837 -0.8765  1.0124 -0.7712
   66SAPC   H3Y 5498   4.707   5.842   6.826  0.8069  0.7582 -1.7851
   66SAPC   C34 5499   4.739   5.645   6.745  0.6647 -0.6270 -0.0921
   66SAPC   H4X 5500   4.800   5.652   6.653 -0.6828  0.7698 -0.8988
   66SAPC   H4Y 5501   4.676   5.554   6.736  0.0754 -0.4996  2.2100
   66SAPC   C35 5502   4.843   5.635   6.865 -0.3214 -0.2402  0.0444
   66SAPC   H5X 5503   4.919   5.715   6.854 -0.4794 -0.0672  0.2091
   66SAPC   H5Y 5504   4.887   5.533   6.856 -0.0309 -0.1047 -0.0803
   66SAPC   C36 5505   4.768   5.626   7.001 -0.6200  0.6071 -0.4464
   66SAPC   H6X 5506   4.678   5.563   6.985 -1.6259  2.1903 -1.1625
   66SAPC   H6Y 5507   4.725   5.723   7.033 -2.3683 -0.9617  2.1967
   66SAPC   C37 5508   4.849   5.564   7.118 -0.2436 -0.0254  0.4412
   66SAPC   H7X 5509   4.953   5.603   7.105 -1.0136  1.9336  0.0399
   66SAPC   H7Y 5510   4.863   5.454   7.112 -1.7483 -0.3588  2.5154
   66SAPC   C38 5511   4.790   5.605   7.251  0.6222  0.2494  0.4569
   66SAPC   H8X 5512   4.692   5.555   7.267  1.5432 -2.3598 -1.7837
   66SAPC   H8Y 5513   4.784   5.716   7.249 -1.5743  0.1844  1.6299
   66SAPC   C39 5514   4.875   5.559   7.374  0.1419  0.2268  0.6220
   66SAPC   H9X 5515   4.982   5.590   7.375  0.3049 -0.2756  3.5110
   66SAPC   H9Y 5516   4.869   5.448   7.374 -1.7120  0.2413 -2.4392
   66SAPC  C310 5517   4.806   5.592   7.511 -0.9082 -0.4769 -0.2855
   66SAPC  H10X 5518   4.706   5.544   7.507 -1.0685 -0.1884  0.1983
   66SAPC  H10Y 5519   4.779   5.699   7.523 -0.2355 -0.4488  1.0268
   66SAPC  C311 5520   4.874   5.540   7.640 -0.5877 -0.2217 -0.3043
   66SAPC  H11X 5521   4.981   5.570   7.648 -0.1331 -1.6571 -0.7274
   66SAPC  H11Y 5522   4.875   5.429   7.629 -2.3527 -0.3145  0.4233
   66SAPC  C312 5523   4.796   5.571   7.766  0.3509 -0.1691  0.3179
   66SAPC  H12X 5524   4.688   5.554   7.746  0.1831  0.4199  0.7306
   66SAPC  H12Y 5525   4.797   5.682   7.773  0.1422 -0.2085  0.9284
   66SAPC  C313 5526   4.845   5.513   7.901 -1.0195  0.7822 -0.0891
   66SAPC  H13X 5527   4.923   5.579   7.945 -0.5857  1.5107 -1.8940
   66SAPC  H13Y 5528   4.894   5.415   7.887 -1.3018  0.1376  3.0826
   66SAPC  C314 5529   4.738   5.500   8.007 -0.2093  0.7142  0.2595
   66SAPC  H14X 5530   4.647   5.445   7.974 -0.4085  0.4657  1.2083
   66SAPC  H14Y 5531   4.707   5.603   8.034 -2.3913  0.2608 -0.4553
   66SAPC  C315 5532   4.793   5.429   8.128 -0.1898  0.0862 -0.1760
   66SAPC  H15X 5533   4.898   5.461   8.148 -0.9360  1.8056  1.1719
   66SAPC  H15Y 5534   4.796   5.322   8.097 -0.7874  0.7879 -2.7621
   66SAPC  C316 5535   4.696   5.457   8.253  0.4817 -0.1158  1.0684
   66SAPC  H16X 5536   4.596   5.429   8.214 -0.2024  2.3044  1.0534
   66SAPC  H16Y 5537   4.689   5.567   8.267  0.8129 -0.2080  1.9764
   66SAPC  C317 5538   4.734   5.391   8.382 -0.0291  0.1551 -0.2681
   66SAPC  H17X 5539   4.658   5.406   8.462  0.7138  0.1279  0.4421
   66SAPC  H17Y 5540   4.832   5.434   8.411  0.4790 -0.6521 -0.7687
   66SAPC  C318 5541   4.777   5.238   8.372  0.6071  0.6074  0.1412
   66SAPC  H18X 5542   4.864   5.250   8.303  0.3952  0.4835 -0.1438
   66SAPC  H18Y 5543   4.699   5.168   8.336  0.9703 -0.0557  0.6405
   66SAPC  H18Z 5544   4.816   5.188   8.463 -1.5406 -1.7364 -0.1703
   67SAPC     N 5545   1.067   1.038   5.971  0.4855  0.5577 -0.1515
   67SAPC   C12 5546   1.012   1.005   6.112  0.0944  0.1598 -0.3431
   67SAPC  H12A 5547   1.026   0.900   6.130 -2.0113 -0.4739 -2.2512
   67SAPC  H12B 5548   0.905   1.020   6.115 -0.0470 -0.9139  0.3126
   67SAPC   C13 5549   1.022   1.174   5.926 -0.6522  1.0014 -0.2303
   67SAPC  H13A 5550   1.049   1.244   6.004  1.4404  0.2268 -0.2086
   67SAPC  H13B 5551   1.086   1.218   5.850 -1.9768  2.0339 -0.7635
   67SAPC  H13C 5552   0.918   1.176   5.896 -1.4819 -1.9983  2.2634
   67SAPC   C14 5553   1.215   1.044   5.979 -0.3724  0.1646  0.0156
   67SAPC  H14A 5554   1.259   0.945   5.988 -1.9050 -0.3063  3.0094
   67SAPC  H14B 5555   1.260   1.087   5.891 -0.1580 -2.8730 -1.4134
   67SAPC  H14C 5556   1.244   1.094   6.070 -3.3382  1.5396  0.2238
   67SAPC   C15 5557   1.016   0.940   5.872 -0.6971 -0.2194  0.4687
   67SAPC  H15A 5558   1.045   0.964   5.771 -0.2418 -1.3905  0.3233
   67SAPC  H15B 5559   1.059   0.843   5.892 -1.0572 -0.3733  0.5094
   67SAPC  H15C 5560   0.908   0.944   5.870 -0.6928  0.2805  1.1448
   67SAPC   C11 5561   1.080   1.071   6.235 -0.2616 -0.1920 -0.6312
   67SAPC  H11A 5562   1.190   1.053   6.238 -0.3035 -0.4538 -0.6187
   67SAPC  H11B 5563   1.043   1.032   6.332 -0.8914  2.6976  0.3427
   67SAPC     P 5564   0.941   1.278   6.293  0.3272 -0.1694 -0.0927
   67SAPC   O13 5565   0.976   1.375   6.401  0.3274  0.1173  0.4127
   67SAPC   O14 5566   0.856   1.331   6.184  0.7102  0.4042 -0.3527
   67SAPC   O12 5567   1.071   1.212   6.231 -0.4087  0.3189 -0.2538
   67SAPC   O11 5568   0.860   1.150   6.365 -0.0886 -0.0188  0.3154
   67SAPC    C1 5569   0.870   1.123   6.504  0.1881 -0.2150 -0.6064
   67SAPC    HA 5570   0.859   1.014   6.522  2.0720 -0.4547 -0.8274
   67SAPC    HB 5571   0.972   1.149   6.541 -0.7802  0.3208  1.7452
   67SAPC    C2 5572   0.762   1.200   6.574  0.5138  0.0660 -0.7290
   67SAPC    HS 5573   0.767   1.303   6.533 -0.1641  1.4152  2.4036
   67SAPC   O21 5574   0.794   1.212   6.711 -0.0870 -0.5567 -1.1520
   67SAPC   C21 5575   0.735   1.309   6.781 -0.7487  0.7039  0.7479
   67SAPC   O22 5576   0.657   1.391   6.735  0.4530  0.2614 -0.2138
   67SAPC   C22 5577   0.793   1.313   6.916 -0.2821  0.4893 -0.2000
   67SAPC   H2R 5578   0.808   1.207   6.948 -0.2809  0.2583 -0.9535
   67SAPC   H2S 5579   0.886   1.371   6.894  0.6334 -1.5747 -1.9801
   67SAPC    C3 5580   0.622   1.125   6.556 -0.7290  0.2585  0.3526
   67SAPC    HX 5581   0.601   1.119   6.447 -0.9036  0.5958  0.3653
   67SAPC    HY 5582   0.537   1.185   6.596 -1.1981 -1.0954  1.4119
   67SAPC   O31 5583   0.625   0.992   6.616  0.0452  0.7772 -0.4143
   67SAPC   C31 5584   0.572   0.980   6.735  0.3891  0.2413  0.9783
   67SAPC   O32 5585   0.522   1.069   6.805  0.0059 -0.2686  0.3671
   67SAPC   C32 5586   0.589   0.840   6.786  0.3181  0.1895  0.0949
   67SAPC   H2X 5587   0.697   0.816   6.781 -0.0587 -1.0450 -3.7391
   67SAPC   H2Y 5588   0.533   0.784   6.708  0.6045  2.0984 -1.5133
   67SAPC   C23 5589   0.715   1.385   7.031  0.2414 -0.2944 -0.2003
   67SAPC   H3R 5590   0.608   1.357   7.027  0.6098 -1.9195  0.7255
   67SAPC   H3S 5591   0.729   1.494   7.021  0.4584 -0.1613  1.4342
   67SAPC   C24 5592   0.760   1.346   7.172 -0.6263 -0.4307  0.3767
   67SAPC   H4R 5593   0.729   1.239   7.176 -2.7558  0.1447  0.0102
   67SAPC   H4S 5594   0.708   1.421   7.235  0.3892  1.2939 -0.7966
   67SAPC   C25 5595   0.906   1.350   7.196  0.1266  0.0861  0.5276
   67SAPC   H5R 5596   0.969   1.353   7.106 -2.4115  1.1262 -1.2549
   67SAPC   C26 5597   0.961   1.333   7.320  0.1919  0.1286 -0.5955
   67SAPC   H6R 5598   1.069   1.350   7.331  0.0054  0.7850  0.3719
   67SAPC   C27 5599   0.903   1.317   7.461  0.3689 -0.2781  0.9963
   67SAPC   H7R 5600   0.967   1.237   7.503  0.6011 -1.0786 -0.8066
   67SAPC   H7S 5601   0.800   1.277   7.449  0.9483 -0.9008 -2.5186
   67SAPC   C28 5602   0.887   1.438   7.544  0.3644  0.1774 -0.0468
   67SAPC   H8R 5603   0.867   1.534   7.494 -0.9769  0.6200  1.3033
   67SAPC   C29 5604   0.873   1.432   7.676  0.1933 -0.2998 -0.1160
   67SAPC   H9R 5605   0.873   1.528   7.728 -2.4774 -0.4183  0.1288
   67SAPC  C210 5606   0.874   1.311   7.770 -0.1619  0.0059  0.0555
   67SAPC  H10R 5607   0.847   1.221   7.710  1.6996 -0.7755  0.3349
   67SAPC  H10S 5608   0.796   1.314   7.849  1.0251 -1.8264  1.3534
   67SAPC  C211 5609   1.003   1.294   7.841 -0.1303  0.4329  0.1960
   67SAPC  H11R 5610   1.079   1.250   7.775 -1.5694 -2.1128  0.2007
   67SAPC  C212 5611   1.036   1.330   7.972 -0.2090 -0.1776  0.2465
   67SAPC  H12R 5612   1.136   1.309   8.012 -0.5970  0.3117  1.5089
   67SAPC  C213 5613   0.948   1.401   8.065  0.6913  0.4523 -0.3594
   67SAPC  H13R 5614   0.899   1.323   8.127  1.3663  0.1288 -0.2248
   67SAPC  H13S 5615   0.862   1.440   8.006 -0.3453 -1.1416  0.0738
   67SAPC  C214 5616   1.023   1.505   8.139  0.2698  0.0010  0.2644
   67SAPC  H14R 5617   1.071   1.584   8.079 -0.7047  0.1071 -0.3929
   67SAPC  C215 5618   1.010   1.520   8.274 -0.8890 -0.4660  0.5288
   67SAPC  H15R 5619   1.060   1.606   8.320  1.2426 -1.3474 -0.0725
   67SAPC  C216 5620   0.931   1.432   8.372  0.4128 -0.2435 -0.4547
   67SAPC  H16R 5621   0.837   1.381   8.341 -2.2525  1.8011  3.7704
   67SAPC  H16S 5622   0.895   1.493   8.457  0.1191 -1.9100  0.6425
   67SAPC  C217 5623   1.008   1.313   8.432  0.2553 -0.3976  0.2015
   67SAPC  H17R 5624   1.107   1.341   8.476  0.4730 -0.8184 -0.0217
   67SAPC  H17S 5625   1.024   1.245   8.346  0.4793  2.7900 -2.3914
   67SAPC  C218 5626   0.922   1.242   8.537 -0.2637  0.1154 -0.5810
   67SAPC  H18R 5627   0.821   1.218   8.498 -0.5014  0.5847 -0.2609
   67SAPC  H18S 5628   0.905   1.303   8.629 -0.5804 -0.0799 -0.5106
   67SAPC  C219 5629   1.001   1.111   8.574  0.3870  0.5637 -0.1508
   67SAPC  H19R 5630   1.002   1.041   8.487 -1.1739  1.2339 -0.7210
   67SAPC  H19S 5631   0.936   1.055   8.644  0.6880 -1.2451 -1.2765
   67SAPC  C220 5632   1.134   1.133   8.636 -0.4890  1.0054  0.2781
   67SAPC  H20R 5633   1.191   1.040   8.657  0.7183  1.4837 -0.7952
   67SAPC  H20S 5634   1.129   1.192   8.729  0.6313 -0.8025  1.5103
   67SAPC  H20T 5635   1.206   1.182   8.567  0.2350  1.8278  1.5952
   67SAPC   C33 5636   0.519   0.816   6.921 -0.5947 -1.2181 -0.5151
   67SAPC   H3X 5637   0.498   0.707   6.925 -0.0552 -1.4097 -2.3343
   67SAPC   H3Y 5638   0.425   0.875   6.920  0.6825  0.9093 -0.3394
   67SAPC   C34 5639   0.589   0.863   7.052 -0.1099  0.4077  0.3462
   67SAPC   H4X 5640   0.520   0.867   7.139 -0.6665  0.9840 -0.1097
   67SAPC   H4Y 5641   0.617   0.966   7.019 -1.2740  0.2923 -1.0569
   67SAPC   C35 5642   0.711   0.787   7.085  0.1212  0.2881 -0.3191
   67SAPC   H5X 5643   0.745   0.714   7.009 -0.7182 -0.0718 -0.3553
   67SAPC   H5Y 5644   0.679   0.718   7.166 -0.5778 -0.0756 -0.8969
   67SAPC   C36 5645   0.828   0.870   7.148  0.2590  0.4324  0.3119
   67SAPC   H6X 5646   0.853   0.954   7.080  0.4027  1.2483  1.3403
   67SAPC   H6Y 5647   0.909   0.801   7.180 -0.3159  0.6282  2.2494
   67SAPC   C37 5648   0.785   0.937   7.284 -0.3083 -0.1632 -0.9431
   67SAPC   H7X 5649   0.705   1.005   7.247  0.9926  1.3942 -1.0023
   67SAPC   H7Y 5650   0.871   0.999   7.319 -1.6647  0.2644  1.6874
   67SAPC   C38 5651   0.736   0.846   7.397 -0.1270  0.1590 -0.2967
   67SAPC   H8X 5652   0.816   0.772   7.418  0.4419  0.1516 -2.4477
   67SAPC   H8Y 5653   0.664   0.768   7.366 -0.3518  0.5623 -0.7871
   67SAPC   C39 5654   0.684   0.919   7.523 -0.2799 -0.5901  0.4219
   67SAPC   H9X 5655   0.593   0.981   7.508 -0.8480 -0.7894  2.8054
   67SAPC   H9Y 5656   0.767   0.990   7.546 -0.1186 -0.7209  0.2380
   67SAPC  C310 5657   0.655   0.826   7.639 -0.3971  0.1020 -0.2174
   67SAPC  H10X 5658   0.752   0.775   7.660 -1.7328 -1.9603  1.1118
   67SAPC  H10Y 5659   0.569   0.766   7.603  0.3026  0.0404 -1.8394
   67SAPC  C311 5660   0.633   0.917   7.760  0.2518  0.4458 -0.0857
   67SAPC  H11X 5661   0.555   0.994   7.740  3.0563  4.3778  3.1452
   67SAPC  H11Y 5662   0.725   0.974   7.785 -0.0821  2.2307 -2.7327
   67SAPC  C312 5663   0.576   0.828   7.876 -0.3636 -0.0124  0.0577
   67SAPC  H12X 5664   0.641   0.739   7.878 -0.1197  0.1711  0.4188
   67SAPC  H12Y 5665   0.472   0.801   7.850  0.0912 -0.6150 -1.1676
   67SAPC  C313 5666   0.566   0.891   8.016 -0.7324 -0.3775  0.2551
   67SAPC  H13X 5667   0.494   0.837   8.082 -1.3001  0.4481  0.3100
   67SAPC  H13Y 5668   0.536   0.997   8.006  0.6735  0.0215  0.2198
   67SAPC  C314 5669   0.704   0.893   8.096 -0.6370 -0.3065 -0.2406
   67SAPC  H14X 5670   0.789   0.927   8.033 -1.3134  0.7936 -0.5765
   67SAPC  H14Y 5671   0.734   0.789   8.123  0.2705  0.1548  0.5863
   67SAPC  C315 5672   0.702   0.965   8.232 -1.0285 -0.1524  0.7432
   67SAPC  H15X 5673   0.685   1.075   8.229  0.4279  0.0293 -3.5347
   67SAPC  H15Y 5674   0.812   0.954   8.249 -0.4110  0.6544 -2.4952
   67SAPC  C316 5675   0.621   0.887   8.335  0.2426  0.3794 -0.9813
   67SAPC  H16X 5676   0.631   0.782   8.301  1.4372 -0.1780  1.0262
   67SAPC  H16Y 5677   0.510   0.893   8.331  0.2537  0.2331 -1.5737
   67SAPC  C317 5678   0.684   0.888   8.471  0.9784 -0.0668 -0.5186
   67SAPC  H17X 5679   0.647   0.982   8.516 -0.7197 -1.0719  0.2331
   67SAPC  H17Y 5680   0.795   0.898   8.474  1.0666 -1.0713 -0.0700
   67SAPC  C318 5681   0.656   0.770   8.561  0.0927 -0.1902 -0.6326
   67SAPC  H18X 5682   0.702   0.674   8.528 -1.5954 -0.7074 -1.4959
   67SAPC  H18Y 5683   0.547   0.760   8.573 -0.3297  2.4022 -1.8725
   67SAPC  H18Z 5684   0.691   0.783   8.665 -0.6245 -1.1648 -0.2665
   68SAPC     N 5685   5.280   6.491   5.709 -0.5846 -0.4167  0.2969
   68SAPC   C12 5686   5.350   6.555   5.832  0.4926 -0.4324  0.3723
   68SAPC  H12A 5687   5.423   6.623   5.792  1.5973  1.4631  5.2539
   68SAPC  H12B 5688   5.414   6.483   5.880  1.3525  0.3856  0.4593
   68SAPC   C13 5689   5.169   6.578   5.656 -0.0940  0.0109 -0.1530
   68SAPC  H13A 5690   5.114   6.534   5.575 -2.1660 -0.1155  1.2884
   68SAPC  H13B 5691   5.104   6.604   5.738  0.2495 -0.2899  0.2209
   68SAPC  H13C 5692   5.219   6.669   5.626 -1.6382  1.6059  1.9318
   68SAPC   C14 5693   5.378   6.476   5.603 -0.5377 -0.4277  0.1435
   68SAPC  H14A 5694   5.428   6.566   5.571  0.5431 -1.5631 -1.4232
   68SAPC  H14B 5695   5.460   6.416   5.639 -0.3451 -0.1482  0.1707
   68SAPC  H14C 5696   5.340   6.436   5.510  0.7835  2.3795 -1.6684
   68SAPC   C15 5697   5.222   6.363   5.756  0.7990 -1.1938 -0.0989
   68SAPC  H15A 5698   5.293   6.301   5.809  0.2325 -0.7164  1.2485
   68SAPC  H15B 5699   5.136   6.384   5.818  0.0749  0.6267 -1.6876
   68SAPC  H15C 5700   5.179   6.310   5.672 -0.5272  0.3603 -0.4281
   68SAPC   C11 5701   5.268   6.638   5.938 -0.4544 -0.1685 -0.5165
   68SAPC  H11A 5702   5.225   6.726   5.885 -0.9502 -1.3299 -2.0988
   68SAPC  H11B 5703   5.338   6.659   6.021 -1.8212 -1.7029  1.0633
   68SAPC     P 5704   5.171   6.473   6.116  0.0058 -0.7186  0.0665
   68SAPC   O13 5705   5.041   6.419   6.148  0.1978 -0.3786  0.3426
   68SAPC   O14 5706   5.286   6.376   6.096 -0.4233  0.1956 -0.5962
   68SAPC   O12 5707   5.157   6.567   5.982  0.5602  0.0847  0.6927
   68SAPC   O11 5708   5.205   6.559   6.242 -0.7266  0.6529  0.6571
   68SAPC    C1 5709   5.133   6.677   6.264 -0.2926 -0.3691  0.2643
   68SAPC    HA 5710   5.124   6.747   6.178  0.7872 -1.6510 -0.8968
   68SAPC    HB 5711   5.031   6.665   6.308  0.2051 -2.3989  0.9228
   68SAPC    C2 5712   5.194   6.775   6.371 -0.7338  0.5628  0.0125
   68SAPC    HS 5713   5.302   6.791   6.352 -0.4089  0.6339  1.8844
   68SAPC   O21 5714   5.170   6.719   6.504  0.0691 -0.0762  0.0128
   68SAPC   C21 5715   5.261   6.741   6.600  0.7443 -0.4934 -0.6439
   68SAPC   O22 5716   5.362   6.807   6.589 -0.4954 -0.3535  0.3426
   68SAPC   C22 5717   5.212   6.683   6.733  0.4792 -0.3802  0.0903
   68SAPC   H2R 5718   5.134   6.758   6.760 -1.4114 -1.2701 -2.6122
   68SAPC   H2S 5719   5.167   6.583   6.717  0.8950 -0.4464 -0.7001
   68SAPC    C3 5720   5.126   6.918   6.367  0.2021  0.7573  0.0619
   68SAPC    HX 5721   5.016   6.910   6.352  0.1273  2.0456 -0.1750
   68SAPC    HY 5722   5.157   6.960   6.269 -0.1466  0.8240 -0.0223
   68SAPC   O31 5723   5.173   7.004   6.479  0.2291 -0.5269 -0.1302
   68SAPC   C31 5724   5.071   7.076   6.528  0.3102  0.5569  0.7101
   68SAPC   O32 5725   4.956   7.062   6.484 -0.7549 -0.2004 -0.4176
   68SAPC   C32 5726   5.118   7.131   6.661  0.6320 -0.2305 -0.8998
   68SAPC   H2X 5727   5.074   7.233   6.658 -0.2404 -0.5463  0.5696
   68SAPC   H2Y 5728   5.228   7.131   6.671  0.3652  1.6585  2.8742
   68SAPC   C23 5729   5.325   6.663   6.839 -0.2500 -0.1677 -0.0552
   68SAPC   H3R 5730   5.393   6.750   6.841 -0.6323  0.1168  0.7797
   68SAPC   H3S 5731   5.394   6.580   6.813 -0.7701 -1.6245  2.9704
   68SAPC   C24 5732   5.268   6.636   6.973 -0.0586  0.0577 -0.2293
   68SAPC   H4R 5733   5.195   6.553   6.966 -0.3826  0.4772 -1.8093
   68SAPC   H4S 5734   5.209   6.726   7.001  0.7754  0.4685  0.2433
   68SAPC   C25 5735   5.370   6.615   7.085 -0.3573  0.2348 -0.4627
   68SAPC   H5R 5736   5.416   6.711   7.114  1.0512 -0.1110 -1.4950
   68SAPC   C26 5737   5.413   6.507   7.158  0.7191 -0.5848 -0.8505
   68SAPC   H6R 5738   5.504   6.518   7.219  3.6450 -2.8929 -4.5766
   68SAPC   C27 5739   5.370   6.373   7.161 -0.4235  1.2214 -0.3515
   68SAPC   H7R 5740   5.464   6.316   7.176 -0.5770  0.6557 -1.4848
   68SAPC   H7S 5741   5.344   6.352   7.055  0.7500  0.5333 -0.5123
   68SAPC   C28 5742   5.257   6.335   7.255 -0.9755 -0.1163  0.4581
   68SAPC   H8R 5743   5.164   6.326   7.198 -0.0487 -1.4708 -0.8739
   68SAPC   C29 5744   5.256   6.303   7.384  0.8650  0.3166  0.3994
   68SAPC   H9R 5745   5.161   6.274   7.431  1.1494 -2.9457 -0.8463
   68SAPC  C210 5746   5.383   6.289   7.469 -0.2081  0.4700 -0.0917
   68SAPC  H10R 5747   5.446   6.380   7.462  3.1699 -1.4803  3.4006
   68SAPC  H10S 5748   5.458   6.212   7.440 -2.8754 -1.5748 -1.8316
   68SAPC  C211 5749   5.357   6.249   7.612 -0.1689 -0.2607  0.5511
   68SAPC  H11R 5750   5.291   6.161   7.616  0.0919 -0.4700  0.3021
   68SAPC  C212 5751   5.409   6.301   7.722  0.2250 -0.2942  0.4486
   68SAPC  H12R 5752   5.399   6.243   7.815  1.5237 -0.5753  0.4233
   68SAPC  C213 5753   5.506   6.411   7.725 -0.4476 -0.8621  0.0369
   68SAPC  H13R 5754   5.598   6.393   7.666 -1.0500  0.9332 -1.5017
   68SAPC  H13S 5755   5.537   6.409   7.831  1.1878 -1.5683 -0.4412
   68SAPC  C214 5756   5.457   6.549   7.700 -0.2680 -0.8643 -0.3040
   68SAPC  H14R 5757   5.406   6.559   7.603 -1.0141 -1.0825  0.0591
   68SAPC  C215 5758   5.490   6.660   7.773  0.0500  0.0004 -0.1245
   68SAPC  H15R 5759   5.443   6.755   7.746 -0.6742 -1.2289 -3.4660
   68SAPC  C216 5760   5.581   6.670   7.893 -0.2535  0.5058  0.2936
   68SAPC  H16R 5761   5.680   6.676   7.845 -0.2156  0.5834  0.3810
   68SAPC  H16S 5762   5.574   6.579   7.956  0.6690  0.1966 -0.0544
   68SAPC  C217 5763   5.553   6.797   7.980 -1.0842  0.1663 -0.0265
   68SAPC  H17R 5764   5.452   6.777   8.020 -1.1388  2.0420  0.8166
   68SAPC  H17S 5765   5.556   6.892   7.924 -0.8117  0.6586  0.8118
   68SAPC  C218 5766   5.655   6.807   8.101  0.9384  0.3556 -0.0134
   68SAPC  H18R 5767   5.760   6.809   8.067  1.3685 -1.5718  1.1400
   68SAPC  H18S 5768   5.656   6.710   8.154  2.7116  1.0536  1.2878
   68SAPC  C219 5769   5.635   6.937   8.188 -0.3986  0.1223 -0.1356
   68SAPC  H19R 5770   5.532   6.946   8.228  0.1149 -0.5999  1.3782
   68SAPC  H19S 5771   5.624   7.024   8.120 -1.7743 -0.0239 -0.1007
   68SAPC  C220 5772   5.750   6.950   8.288  0.3888 -0.9467 -0.1531
   68SAPC  H20R 5773   5.723   7.038   8.351  0.1182 -1.6156  0.6722
   68SAPC  H20S 5774   5.848   6.953   8.235  0.4921  0.0054  0.0725
   68SAPC  H20T 5775   5.751   6.861   8.355 -1.3280 -0.2073  0.8895
   68SAPC   C33 5776   5.062   7.050   6.780 -0.1921  0.7825 -0.8748
   68SAPC   H3X 5777   5.140   6.976   6.808  0.5021  1.2794 -1.4554
   68SAPC   H3Y 5778   4.964   7.003   6.761  1.2511 -2.7387  0.0356
   68SAPC   C34 5779   5.028   7.128   6.912 -0.2319 -0.5644  0.3610
   68SAPC   H4X 5780   4.964   7.065   6.979 -0.0731 -1.2243 -0.1008
   68SAPC   H4Y 5781   4.967   7.219   6.896 -0.3724 -0.6075  0.6318
   68SAPC   C35 5782   5.147   7.150   7.012 -0.2217  0.9773  0.0687
   68SAPC   H5X 5783   5.119   7.236   7.077 -0.5928  0.1096  1.0671
   68SAPC   H5Y 5784   5.242   7.177   6.961 -1.5594  1.6281 -2.1536
   68SAPC   C36 5785   5.167   7.036   7.119 -0.3387  0.3436 -0.1715
   68SAPC   H6X 5786   5.166   6.935   7.073  0.9711 -1.1183  2.8563
   68SAPC   H6Y 5787   5.078   7.038   7.185  0.2081  0.4298  0.5616
   68SAPC   C37 5788   5.285   7.048   7.215  0.2266 -0.0429 -0.3076
   68SAPC   H7X 5789   5.272   7.146   7.266  0.9406  1.1205 -2.2906
   68SAPC   H7Y 5790   5.376   7.034   7.152 -0.0217  0.0511 -0.6911
   68SAPC   C38 5791   5.289   6.935   7.316 -0.1396 -0.3118 -0.0933
   68SAPC   H8X 5792   5.270   6.833   7.277 -0.8055 -0.8536  1.5797
   68SAPC   H8Y 5793   5.204   6.946   7.388 -0.0910 -1.4224  0.1366
   68SAPC   C39 5794   5.409   6.945   7.414  0.4993 -0.4797  0.0829
   68SAPC   H9X 5795   5.499   6.906   7.363  0.3809  0.0255 -0.5165
   68SAPC   H9Y 5796   5.383   6.875   7.497  0.0301 -0.6285 -0.1802
   68SAPC  C310 5797   5.451   7.086   7.469  0.2383 -0.1977  0.1632
   68SAPC  H10X 5798   5.472   7.164   7.393  0.1752  2.5609  2.9071
   68SAPC  H10Y 5799   5.547   7.075   7.525  0.2759 -0.4388  0.0545
   68SAPC  C311 5800   5.345   7.143   7.569  0.2784  0.8958  0.6568
   68SAPC  H11X 5801   5.251   7.168   7.516  0.0208  1.7870  1.5011
   68SAPC  H11Y 5802   5.385   7.238   7.611 -1.2548  2.0426 -0.4448
   68SAPC  C312 5803   5.312   7.045   7.684 -0.6800  0.6554  0.2240
   68SAPC  H12X 5804   5.404   6.994   7.721 -0.9380 -1.6834 -2.1746
   68SAPC  H12Y 5805   5.246   6.970   7.635 -1.3000  0.1413  1.8366
   68SAPC  C313 5806   5.234   7.108   7.798 -0.4821 -0.4455  1.0340
   68SAPC  H13X 5807   5.143   7.152   7.753 -0.5958 -0.7250  0.9913
   68SAPC  H13Y 5808   5.300   7.186   7.843  0.2638 -1.2048  1.2824
   68SAPC  C314 5809   5.211   7.015   7.918 -0.5449 -0.9227 -0.2245
   68SAPC  H14X 5810   5.299   6.959   7.954  2.2435  2.7889 -0.9492
   68SAPC  H14Y 5811   5.135   6.935   7.903  0.1342 -1.2932 -1.8560
   68SAPC  C315 5812   5.167   7.096   8.047  0.0813 -0.2557 -0.2879
   68SAPC  H15X 5813   5.070   7.148   8.027 -0.0567  0.1336  1.3136
   68SAPC  H15Y 5814   5.242   7.176   8.066  0.6500 -0.7279 -0.5510
   68SAPC  C316 5815   5.146   7.017   8.176 -0.2693  0.5443 -0.0113
   68SAPC  H16X 5816   5.127   7.091   8.257 -1.0498  1.7384 -1.2599
   68SAPC  H16Y 5817   5.236   6.955   8.194 -0.5479 -0.3415 -1.5495
   68SAPC  C317 5818   5.022   6.930   8.170 -0.6219  0.2983  0.7697
   68SAPC  H17X 5819   5.048   6.855   8.092 -3.7850  0.1469 -0.2286
   68SAPC  H17Y 5820   4.935   6.987   8.131 -1.2104  0.1822  1.9093
   68SAPC  C318 5821   4.987   6.872   8.308 -0.3514  0.2753  0.0541
   68SAPC  H18X 5822   4.924   6.944   8.364  0.7109  0.1978  1.3699
   68SAPC  H18Y 5823   5.084   6.849   8.357 -0.2570  0.6800  0.0539
   68SAPC  H18Z 5824   4.938   6.772   8.300  0.6178 -0.2231  0.2301
   69SLPC     N 5825   3.442   5.489  11.474 -0.0007 -0.8791 -0.1415
   69SLPC   C13 5826   3.454   5.364  11.545 -0.3853  0.2690 -0.3516
   69SLPC  H13A 5827   3.411   5.373  11.643 -0.4516  1.0660 -0.4511
   69SLPC  H13B 5828   3.411   5.276  11.498 -0.4546 -0.3706  0.8721
   69SLPC  H13C 5829   3.554   5.323  11.547 -1.3223 -2.0997  0.3174
   69SLPC   C14 5830   3.522   5.600  11.536  0.2996  0.7144  0.2908
   69SLPC  H14A 5831   3.515   5.607  11.643  0.8167  0.9631  0.3127
   69SLPC  H14B 5832   3.629   5.586  11.529  0.2135 -0.5220  1.2607
   69SLPC  H14C 5833   3.509   5.700  11.498 -1.3263  0.4433  0.1228
   69SLPC   C15 5834   3.303   5.544  11.478 -0.2721  0.5648  0.3480
   69SLPC  H15A 5835   3.252   5.529  11.571  2.4146 -0.9420  1.6250
   69SLPC  H15B 5836   3.292   5.650  11.460  0.9648  0.6263 -0.0882
   69SLPC  H15C 5837   3.251   5.489  11.401  0.2561  2.0585 -1.1278
   69SLPC   C12 5838   3.500   5.474  11.334  0.1223 -0.4369  0.3817
   69SLPC  H12A 5839   3.602   5.439  11.345  0.4960  1.0037  1.7169
   69SLPC  H12B 5840   3.511   5.574  11.293 -0.0502  0.1049  1.6500
   69SLPC   C11 5841   3.431   5.386  11.227 -0.1393  0.3147  0.9601
   69SLPC  H11A 5842   3.396   5.287  11.264  0.5697 -0.6829 -0.9551
   69SLPC  H11B 5843   3.503   5.353  11.150 -1.4744 -2.0740  0.6566
   69SLPC     P 5844   3.341   5.577  11.069 -0.0672  0.2584  0.2463
   69SLPC   O13 5845   3.207   5.616  11.014  0.1099 -0.4609  0.9760
   69SLPC   O14 5846   3.422   5.687  11.125 -0.3619 -0.2153 -0.0287
   69SLPC   O12 5847   3.322   5.456  11.169  0.6075  0.1658  0.2339
   69SLPC   O11 5848   3.416   5.516  10.958 -0.0896  0.0271 -0.0540
   69SLPC    C1 5849   3.356   5.413  10.878 -0.3770  0.3667  0.1644
   69SLPC    HA 5850   3.410   5.319  10.902 -0.1132  1.1126  2.5988
   69SLPC    HB 5851   3.249   5.397  10.902 -0.0402 -0.5866  1.0621
   69SLPC    C2 5852   3.383   5.462  10.734 -0.2575 -0.3313 -0.6274
   69SLPC    HS 5853   3.488   5.499  10.727 -0.5545  0.8711  0.9947
   69SLPC   O21 5854   3.293   5.562  10.691 -0.3097  0.6570 -0.1140
   69SLPC   C21 5855   3.320   5.683  10.725 -0.6861  0.4238  0.4617
   69SLPC   O22 5856   3.423   5.719  10.781  0.7239 -0.0285  0.4006
   69SLPC   C22 5857   3.194   5.771  10.692  0.4935  0.3723 -0.2757
   69SLPC   H2R 5858   3.159   5.739  10.591 -2.3058  3.7326 -0.4579
   69SLPC   H2S 5859   3.115   5.748  10.765 -1.9629  0.8005 -2.7142
   69SLPC    C3 5860   3.356   5.334  10.647  0.2032 -0.2322  0.1865
   69SLPC    HX 5861   3.261   5.291  10.686 -0.7945  1.2033 -0.5928
   69SLPC    HY 5862   3.433   5.255  10.661  0.5529 -0.1706 -1.3791
   69SLPC   O31 5863   3.323   5.362  10.504 -0.1449  0.6174  0.1598
   69SLPC   C31 5864   3.420   5.409  10.439  0.0802 -0.0867 -0.2152
   69SLPC   O32 5865   3.532   5.443  10.480  0.2772  0.2733  0.5111
   69SLPC   C32 5866   3.367   5.438  10.297 -0.4012  0.2992 -0.0134
   69SLPC   H2X 5867   3.335   5.545  10.295 -0.5937  0.2434  0.0034
   69SLPC   H2Y 5868   3.275   5.378  10.277  1.7010 -2.4486 -1.8256
   69SLPC   C23 5869   3.221   5.923  10.672 -0.5764 -0.1995 -0.2245
   69SLPC   H3R 5870   3.230   5.974  10.770 -0.8101  2.2492 -1.4356
   69SLPC   H3S 5871   3.139   5.971  10.614  0.6561  0.7761 -1.1968
   69SLPC   C24 5872   3.348   5.947  10.583 -0.1795  1.4643 -0.1719
   69SLPC   H4R 5873   3.445   5.918  10.627 -0.4038 -1.4526 -1.4956
   69SLPC   H4S 5874   3.365   6.056  10.568 -1.0903  1.5362 -0.7671
   69SLPC   C25 5875   3.338   5.881  10.443 -0.4568 -0.2885  0.5151
   69SLPC   H5R 5876   3.241   5.915  10.403 -1.0627  0.9551  2.9792
   69SLPC   H5S 5877   3.341   5.771  10.462  0.4322 -0.1903  0.9704
   69SLPC   C26 5878   3.438   5.932  10.345  1.0690  0.5665 -0.3317
   69SLPC   H6R 5879   3.537   5.897  10.381  0.8718 -1.0662 -1.2990
   69SLPC   H6S 5880   3.432   6.043  10.339 -1.4387  0.4867  0.1310
   69SLPC   C27 5881   3.420   5.853  10.214 -0.2462 -0.5021 -0.4421
   69SLPC   H7R 5882   3.321   5.804  10.201 -0.3118 -0.4219 -0.2413
   69SLPC   H7S 5883   3.500   5.778  10.198  2.0880  1.5817  1.1038
   69SLPC   C28 5884   3.423   5.958  10.092 -0.7014  0.0669 -0.2889
   69SLPC   H8R 5885   3.456   5.897  10.006  1.0501  1.2001 -0.4377
   69SLPC   H8S 5886   3.506   6.028  10.114  1.9846 -3.0030 -0.4213
   69SLPC   C29 5887   3.295   6.036  10.074  0.0944 -0.8023 -0.5759
   69SLPC   H9R 5888   3.295   6.121  10.144  1.2239  0.0016 -1.5317
   69SLPC  C210 5889   3.188   6.007   9.995 -0.3302 -0.3209 -0.1238
   69SLPC  H10R 5890   3.102   6.075   9.995 -0.3362 -0.2849  2.1467
   69SLPC  C211 5891   3.171   5.898   9.895  0.6834  0.1336 -0.3429
   69SLPC  H11R 5892   3.270   5.851   9.876  1.1961  0.9799  0.1909
   69SLPC  H11S 5893   3.138   5.943   9.799 -0.3857 -0.0674 -0.0736
   69SLPC  C212 5894   3.074   5.787   9.925  0.3583  0.3000  0.2493
   69SLPC  H12R 5895   3.024   5.794  10.022 -1.2216 -0.2351 -0.5130
   69SLPC  C213 5896   3.040   5.682   9.842  0.2205  0.1799  1.2077
   69SLPC  H13R 5897   2.960   5.616   9.878 -1.4144  1.7856  0.5791
   69SLPC  C214 5898   3.101   5.664   9.704 -0.1298  0.7168  0.2683
   69SLPC  H14R 5899   3.199   5.612   9.711  0.2628  1.4842  0.4376
   69SLPC  H14S 5900   3.117   5.763   9.657  1.7188  0.6389  0.6717
   69SLPC  C215 5901   2.997   5.598   9.616 -0.2044  0.3045 -0.0360
   69SLPC  H15R 5902   2.897   5.646   9.625 -0.8366 -0.6416 -1.8054
   69SLPC  H15S 5903   2.993   5.489   9.637  0.0406 -0.0769 -1.8565
   69SLPC  C216 5904   3.043   5.606   9.467 -0.6946 -0.3198 -0.3289
   69SLPC  H16R 5905   3.134   5.550   9.437 -0.3369 -1.5252  2.8547
   69SLPC  H16S 5906   3.052   5.712   9.434 -4.5818 -0.1131 -0.9654
   69SLPC  C217 5907   2.928   5.561   9.370  0.2718  0.8723 -0.7773
   69SLPC  H17R 5908   2.836   5.610   9.407 -0.8836 -1.4971 -0.4249
   69SLPC  H17S 5909   2.902   5.454   9.381  2.5736  0.2735 -0.8256
   69SLPC  C218 5910   2.950   5.589   9.222 -0.1636  0.3051  0.0987
   69SLPC  H18R 5911   3.042   5.545   9.178 -0.4152 -0.7306  0.5825
   69SLPC  H18S 5912   2.946   5.698   9.202  0.9626  0.2613 -0.4069
   69SLPC  H18T 5913   2.866   5.555   9.157  0.4415 -0.4496 -0.3020
   69SLPC   C33 5914   3.480   5.416  10.194  0.3102  0.0722  0.1201
   69SLPC   H3X 5915   3.522   5.313  10.197 -0.6300 -0.3016  0.8216
   69SLPC   H3Y 5916   3.556   5.493  10.216 -0.3359  1.2822 -1.7727
   69SLPC   C34 5917   3.423   5.434  10.048  0.3501  0.3248 -0.5333
   69SLPC   H4X 5918   3.363   5.527  10.035 -0.4638 -0.6347 -4.0746
   69SLPC   H4Y 5919   3.355   5.350  10.026  1.6815 -0.8643 -0.1926
   69SLPC   C35 5920   3.538   5.432   9.945  0.5421 -1.0466 -0.5219
   69SLPC   H5X 5921   3.574   5.327   9.937  3.0992 -0.1923 -0.7454
   69SLPC   H5Y 5922   3.617   5.494   9.993  0.7240 -2.0785  0.5579
   69SLPC   C36 5923   3.499   5.489   9.813 -0.8354 -0.9039 -0.5723
   69SLPC   H6X 5924   3.398   5.448   9.788 -1.8645  0.6675  0.9256
   69SLPC   H6Y 5925   3.569   5.462   9.731  0.3926  0.8060 -0.1130
   69SLPC   C37 5926   3.483   5.648   9.813 -0.2601  0.2934 -0.3504
   69SLPC   H7X 5927   3.573   5.692   9.859  0.1009 -1.6672  0.8554
   69SLPC   H7Y 5928   3.390   5.666   9.872  0.2146 -1.5954  0.9908
   69SLPC   C38 5929   3.471   5.715   9.669 -0.3911 -0.1268  0.0089
   69SLPC   H8X 5930   3.415   5.811   9.671  2.9714  1.8776  1.0252
   69SLPC   H8Y 5931   3.426   5.637   9.603  0.0236  1.7561 -2.6176
   69SLPC   C39 5932   3.601   5.744   9.589  0.2380  0.4761  0.5751
   69SLPC   H9X 5933   3.647   5.651   9.551  1.9123  0.1336  3.3607
   69SLPC   H9Y 5934   3.675   5.788   9.659  1.0402  1.5940 -0.9275
   69SLPC  C310 5935   3.582   5.842   9.472 -0.4256  0.2550 -0.3242
   69SLPC  H10X 5936   3.563   5.941   9.518  0.4832  0.7227 -0.9276
   69SLPC  H10Y 5937   3.494   5.800   9.418  1.1879 -1.4935 -1.6520
   69SLPC  C311 5938   3.699   5.856   9.376  0.4649 -1.2015  0.0672
   69SLPC  H11X 5939   3.752   5.759   9.370  0.3491 -1.3919  1.7727
   69SLPC  H11Y 5940   3.777   5.921   9.421  1.1616 -1.9970  0.0180
   69SLPC  C312 5941   3.666   5.920   9.241  0.8267 -0.2928 -0.0915
   69SLPC  H12X 5942   3.612   6.014   9.264  0.2685 -0.7230  0.3585
   69SLPC  H12Y 5943   3.597   5.852   9.187 -2.3491  2.2233  0.6526
   69SLPC  C313 5944   3.783   5.958   9.153  0.3153 -0.1834  0.5232
   69SLPC  H13X 5945   3.849   5.869   9.139  0.3900 -0.6804  3.7694
   69SLPC  H13Y 5946   3.844   6.038   9.199  1.2649 -2.7700  3.9455
   69SLPC  C314 5947   3.739   6.016   9.016 -0.0575  0.6152  0.0589
   69SLPC  H14X 5948   3.834   6.022   8.960  0.9764 -0.8783  1.5820
   69SLPC  H14Y 5949   3.712   6.123   9.022  2.0430  1.2058 -0.7483
   69SLPC  C315 5950   3.623   5.943   8.945  0.3710 -0.1826  0.2511
   69SLPC  H15X 5951   3.531   5.968   9.002 -0.3731  0.9414 -1.4043
   69SLPC  H15Y 5952   3.646   5.835   8.947  0.8886 -0.0948 -0.6311
   69SLPC  C316 5953   3.599   5.986   8.801 -0.2919 -0.0230 -0.4528
   69SLPC  H16X 5954   3.689   5.954   8.743  0.1512 -0.1381  0.2937
   69SLPC  H16Y 5955   3.601   6.096   8.792 -2.3787  0.1485  0.9251
   69SLPC  C317 5956   3.471   5.936   8.742 -0.0473 -0.2951 -0.0386
   69SLPC  H17X 5957   3.388   5.959   8.812 -0.0794  2.0520 -0.7984
   69SLPC  H17Y 5958   3.465   5.826   8.729 -3.4330 -0.3265  1.3893
   69SLPC  C318 5959   3.436   6.007   8.610 -0.0503 -0.3218  0.7805
   69SLPC  H18X 5960   3.467   6.112   8.593 -2.5901  0.5621  1.3462
   69SLPC  H18Y 5961   3.327   5.995   8.591  0.0068  1.8026 -1.1615
   69SLPC  H18Z 5962   3.491   5.954   8.529  2.0537  1.0842  1.2399
   70SLPC     N 5963   4.188   2.947  11.299 -0.3657  0.6378  0.8792
   70SLPC   C13 5964   4.073   3.035  11.351  0.0712 -0.3613 -0.0939
   70SLPC  H13A 5965   3.990   3.027  11.283  0.0666  0.8832 -0.2337
   70SLPC  H13B 5966   4.049   3.012  11.454  0.2553  0.0139  0.0315
   70SLPC  H13C 5967   4.115   3.134  11.356  0.4980 -0.3915 -2.6743
   70SLPC   C14 5968   4.173   2.803  11.333 -0.2806 -0.3335 -0.3745
   70SLPC  H14A 5969   4.166   2.790  11.440  1.4521 -3.4537 -0.5860
   70SLPC  H14B 5970   4.089   2.752  11.289  0.5509 -1.1276 -1.0484
   70SLPC  H14C 5971   4.254   2.745  11.293 -1.8328 -3.3067  0.6124
   70SLPC   C15 5972   4.319   2.995  11.354 -0.7829 -0.4547  0.6668
   70SLPC  H15A 5973   4.332   2.978  11.460  1.9036  0.5836  0.5583
   70SLPC  H15B 5974   4.398   2.930  11.320 -1.5492 -1.1204  0.1505
   70SLPC  H15C 5975   4.338   3.098  11.325 -0.3070  0.4782  4.0391
   70SLPC   C12 5976   4.197   2.975  11.147 -0.4539  0.6906  0.3167
   70SLPC  H12A 5977   4.270   2.911  11.100  0.6088  1.5856  0.7333
   70SLPC  H12B 5978   4.237   3.074  11.127 -1.6887  1.3881  1.2323
   70SLPC   C11 5979   4.072   2.951  11.063  0.0350  0.4265 -0.1491
   70SLPC  H11A 5980   4.040   2.847  11.085  1.1512 -0.0158 -0.5813
   70SLPC  H11B 5981   4.100   2.968  10.956 -0.0096 -0.7071 -0.3461
   70SLPC     P 5982   3.951   3.184  11.034  0.1648  0.3458  0.1306
   70SLPC   O13 5983   3.853   3.249  11.116  0.5138  0.0680 -0.1873
   70SLPC   O14 5984   4.083   3.253  11.030 -0.0334 -0.5047  0.4619
   70SLPC   O12 5985   3.963   3.040  11.092 -0.1207  1.1400 -0.1105
   70SLPC   O11 5986   3.902   3.168  10.884  0.5295  0.2025  0.0678
   70SLPC    C1 5987   3.769   3.143  10.841  0.3897 -0.2119 -0.0243
   70SLPC    HA 5988   3.695   3.125  10.922 -0.7600  0.5992 -0.8768
   70SLPC    HB 5989   3.728   3.231  10.786  2.1793  2.4406  2.7177
   70SLPC    C2 5990   3.761   3.020  10.751  0.8958 -0.0781 -0.5658
   70SLPC    HS 5991   3.832   2.946  10.795 -0.2744 -0.0446  1.4492
   70SLPC   O21 5992   3.814   3.070  10.627 -0.2725 -0.5466 -0.4143
   70SLPC   C21 5993   3.881   2.978  10.557  0.1997  0.3539  0.1836
   70SLPC   O22 5994   3.906   2.863  10.590  0.6147 -0.6612  0.0082
   70SLPC   C22 5995   3.912   3.027  10.414  0.2457  0.2163  0.2870
   70SLPC   H2R 5996   3.815   3.064  10.374  0.3752  0.0165 -0.2062
   70SLPC   H2S 5997   3.979   3.116  10.416  1.5624 -0.5855 -4.1974
   70SLPC    C3 5998   3.622   2.953  10.737  0.7662 -1.0700 -0.0125
   70SLPC    HX 5999   3.604   2.906  10.837  0.1837 -2.0708 -0.5791
   70SLPC    HY 6000   3.622   2.865  10.670 -1.7162 -0.7757 -0.4637
   70SLPC   O31 6001   3.524   3.057  10.703 -0.0607 -0.4320  0.1944
   70SLPC   C31 6002   3.504   3.074  10.573  0.0205 -0.1919  0.1880
   70SLPC   O32 6003   3.561   3.011  10.484 -0.1119  0.3538  1.0969
   70SLPC   C32 6004   3.414   3.199  10.556  0.4298 -0.4101 -0.1645
   70SLPC   H2X 6005   3.479   3.283  10.521  0.7701 -0.3606  0.5911
   70SLPC   H2Y 6006   3.366   3.214  10.655  0.7553  1.5553 -0.2775
   70SLPC   C23 6007   3.953   2.917  10.314  0.4051 -0.7515  0.6054
   70SLPC   H3R 6008   3.868   2.845  10.310  1.2274 -1.7606  1.0734
   70SLPC   H3S 6009   4.041   2.865  10.357  0.3704 -2.7520 -1.7039
   70SLPC   C24 6010   3.982   2.979  10.182  0.9214  0.4545  0.1147
   70SLPC   H4R 6011   4.077   3.034  10.169  1.0563  0.5317  1.3326
   70SLPC   H4S 6012   3.912   3.064  10.169  1.7463  0.7007 -3.1527
   70SLPC   C25 6013   3.963   2.865  10.074 -0.5269 -0.1977  0.2231
   70SLPC   H5R 6014   3.867   2.810  10.079 -1.5504  1.6990  2.0420
   70SLPC   H5S 6015   4.032   2.784  10.108  1.1152  1.9392  2.1101
   70SLPC   C26 6016   3.996   2.905   9.930  0.2724  0.2032  0.7429
   70SLPC   H6R 6017   3.922   2.988   9.919  0.0678 -0.0328  0.3180
   70SLPC   H6S 6018   3.968   2.828   9.855 -3.2198  1.7168  0.3529
   70SLPC   C27 6019   4.142   2.961   9.905 -0.7027 -0.0102  0.1388
   70SLPC   H7R 6020   4.214   2.878   9.922 -0.4189 -0.0497 -1.1601
   70SLPC   H7S 6021   4.163   3.047   9.972  1.5071  1.0486 -1.8012
   70SLPC   C28 6022   4.140   2.994   9.751  0.5557 -0.2470 -0.5742
   70SLPC   H8R 6023   4.059   3.069   9.738 -1.1864 -1.9363  0.3119
   70SLPC   H8S 6024   4.113   2.898   9.703  1.4018 -1.2812  0.9558
   70SLPC   C29 6025   4.270   3.046   9.700 -0.3423 -0.2116 -0.4627
   70SLPC   H9R 6026   4.356   3.023   9.765 -1.8927  0.7054  1.9935
   70SLPC  C210 6027   4.293   3.094   9.575 -0.4490  0.4781  0.6039
   70SLPC  H10R 6028   4.397   3.120   9.550 -0.2180 -0.3701  0.6610
   70SLPC  C211 6029   4.196   3.117   9.459 -0.7988 -0.5004 -0.3182
   70SLPC  H11R 6030   4.096   3.145   9.500 -0.4524 -0.7898  0.7451
   70SLPC  H11S 6031   4.179   3.019   9.410  2.0261 -1.7451  1.0773
   70SLPC  C212 6032   4.254   3.221   9.367  0.3002  0.4298  0.1259
   70SLPC  H12R 6033   4.315   3.297   9.418 -0.5009 -0.5055  2.5591
   70SLPC  C213 6034   4.230   3.232   9.236 -0.1136 -0.4125  0.8109
   70SLPC  H13R 6035   4.280   3.316   9.185 -1.4517 -0.0456  0.0804
   70SLPC  C214 6036   4.132   3.144   9.161 -0.1895  0.2199  0.1855
   70SLPC  H14R 6037   4.077   3.209   9.090  0.2792  1.7451  1.1743
   70SLPC  H14S 6038   4.058   3.091   9.224  0.8430  0.1436  1.3563
   70SLPC  C215 6039   4.216   3.040   9.081 -0.4347  0.5754  0.0625
   70SLPC  H15R 6040   4.278   2.987   9.156  0.0395  3.3466  1.7179
   70SLPC  H15S 6041   4.288   3.091   9.014 -1.1622  1.5225 -0.0027
   70SLPC  C216 6042   4.123   2.953   9.012 -0.3721  0.0378  0.5990
   70SLPC  H16R 6043   4.068   3.006   8.932 -1.4750 -1.8778  0.0416
   70SLPC  H16S 6044   4.045   2.899   9.070 -0.3715  0.6129  1.1420
   70SLPC  C217 6045   4.208   2.837   8.941 -0.2427  0.0666  0.0829
   70SLPC  H17R 6046   4.269   2.888   8.864 -0.7700 -0.0314 -0.4084
   70SLPC  H17S 6047   4.135   2.781   8.878 -2.8522  2.5761  0.7505
   70SLPC  C218 6048   4.296   2.744   9.024 -0.2199  0.0410  0.2125
   70SLPC  H18R 6049   4.320   2.672   8.943  0.0225  1.1725 -0.7340
   70SLPC  H18S 6050   4.249   2.682   9.104  1.5482  0.2805  1.4816
   70SLPC  H18T 6051   4.382   2.799   9.068  1.0441 -2.9817  1.7177
   70SLPC   C33 6052   3.304   3.177  10.442 -0.2933 -0.1799 -0.5001
   70SLPC   H3X 6053   3.256   3.277  10.435 -0.3657 -0.1582  0.2217
   70SLPC   H3Y 6054   3.231   3.099  10.473  0.7598 -1.1411 -0.4277
   70SLPC   C34 6055   3.356   3.152  10.299 -0.1313 -0.3472 -0.2940
   70SLPC   H4X 6056   3.415   3.058  10.297 -0.6444 -0.6920  0.6038
   70SLPC   H4Y 6057   3.425   3.233  10.266  0.4827 -0.7334  0.0403
   70SLPC   C35 6058   3.233   3.139  10.195  0.2936  0.4643 -0.0084
   70SLPC   H5X 6059   3.190   3.240  10.175  0.6292  0.7794  0.8616
   70SLPC   H5Y 6060   3.144   3.081  10.226 -0.8811  1.7510 -0.9226
   70SLPC   C36 6061   3.290   3.103  10.055  0.1394 -0.2215 -0.3156
   70SLPC   H6X 6062   3.342   3.006  10.072  0.0272 -0.2308 -0.0195
   70SLPC   H6Y 6063   3.358   3.176  10.007 -1.0107  0.2818 -1.1997
   70SLPC   C37 6064   3.178   3.084   9.955  0.1994 -0.6750  0.2507
   70SLPC   H7X 6065   3.144   3.182   9.917  0.1803 -0.9043 -0.3214
   70SLPC   H7Y 6066   3.095   3.036  10.011  0.5309 -1.8629 -0.2464
   70SLPC   C38 6067   3.213   2.974   9.856 -0.6534 -0.1263 -0.3561
   70SLPC   H8X 6068   3.238   2.886   9.919  2.4989  1.1064  0.1970
   70SLPC   H8Y 6069   3.305   2.999   9.799  0.2685 -0.3231  1.0236
   70SLPC   C39 6070   3.102   2.945   9.757 -0.2489 -0.2062  0.8939
   70SLPC   H9X 6071   3.101   3.027   9.682 -0.9115 -1.9800 -1.0989
   70SLPC   H9Y 6072   3.008   2.950   9.816  0.4369  1.5701  1.8497
   70SLPC  C310 6073   3.121   2.808   9.680  0.3179 -0.1711  0.3490
   70SLPC  H10X 6074   3.134   2.719   9.746  1.6999 -0.7293 -0.6540
   70SLPC  H10Y 6075   3.220   2.816   9.630  0.0169 -2.0025 -0.5895
   70SLPC  C311 6076   2.998   2.760   9.594 -0.3433  0.5827  0.5395
   70SLPC  H11X 6077   2.909   2.736   9.657 -0.6437  1.9623  0.6594
   70SLPC  H11Y 6078   3.039   2.662   9.561  4.3531  2.0039  1.8822
   70SLPC  C312 6079   2.963   2.844   9.474 -0.0767 -0.0349 -0.2643
   70SLPC  H12X 6080   3.056   2.880   9.425 -0.2242  1.7007  0.6827
   70SLPC  H12Y 6081   2.915   2.935   9.517  4.0601  1.9400  0.4805
   70SLPC  C313 6082   2.875   2.768   9.367 -0.9897 -0.0084 -1.1056
   70SLPC  H13X 6083   2.840   2.834   9.285 -1.4207  0.4360 -0.5744
   70SLPC  H13Y 6084   2.782   2.728   9.413 -0.1647  1.2331  1.7914
   70SLPC  C314 6085   2.929   2.637   9.321 -0.2263  0.5562  0.5281
   70SLPC  H14X 6086   2.915   2.562   9.402 -0.6957 -0.8533 -0.8248
   70SLPC  H14Y 6087   3.038   2.651   9.305  0.0921 -1.7306  0.4696
   70SLPC  C315 6088   2.865   2.580   9.191 -0.1119 -0.1514  0.3931
   70SLPC  H15X 6089   2.758   2.611   9.190 -0.7325 -2.2137  1.3488
   70SLPC  H15Y 6090   2.881   2.471   9.178  2.1135  0.2687 -0.6877
   70SLPC  C316 6091   2.940   2.647   9.072 -0.5467  0.6105  0.4008
   70SLPC  H16X 6092   3.045   2.619   9.094 -0.6043  1.7638  2.1900
   70SLPC  H16Y 6093   2.922   2.757   9.069 -2.1810  0.3279 -2.4737
   70SLPC  C317 6094   2.888   2.589   8.943  0.0590 -0.7462 -0.1528
   70SLPC  H17X 6095   2.784   2.624   8.925  0.8105  0.3891 -2.5568
   70SLPC  H17Y 6096   2.886   2.478   8.937  0.8149 -0.6395 -3.5817
   70SLPC  C318 6097   2.966   2.637   8.814 -0.7443 -0.9609  0.4083
   70SLPC  H18X 6098   2.971   2.747   8.821 -0.9092 -0.9031 -0.3753
   70SLPC  H18Y 6099   2.918   2.606   8.719  0.6148  0.4484 -0.7565
   70SLPC  H18Z 6100   3.071   2.602   8.818  0.4879  2.7597  2.4202
   71SLPC     N 6101   2.713   1.936  10.883  0.1438  0.3237  0.3594
   71SLPC   C13 6102   2.805   2.020  10.968 -0.6761  0.5131  0.0283
   71SLPC  H13A 6103   2.860   1.973  11.048 -1.1935 -0.7015 -0.3118
   71SLPC  H13B 6104   2.874   2.073  10.905  0.7489 -2.1690 -0.7583
   71SLPC  H13C 6105   2.751   2.102  11.012 -2.5169  0.0295 -1.2766
   71SLPC   C14 6106   2.635   2.032  10.791 -0.2959  0.1020 -0.6533
   71SLPC  H14A 6107   2.565   2.096  10.841  0.9626  1.6315 -0.7951
   71SLPC  H14B 6108   2.700   2.102  10.740 -0.5413 -0.1038 -1.2519
   71SLPC  H14C 6109   2.586   1.982  10.708  2.5161 -0.6448 -1.9430
   71SLPC   C15 6110   2.614   1.867  10.977 -0.2276 -0.6101 -0.2220
   71SLPC  H15A 6111   2.617   1.911  11.075 -0.1880  0.9862 -0.9091
   71SLPC  H15B 6112   2.513   1.878  10.939  0.1845  0.5136 -1.0398
   71SLPC  H15C 6113   2.639   1.765  10.999 -3.2049 -1.6141 -1.1541
   71SLPC   C12 6114   2.780   1.827  10.801 -0.1061 -0.4227  0.3470
   71SLPC  H12A 6115   2.703   1.782  10.739 -0.7054  0.9215  0.1085
   71SLPC  H12B 6116   2.811   1.751  10.872  0.1732 -0.8265 -0.2076
   71SLPC   C11 6117   2.888   1.875  10.698  0.8261  0.1579  0.1412
   71SLPC  H11A 6118   2.964   1.944  10.740 -0.4328  1.4488  0.3413
   71SLPC  H11B 6119   2.823   1.929  10.626 -0.2591 -0.1830  0.8477
   71SLPC     P 6120   3.076   1.703  10.661 -0.0598 -0.1300 -0.2082
   71SLPC   O13 6121   3.156   1.794  10.748  0.3266 -0.0270 -0.0307
   71SLPC   O14 6122   3.040   1.571  10.719 -0.0212  0.8724 -0.7885
   71SLPC   O12 6123   2.938   1.766  10.622  0.0981  0.4923 -0.1685
   71SLPC   O11 6124   3.155   1.681  10.525  0.1328 -0.3419  0.4032
   71SLPC    C1 6125   3.260   1.761  10.463  0.0976  0.3557 -0.4854
   71SLPC    HA 6126   3.284   1.854  10.518  1.1921  0.4683 -1.1420
   71SLPC    HB 6127   3.355   1.706  10.447 -0.7610 -0.6724 -2.1931
   71SLPC    C2 6128   3.207   1.804  10.331  0.0621 -0.0149 -0.4628
   71SLPC    HS 6129   3.107   1.847  10.349  0.1895 -0.3841  1.1552
   71SLPC   O21 6130   3.206   1.687  10.244  0.2513  0.8865 -0.1262
   71SLPC   C21 6131   3.144   1.697  10.125 -0.5282 -0.5221 -0.4768
   71SLPC   O22 6132   3.094   1.798  10.082  1.3016 -0.3087 -0.0400
   71SLPC   C22 6133   3.164   1.572  10.052  0.3306  0.7078  0.2633
   71SLPC   H2R 6134   3.115   1.490  10.109 -0.2698  0.2697 -0.8649
   71SLPC   H2S 6135   3.112   1.583   9.954 -0.2899  2.2945  0.7545
   71SLPC    C3 6136   3.296   1.920  10.272  0.0680  0.2641 -0.1967
   71SLPC    HX 6137   3.289   1.998  10.350  0.8664 -0.0390  0.1832
   71SLPC    HY 6138   3.246   1.954  10.178 -2.3861 -3.7474 -0.4583
   71SLPC   O31 6139   3.438   1.884  10.253 -0.3344 -0.5600  0.3181
   71SLPC   C31 6140   3.527   1.970  10.274 -0.1450  0.0120 -0.0534
   71SLPC   O32 6141   3.514   2.076  10.331  0.2193  0.5455  0.5598
   71SLPC   C32 6142   3.666   1.931  10.221  0.9595 -0.0817  0.0589
   71SLPC   H2X 6143   3.685   1.822  10.216 -0.2123 -0.2618 -0.8935
   71SLPC   H2Y 6144   3.735   1.978  10.293 -0.7043  2.5219  0.0233
   71SLPC   C23 6145   3.314   1.555  10.011 -0.9118 -0.6230  0.2852
   71SLPC   H3R 6146   3.338   1.459   9.960  0.2374  0.0163 -0.4140
   71SLPC   H3S 6147   3.370   1.557  10.106  0.6071  1.6878 -0.6284
   71SLPC   C24 6148   3.363   1.674   9.920  0.1290  0.0803  0.1681
   71SLPC   H4R 6149   3.472   1.669   9.898  0.2190 -2.6676  1.0126
   71SLPC   H4S 6150   3.350   1.766   9.980  1.9194  1.5402 -1.6213
   71SLPC   C25 6151   3.290   1.679   9.784 -0.2066  0.3940  0.5344
   71SLPC   H5R 6152   3.323   1.772   9.733  0.2232  0.9108  1.7473
   71SLPC   H5S 6153   3.179   1.685   9.796 -0.1783 -1.5226  1.8960
   71SLPC   C26 6154   3.328   1.565   9.688 -0.1928 -0.1724  0.6947
   71SLPC   H6R 6155   3.328   1.468   9.741  0.8452 -1.2307 -1.2054
   71SLPC   H6S 6156   3.431   1.588   9.651 -0.7017 -0.8696 -1.1604
   71SLPC   C27 6157   3.243   1.560   9.562  0.3925  0.0592  0.3254
   71SLPC   H7R 6158   3.276   1.641   9.493  2.4255  1.1669  2.5587
   71SLPC   H7S 6159   3.135   1.568   9.587  0.2040 -1.5649  0.1004
   71SLPC   C28 6160   3.269   1.424   9.483  0.4311  0.7015  0.2631
   71SLPC   H8R 6161   3.183   1.423   9.412  1.2859  0.9901 -0.7963
   71SLPC   H8S 6162   3.246   1.336   9.546  1.3196 -0.4418 -0.9889
   71SLPC   C29 6163   3.414   1.426   9.423  1.3829  0.1454 -0.0453
   71SLPC   H9R 6164   3.502   1.420   9.489  1.1188  1.5945  0.4657
   71SLPC  C210 6165   3.439   1.455   9.297 -0.2776  0.0220 -0.1224
   71SLPC  H10R 6166   3.543   1.452   9.263 -0.7801  1.2846 -1.8297
   71SLPC  C211 6167   3.336   1.493   9.193  0.8920 -0.3662 -0.0295
   71SLPC  H11R 6168   3.256   1.551   9.244  3.4376 -0.1103  3.9210
   71SLPC  H11S 6169   3.295   1.397   9.155 -0.9203  0.6026 -0.5858
   71SLPC  C212 6170   3.399   1.576   9.086 -0.3976  0.3810  0.4176
   71SLPC  H12R 6171   3.460   1.657   9.130 -0.0128 -0.0144  0.6172
   71SLPC  C213 6172   3.394   1.569   8.952  0.4406 -0.2429 -0.3395
   71SLPC  H13R 6173   3.448   1.639   8.886  1.3274 -0.9235 -0.3404
   71SLPC  C214 6174   3.309   1.478   8.873  0.6417 -0.4172 -0.2970
   71SLPC  H14R 6175   3.230   1.426   8.931 -0.1642 -1.2888 -2.1489
   71SLPC  H14S 6176   3.375   1.400   8.828 -1.9719 -2.2474 -1.0626
   71SLPC  C215 6177   3.237   1.555   8.756  0.6821  0.3392 -0.0806
   71SLPC  H15R 6178   3.311   1.628   8.717 -1.8186  3.4314  0.7268
   71SLPC  H15S 6179   3.148   1.616   8.783  0.8113  1.0677 -1.3004
   71SLPC  C216 6180   3.193   1.453   8.645  0.4116  0.1898  0.4723
   71SLPC  H16R 6181   3.283   1.390   8.630  1.5844  1.8100  0.5488
   71SLPC  H16S 6182   3.167   1.507   8.551 -1.1857  1.2505  1.4832
   71SLPC  C217 6183   3.065   1.385   8.679 -0.6941  0.3505  0.0874
   71SLPC  H17R 6184   2.991   1.465   8.698 -1.7669 -1.1939  2.7489
   71SLPC  H17S 6185   3.074   1.338   8.779  0.0490 -0.4459 -0.3531
   71SLPC  C218 6186   3.005   1.284   8.571  0.4881 -0.0306  0.4663
   71SLPC  H18R 6187   3.087   1.210   8.559  0.5467  0.2313 -0.8152
   71SLPC  H18S 6188   2.989   1.317   8.467  6.6686  1.4901 -0.2148
   71SLPC  H18T 6189   2.911   1.237   8.607  2.6688 -3.0027  2.6213
   71SLPC   C33 6190   3.689   1.993  10.079 -0.7404 -0.0561  0.0862
   71SLPC   H3X 6191   3.797   1.983  10.055 -0.2515  3.8376  0.3594
   71SLPC   H3Y 6192   3.658   2.099  10.093 -0.0483  0.0873  0.5591
   71SLPC   C34 6193   3.620   1.918   9.968 -0.6769 -0.1209 -0.7398
   71SLPC   H4X 6194   3.510   1.908   9.971 -0.5481 -1.2143  0.7431
   71SLPC   H4Y 6195   3.656   1.814   9.982 -1.7535 -0.2563  1.0678
   71SLPC   C35 6196   3.671   1.967   9.824  0.6051  0.2917 -0.2295
   71SLPC   H5X 6197   3.773   1.930   9.800  0.8397 -0.2072  1.4442
   71SLPC   H5Y 6198   3.668   2.076   9.805 -0.4019  0.2579 -0.3320
   71SLPC   C36 6199   3.573   1.908   9.718  0.0938 -0.1046 -0.3954
   71SLPC   H6X 6200   3.480   1.965   9.740 -0.3823 -1.0148 -0.0138
   71SLPC   H6Y 6201   3.547   1.802   9.737 -1.6982  0.3169 -0.4133
   71SLPC   C37 6202   3.623   1.924   9.571  0.1951  0.1306  0.1117
   71SLPC   H7X 6203   3.723   1.876   9.560  0.2249  0.0768  0.6255
   71SLPC   H7Y 6204   3.640   2.029   9.539 -1.8595  0.8480  1.2558
   71SLPC   C38 6205   3.529   1.855   9.473 -0.2856 -0.2649  0.5690
   71SLPC   H8X 6206   3.421   1.875   9.495 -1.0784 -1.1463 -2.3083
   71SLPC   H8Y 6207   3.545   1.746   9.469  2.3637  0.1250 -0.1092
   71SLPC   C39 6208   3.566   1.902   9.333 -0.2569  0.1052  0.8043
   71SLPC   H9X 6209   3.560   2.013   9.335 -1.5668  0.0975 -0.8981
   71SLPC   H9Y 6210   3.484   1.874   9.263  0.4644  0.4479 -0.1941
   71SLPC  C310 6211   3.702   1.851   9.288 -0.4978  0.4338 -0.0457
   71SLPC  H10X 6212   3.738   1.758   9.337 -2.2234  0.3083  1.0292
   71SLPC  H10Y 6213   3.780   1.924   9.317 -1.9392  1.5753  1.0261
   71SLPC  C311 6214   3.698   1.841   9.138 -0.4134 -0.4140 -0.2178
   71SLPC  H11X 6215   3.651   1.928   9.088 -0.0741  0.7668  1.4834
   71SLPC  H11Y 6216   3.629   1.756   9.118 -0.8667 -0.4961  1.6635
   71SLPC  C312 6217   3.832   1.800   9.075  0.0361  0.0275  0.4102
   71SLPC  H12X 6218   3.854   1.700   9.116  0.2527 -1.3192 -2.8164
   71SLPC  H12Y 6219   3.917   1.870   9.091 -0.2494  0.7242 -1.0561
   71SLPC  C313 6220   3.807   1.775   8.929  0.3069  0.2263 -0.1749
   71SLPC  H13X 6221   3.716   1.712   8.922  0.0572  0.6014 -0.3689
   71SLPC  H13Y 6222   3.894   1.727   8.879  0.0649 -0.0356 -0.3506
   71SLPC  C314 6223   3.777   1.903   8.852  0.5544  0.2309  0.1366
   71SLPC  H14X 6224   3.866   1.968   8.863  1.0627 -0.2649 -0.9606
   71SLPC  H14Y 6225   3.695   1.964   8.895  1.3187  0.2337  1.6107
   71SLPC  C315 6226   3.735   1.853   8.715 -0.2327 -0.3150  0.0894
   71SLPC  H15X 6227   3.638   1.799   8.719 -0.5008  0.0677 -1.0272
   71SLPC  H15Y 6228   3.812   1.803   8.653 -0.1975 -1.8709  1.3546
   71SLPC  C316 6229   3.702   1.970   8.620  0.6171  0.4652 -0.3720
   71SLPC  H16X 6230   3.795   2.027   8.598  0.1582  1.5855  0.5276
   71SLPC  H16Y 6231   3.643   2.046   8.676 -1.1503 -2.2568  1.5817
   71SLPC  C317 6232   3.620   1.924   8.502  0.3946 -0.7857 -0.3422
   71SLPC  H17X 6233   3.525   1.869   8.519  1.7345 -3.0678 -0.0413
   71SLPC  H17Y 6234   3.680   1.850   8.444  0.7610 -0.6841 -0.0997
   71SLPC  C318 6235   3.591   2.043   8.405 -0.1774 -0.6182 -0.2042
   71SLPC  H18X 6236   3.688   2.082   8.368 -0.1790 -0.9132 -0.5228
   71SLPC  H18Y 6237   3.533   2.123   8.456  1.7345  0.2644  0.6144
   71SLPC  H18Z 6238   3.523   2.010   8.324  0.8037  1.2741 -1.8510
   72SLPC     N 6239   5.444   0.361  10.778 -0.4557  0.6104 -0.2956
   72SLPC   C13 6240   5.508   0.423  10.654 -1.0593  0.1936  0.1130
   72SLPC  H13A 6241   5.487   0.365  10.566  0.1465 -0.6340  0.3549
   72SLPC  H13B 6242   5.451   0.513  10.634  0.3158  1.3762  1.3697
   72SLPC  H13C 6243   5.615   0.440  10.652 -1.0116  0.1223  1.3711
   72SLPC   C14 6244   5.469   0.461  10.893  0.2926 -0.3740  0.1431
   72SLPC  H14A 6245   5.570   0.489  10.916 -0.0546  0.7151  0.3527
   72SLPC  H14B 6246   5.415   0.549  10.862  1.3398  0.6915  1.3257
   72SLPC  H14C 6247   5.419   0.422  10.980 -2.0273 -1.1762 -1.4927
   72SLPC   C15 6248   5.528   0.238  10.815 -0.1687 -0.1301 -0.3694
   72SLPC  H15A 6249   5.522   0.155  10.747  0.5605  0.3581 -1.0336
   72SLPC  H15B 6250   5.631   0.269  10.809 -0.0375 -0.0077  2.0063
   72SLPC  H15C 6251   5.518   0.217  10.921 -0.2193 -2.6711 -0.8486
   72SLPC   C12 6252   5.294   0.340  10.761  0.4400 -0.1663  0.3025
   72SLPC  H12A 6253   5.253   0.280  10.841  3.4351 -1.0272  1.2681
   72SLPC  H12B 6254   5.280   0.278  10.674  0.2993  0.2926 -0.0013
   72SLPC   C11 6255   5.208   0.468  10.744  0.6285  0.3360  0.3515
   72SLPC  H11A 6256   5.203   0.534  10.833  0.8665 -0.4369  0.9427
   72SLPC  H11B 6257   5.104   0.430  10.736  0.2969  1.0176  1.2477
   72SLPC     P 6258   5.154   0.603  10.524 -0.1498 -1.0365 -0.3278
   72SLPC   O13 6259   5.035   0.641  10.603  0.4615 -0.3166  0.1475
   72SLPC   O14 6260   5.230   0.720  10.465 -0.4645  0.0730  0.7328
   72SLPC   O12 6261   5.252   0.532  10.624  0.7303 -0.0066  0.1681
   72SLPC   O11 6262   5.115   0.494  10.417  0.3583 -0.4293  0.8126
   72SLPC    C1 6263   5.128   0.358  10.450  0.8390 -0.0638  0.0850
   72SLPC    HA 6264   5.231   0.322  10.473 -0.3601 -3.1324  0.7868
   72SLPC    HB 6265   5.061   0.331  10.534  0.6402  0.5933  0.1426
   72SLPC    C2 6266   5.076   0.264  10.331  0.4197  0.8834 -0.1102
   72SLPC    HS 6267   5.075   0.160  10.372  1.2038 -0.6855 -3.8652
   72SLPC   O21 6268   5.175   0.278  10.219 -0.0893 -0.4705 -0.2076
   72SLPC   C21 6269   5.206   0.166  10.163 -0.5560  0.0923  0.4939
   72SLPC   O22 6270   5.163   0.058  10.192 -0.2189 -0.1135 -0.1713
   72SLPC   C22 6271   5.297   0.192  10.039  0.1678 -0.1832 -0.6394
   72SLPC   H2R 6272   5.241   0.277   9.995 -1.6912  0.4342  2.7047
   72SLPC   H2S 6273   5.395   0.227  10.078 -0.1142  0.8376 -0.8274
   72SLPC    C3 6274   4.930   0.301  10.292  0.1570  0.2597 -0.3250
   72SLPC    HX 6275   4.941   0.410  10.272  0.6611  0.2037 -0.3654
   72SLPC    HY 6276   4.865   0.291  10.381 -1.0805  0.9270 -1.1295
   72SLPC   O31 6277   4.886   0.242  10.167 -0.1234 -0.1910 -0.3597
   72SLPC   C31 6278   4.837   0.122  10.160  0.3542 -0.0088  0.1121
   72SLPC   O32 6279   4.816   0.056  10.259 -0.2905 -0.2474  0.7472
   72SLPC   C32 6280   4.794   0.090  10.010  0.2204  0.7746 -0.5991
   72SLPC   H2X 6281   4.883   0.106   9.946 -0.1093 -0.8177 -1.4633
   72SLPC   H2Y 6282   4.708   0.160   9.995  0.4822  1.6433  1.6453
   72SLPC   C23 6283   5.311   0.080   9.943  0.0021 -0.4014 -0.4507
   72SLPC   H3R 6284   5.341  -0.012   9.997  2.6114  0.2950 -0.6306
   72SLPC   H3S 6285   5.396   0.099   9.873  0.9072 -2.3172  0.0777
   72SLPC   C24 6286   5.181   0.063   9.866 -0.1553 -0.0847  0.7302
   72SLPC   H4R 6287   5.175   0.149   9.796  1.0909 -0.4455  0.1806
   72SLPC   H4S 6288   5.095   0.052   9.936 -2.1248  1.0359 -1.4466
   72SLPC   C25 6289   5.188  -0.061   9.768 -0.0236  0.5489  0.2214
   72SLPC   H5R 6290   5.082  -0.091   9.754 -0.3974  0.0520  3.6494
   72SLPC   H5S 6291   5.242  -0.140   9.823  0.4431  0.9434  0.3341
   72SLPC   C26 6292   5.270  -0.027   9.640  0.6444 -0.3927 -0.0699
   72SLPC   H6R 6293   5.365   0.011   9.684  0.5560 -0.8545  0.5326
   72SLPC   H6S 6294   5.219   0.061   9.595 -0.7434 -0.2730  1.6820
   72SLPC   C27 6295   5.286  -0.143   9.535  0.0217  0.0051  0.1937
   72SLPC   H7R 6296   5.187  -0.188   9.511  0.3763  2.1020 -5.8552
   72SLPC   H7S 6297   5.347  -0.230   9.569 -0.6299 -1.2043 -1.6124
   72SLPC   C28 6298   5.346  -0.098   9.399  0.7466  0.3478  0.0659
   72SLPC   H8R 6299   5.387  -0.191   9.355  0.4982  1.2615 -2.1758
   72SLPC   H8S 6300   5.423  -0.028   9.436 -0.7544  1.2739  1.5358
   72SLPC   C29 6301   5.257  -0.034   9.295  0.3214 -0.1066  0.2729
   72SLPC   H9R 6302   5.172   0.020   9.339 -0.7442 -1.8868  0.4408
   72SLPC  C210 6303   5.263  -0.049   9.158  0.5563  0.4685 -0.4174
   72SLPC  H10R 6304   5.200   0.018   9.098 -2.8082 -0.7596  1.6062
   72SLPC  C211 6305   5.359  -0.137   9.079 -0.3430 -0.3527 -0.1078
   72SLPC  H11R 6306   5.333  -0.245   9.072 -0.7585 -0.2247 -0.5938
   72SLPC  H11S 6307   5.459  -0.145   9.127 -0.7229 -3.3014  0.2557
   72SLPC  C212 6308   5.371  -0.078   8.938  0.4015 -0.6668  0.3276
   72SLPC  H12R 6309   5.408   0.026   8.938 -3.6693  0.8822 -0.0664
   72SLPC  C213 6310   5.352  -0.136   8.818 -0.1024 -0.1258 -0.1289
   72SLPC  H13R 6311   5.351  -0.070   8.730  2.4368  1.4011  0.9459
   72SLPC  C214 6312   5.315  -0.284   8.789  0.0223  0.5078 -0.3801
   72SLPC  H14R 6313   5.245  -0.337   8.857 -0.4217 -0.1720 -1.3654
   72SLPC  H14S 6314   5.405  -0.348   8.780 -1.3689 -2.1288  3.4398
   72SLPC  C215 6315   5.234  -0.305   8.649  0.4189 -0.3778 -0.8377
   72SLPC  H15R 6316   5.139  -0.252   8.675 -0.5717 -1.6553 -1.7704
   72SLPC  H15S 6317   5.207  -0.413   8.645 -0.9112 -0.2085  1.8232
   72SLPC  C216 6318   5.304  -0.246   8.526 -0.8553  0.8966  0.0404
   72SLPC  H16R 6319   5.369  -0.322   8.478  1.1310  0.3346  3.4186
   72SLPC  H16S 6320   5.377  -0.169   8.558  0.2165 -0.7555  1.7038
   72SLPC  C217 6321   5.208  -0.192   8.420  0.0414 -0.0649 -0.4154
   72SLPC  H17R 6322   5.163  -0.101   8.465  2.7587  0.7985  0.6534
   72SLPC  H17S 6323   5.126  -0.263   8.395 -1.3851  0.9041  1.4091
   72SLPC  C218 6324   5.267  -0.156   8.286  0.5274  0.1768  0.2933
   72SLPC  H18R 6325   5.190  -0.107   8.223 -0.5765 -1.7876  0.0744
   72SLPC  H18S 6326   5.293  -0.246   8.226  0.4520 -0.9590  1.9241
   72SLPC  H18T 6327   5.353  -0.088   8.300  0.1781  0.3714  1.5603
   72SLPC   C33 6328   4.718  -0.048   9.997  0.9235 -0.4974  0.5003
   72SLPC   H3X 6329   4.638  -0.074  10.070  0.2813  0.1773  0.0455
   72SLPC   H3Y 6330   4.795  -0.128   9.999  1.4150 -0.0321  0.0547
   72SLPC   C34 6331   4.658  -0.066   9.856  0.4864 -0.4095 -0.1534
   72SLPC   H4X 6332   4.598   0.023   9.827 -0.4034 -0.5001  1.3750
   72SLPC   H4Y 6333   4.595  -0.158   9.856 -1.4278  0.8530 -1.6835
   72SLPC   C35 6334   4.766  -0.089   9.746 -0.5044 -0.2635 -0.5205
   72SLPC   H5X 6335   4.810  -0.187   9.773  0.9707  0.2149 -1.0665
   72SLPC   H5Y 6336   4.844  -0.010   9.757 -0.3473 -0.6401  1.1040
   72SLPC   C36 6337   4.731  -0.089   9.597 -0.1087  0.3065 -0.0370
   72SLPC   H6X 6338   4.753   0.015   9.563 -2.2367  1.4569  1.9597
   72SLPC   H6Y 6339   4.623  -0.115   9.599 -0.2581  0.8992 -0.1609
   72SLPC   C37 6340   4.816  -0.188   9.518  0.1700 -0.4080  0.6293
   72SLPC   H7X 6341   4.798  -0.293   9.550 -1.6800  0.3696  2.3113
   72SLPC   H7Y 6342   4.924  -0.170   9.535  0.6051 -1.9905 -0.3465
   72SLPC   C38 6343   4.785  -0.168   9.374 -0.0765 -0.2107  0.1039
   72SLPC   H8X 6344   4.760  -0.062   9.352 -0.0114 -0.5446 -1.6202
   72SLPC   H8Y 6345   4.688  -0.215   9.347  0.7107 -2.1758  0.5713
   72SLPC   C39 6346   4.880  -0.217   9.260 -0.1340  0.4690  0.0626
   72SLPC   H9X 6347   4.891  -0.327   9.268  1.4682  0.4732 -1.5910
   72SLPC   H9Y 6348   4.985  -0.181   9.271 -0.3312  0.8143  0.8377
   72SLPC  C310 6349   4.845  -0.184   9.116 -0.5264 -0.0252  0.9450
   72SLPC  H10X 6350   4.743  -0.212   9.084  0.3584 -2.3075  0.0154
   72SLPC  H10Y 6351   4.914  -0.242   9.052 -2.2934 -0.4359 -0.6308
   72SLPC  C311 6352   4.869  -0.033   9.088  0.5397 -0.0876  0.4994
   72SLPC  H11X 6353   4.975  -0.002   9.103  0.5208  0.7174 -0.9113
   72SLPC  H11Y 6354   4.793   0.016   9.152  0.0282  0.3948 -0.4715
   72SLPC  C312 6355   4.827  -0.002   8.943 -0.3507  0.2803  0.1929
   72SLPC  H12X 6356   4.828   0.109   8.944  1.8864  0.3171 -1.8685
   72SLPC  H12Y 6357   4.719  -0.017   8.922  0.4990 -2.1903 -2.7891
   72SLPC  C313 6358   4.920  -0.060   8.831 -0.5061  0.2070  0.3837
   72SLPC  H13X 6359   4.922  -0.170   8.848 -2.5095 -0.3474 -2.6124
   72SLPC  H13Y 6360   5.025  -0.031   8.850 -0.4703 -0.5618  1.3955
   72SLPC  C314 6361   4.879  -0.027   8.688  0.4389 -0.1702 -0.1247
   72SLPC  H14X 6362   4.960  -0.044   8.613  0.0869  0.9852 -0.7715
   72SLPC  H14Y 6363   4.871   0.083   8.677  0.1912 -0.0671  1.0346
   72SLPC  C315 6364   4.746  -0.094   8.650  0.0562  0.5763  0.5056
   72SLPC  H15X 6365   4.665  -0.060   8.717 -0.6674  0.7232 -0.4382
   72SLPC  H15Y 6366   4.754  -0.203   8.672 -1.3006  0.4486  0.3937
   72SLPC  C316 6367   4.711  -0.065   8.500  0.5233 -0.5682 -0.2289
   72SLPC  H16X 6368   4.795  -0.107   8.441 -0.4013 -0.6573 -1.4969
   72SLPC  H16Y 6369   4.700   0.046   8.495 -0.4306 -0.6936 -1.1278
   72SLPC  C317 6370   4.594  -0.142   8.445 -0.3326  0.8602 -0.4833
   72SLPC  H17X 6371   4.598  -0.106   8.340  0.9195  1.0419 -0.3773
   72SLPC  H17Y 6372   4.493  -0.124   8.487 -1.0353 -3.2659 -0.2005
   72SLPC  C318 6373   4.606  -0.294   8.443  1.0118 -0.2796  0.3929
   72SLPC  H18X 6374   4.609  -0.343   8.543 -0.2622  0.3934  0.7660
   72SLPC  H18Y 6375   4.696  -0.331   8.389  2.8922  1.9530  1.9033
   72SLPC  H18Z 6376   4.513  -0.336   8.398  0.8690 -0.8883  1.2439
   73SLPC     N 6377   4.755   5.760  10.849 -0.3820 -0.1013 -0.5765
   73SLPC   C13 6378   4.730   5.834  10.725 -0.3899  0.6446 -0.1604
   73SLPC  H13A 6379   4.805   5.811  10.651  0.1713 -1.3235  0.9818
   73SLPC  H13B 6380   4.637   5.801  10.681 -1.8877  3.0881  1.0852
   73SLPC  H13C 6381   4.747   5.940  10.736  0.8929  0.2784  1.4835
   73SLPC   C14 6382   4.672   5.824  10.945  0.0841  0.0299 -0.2916
   73SLPC  H14A 6383   4.684   5.772  11.039  2.3718  1.4562  0.2427
   73SLPC  H14B 6384   4.695   5.928  10.961  1.9283 -0.2217 -1.1524
   73SLPC  H14C 6385   4.568   5.818  10.917 -0.7281  0.1464  2.4932
   73SLPC   C15 6386   4.901   5.794  10.890 -0.5236 -0.3884 -1.3156
   73SLPC  H15A 6387   4.925   5.769  10.992 -1.6931  1.3622 -0.5819
   73SLPC  H15B 6388   4.975   5.748  10.826 -0.4666  0.5202 -1.9023
   73SLPC  H15C 6389   4.914   5.901  10.880 -0.2703 -0.2924 -0.0525
   73SLPC   C12 6390   4.722   5.615  10.827  1.0401  0.2827 -0.3494
   73SLPC  H12A 6391   4.616   5.608  10.807  1.0725  3.1242 -1.7248
   73SLPC  H12B 6392   4.750   5.559  10.915  0.8557 -0.1244 -0.5476
   73SLPC   C11 6393   4.800   5.545  10.708  0.4430  0.6135  0.3078
   73SLPC  H11A 6394   4.789   5.582  10.604  2.2901  0.7864  0.1533
   73SLPC  H11B 6395   4.746   5.448  10.708  0.7027  0.4656  1.3986
   73SLPC     P 6396   4.973   5.399  10.835  0.2602 -0.5427 -0.0383
   73SLPC   O13 6397   5.124   5.394  10.838  0.4671 -0.1896 -0.2437
   73SLPC   O14 6398   4.905   5.414  10.964  0.1795 -0.9068  0.5131
   73SLPC   O12 6399   4.936   5.518  10.744 -0.2066 -0.0231  0.4404
   73SLPC   O11 6400   4.915   5.272  10.763  0.1817  0.0571 -0.3193
   73SLPC    C1 6401   4.974   5.207  10.648  0.3047 -0.0246 -0.3863
   73SLPC    HA 6402   5.081   5.230  10.632  0.5458 -0.9715 -0.1321
   73SLPC    HB 6403   4.959   5.098  10.657 -0.4439  0.2627  2.1251
   73SLPC    C2 6404   4.913   5.243  10.513  0.0931 -1.3384  0.6367
   73SLPC    HS 6405   4.918   5.354  10.504  0.8588 -1.4260 -0.1317
   73SLPC   O21 6406   4.775   5.199  10.509 -0.5092 -0.0067  0.1512
   73SLPC   C21 6407   4.694   5.283  10.447 -0.2040 -0.1111 -0.5216
   73SLPC   O22 6408   4.723   5.396  10.405  0.3808 -0.1544 -0.0753
   73SLPC   C22 6409   4.557   5.209  10.433  0.6933  1.1074 -0.4275
   73SLPC   H2R 6410   4.582   5.107  10.397  0.4258  0.0498  2.2617
   73SLPC   H2S 6411   4.525   5.197  10.539  0.0878 -1.3201 -0.8624
   73SLPC    C3 6412   5.001   5.190  10.397  0.0697  0.6319  0.0664
   73SLPC    HX 6413   5.006   5.080  10.415  1.2323  0.9156  1.6062
   73SLPC    HY 6414   5.105   5.227  10.404  1.1078 -2.2083  0.2010
   73SLPC   O31 6415   4.936   5.201  10.267  0.5719  0.0247 -0.0729
   73SLPC   C31 6416   5.010   5.251  10.169 -0.3063 -0.3418 -0.0155
   73SLPC   O32 6417   5.129   5.272  10.183  0.0933 -0.6480  1.0582
   73SLPC   C32 6418   4.930   5.298  10.053 -0.2708  0.2505  1.1755
   73SLPC   H2X 6419   4.839   5.343  10.100 -1.7673  1.0680 -2.3801
   73SLPC   H2Y 6420   4.910   5.212   9.986 -0.1839  0.9669  0.2271
   73SLPC   C23 6421   4.459   5.282  10.339  0.4331  0.3878  0.7644
   73SLPC   H3R 6422   4.444   5.390  10.363  1.3296  0.3201  1.6671
   73SLPC   H3S 6423   4.361   5.232  10.352  0.2390  0.5478 -0.0321
   73SLPC   C24 6424   4.486   5.283  10.186  0.4755 -0.1841  0.0740
   73SLPC   H4R 6425   4.514   5.177  10.166  0.7221  0.1437 -1.3272
   73SLPC   H4S 6426   4.575   5.347  10.169 -0.4058  1.5743  1.9497
   73SLPC   C25 6427   4.372   5.322  10.094  0.0042 -0.1986  0.0865
   73SLPC   H5R 6428   4.360   5.432  10.092  1.8231  0.0038 -3.5091
   73SLPC   H5S 6429   4.280   5.270  10.128  0.4622 -1.3698 -0.4109
   73SLPC   C26 6430   4.393   5.283   9.940 -0.1079 -0.2032 -0.1641
   73SLPC   H6R 6431   4.412   5.174   9.941 -0.3025 -0.2532 -1.0015
   73SLPC   H6S 6432   4.486   5.336   9.912 -1.3498  2.4038  0.5012
   73SLPC   C27 6433   4.279   5.320   9.845  0.5623  0.5834  0.2844
   73SLPC   H7R 6434   4.265   5.430   9.839  0.2351  0.5762  0.9885
   73SLPC   H7S 6435   4.187   5.273   9.885  1.6484 -1.6994  0.2048
   73SLPC   C28 6436   4.295   5.273   9.698 -0.1841 -0.0785 -0.1439
   73SLPC   H8R 6437   4.204   5.314   9.649  0.2498 -0.6907 -1.4940
   73SLPC   H8S 6438   4.281   5.163   9.690 -0.5713  0.0320 -0.9959
   73SLPC   C29 6439   4.423   5.328   9.640 -0.6298  0.5965  0.1974
   73SLPC   H9R 6440   4.482   5.398   9.700  3.7185 -1.0890 -1.8390
   73SLPC  C210 6441   4.462   5.282   9.522  0.2524  0.5389 -0.3853
   73SLPC  H10R 6442   4.563   5.312   9.490 -0.6589  1.4084 -2.5045
   73SLPC  C211 6443   4.400   5.184   9.427 -1.1810  0.0887 -0.2993
   73SLPC  H11R 6444   4.370   5.097   9.489 -2.8492  1.4691  0.8894
   73SLPC  H11S 6445   4.470   5.137   9.355 -0.9289 -1.1558  0.7501
   73SLPC  C212 6446   4.273   5.226   9.358 -0.1583  0.8172 -0.0614
   73SLPC  H12R 6447   4.218   5.313   9.397 -2.1430 -1.2516  1.9840
   73SLPC  C213 6448   4.216   5.168   9.250  0.2045  0.6319  0.1760
   73SLPC  H13R 6449   4.117   5.199   9.214  0.8597 -0.8591 -3.0560
   73SLPC  C214 6450   4.270   5.042   9.186  0.5529 -0.5571  0.4624
   73SLPC  H14R 6451   4.183   4.977   9.163 -1.5826  2.7142 -1.0201
   73SLPC  H14S 6452   4.325   4.983   9.262  2.6463  1.1441  0.3356
   73SLPC  C215 6453   4.369   5.057   9.066 -0.4342 -0.1222  0.1937
   73SLPC  H15R 6454   4.461   5.101   9.111 -0.9697  2.1536 -0.8595
   73SLPC  H15S 6455   4.334   5.126   8.987  0.1201  1.6233  1.4540
   73SLPC  C216 6456   4.392   4.921   9.000  0.4023 -0.4576 -0.2803
   73SLPC  H16R 6457   4.296   4.890   8.954 -0.1902  0.8176  0.0678
   73SLPC  H16S 6458   4.430   4.845   9.071 -0.5131 -0.0486  0.6627
   73SLPC  C217 6459   4.499   4.935   8.897 -0.1662  0.2683  0.2800
   73SLPC  H17R 6460   4.578   5.003   8.934 -0.8126  1.0370  0.2596
   73SLPC  H17S 6461   4.452   4.968   8.802 -2.7791 -2.2975  0.5859
   73SLPC  C218 6462   4.565   4.793   8.871  0.2388 -0.4223 -0.0217
   73SLPC  H18R 6463   4.487   4.730   8.824 -0.4856  0.3902  0.0644
   73SLPC  H18S 6464   4.596   4.737   8.962  3.0339  0.0786 -0.6233
   73SLPC  H18T 6465   4.652   4.814   8.805  0.3681  1.4420  0.7065
   73SLPC   C33 6466   5.004   5.405   9.972  0.3097 -0.6127  0.0750
   73SLPC   H3X 6467   5.101   5.373   9.928  0.3584 -1.0697  0.5130
   73SLPC   H3Y 6468   5.029   5.489  10.040 -1.9405 -0.8031  1.2003
   73SLPC   C34 6469   4.927   5.450   9.846  0.2919  0.2191  0.7586
   73SLPC   H4X 6470   4.996   5.525   9.801  1.0816 -0.2548  1.1776
   73SLPC   H4Y 6471   4.838   5.507   9.880 -0.4226 -0.2403 -0.3333
   73SLPC   C35 6472   4.892   5.337   9.740 -1.2231  0.5921  0.0082
   73SLPC   H5X 6473   4.799   5.281   9.765 -0.9395 -1.4576 -3.2520
   73SLPC   H5Y 6474   4.980   5.269   9.745 -0.1808  2.0168  1.3361
   73SLPC   C36 6475   4.886   5.393   9.597 -0.1770  0.1565 -0.0496
   73SLPC   H6X 6476   4.989   5.431   9.581 -0.3784  1.5717  1.8114
   73SLPC   H6Y 6477   4.818   5.480   9.601 -1.1754 -0.6760  1.4068
   73SLPC   C37 6478   4.857   5.279   9.502  0.5352  0.1117  0.5178
   73SLPC   H7X 6479   4.753   5.248   9.524  0.9388 -2.3675 -0.8161
   73SLPC   H7Y 6480   4.919   5.188   9.519 -0.2532 -0.6065 -0.4268
   73SLPC   C38 6481   4.866   5.315   9.353  0.5162 -0.1506 -0.2555
   73SLPC   H8X 6482   4.963   5.370   9.344 -0.7992  2.3783  0.6005
   73SLPC   H8Y 6483   4.787   5.389   9.330  1.2606  0.9800  0.7352
   73SLPC   C39 6484   4.859   5.194   9.268 -0.4982  0.0854 -1.0677
   73SLPC   H9X 6485   4.750   5.180   9.251 -0.7117 -0.4042  0.5542
   73SLPC   H9Y 6486   4.910   5.104   9.310  1.6845  1.8000  0.0857
   73SLPC  C310 6487   4.917   5.220   9.129  0.8401 -0.2029  0.1708
   73SLPC  H10X 6488   5.020   5.255   9.153  0.9464 -0.2662 -0.1925
   73SLPC  H10Y 6489   4.855   5.303   9.089 -0.4428  0.0193  2.5199
   73SLPC  C311 6490   4.922   5.102   9.033 -0.4338  0.3539  0.1627
   73SLPC  H11X 6491   4.821   5.062   9.011  0.0397 -1.0122  0.4182
   73SLPC  H11Y 6492   4.981   5.023   9.086 -0.3189 -0.2724 -0.8761
   73SLPC  C312 6493   4.991   5.144   8.899  0.4711 -0.0579 -0.0474
   73SLPC  H12X 6494   5.095   5.180   8.917  1.0387 -0.6952 -2.0279
   73SLPC  H12Y 6495   4.935   5.235   8.870 -2.3219 -1.5388  0.4777
   73SLPC  C313 6496   5.000   5.034   8.792 -0.3695 -0.0041  0.3516
   73SLPC  H13X 6497   5.032   5.075   8.695 -0.6198 -2.3608 -0.7575
   73SLPC  H13Y 6498   4.903   4.980   8.778 -0.9752  0.5295  2.2903
   73SLPC  C314 6499   5.099   4.926   8.830 -0.3254 -0.3815 -0.3212
   73SLPC  H14X 6500   5.052   4.856   8.902 -1.3213  0.7451  0.1431
   73SLPC  H14Y 6501   5.188   4.972   8.878  0.4989 -1.9295 -0.3259
   73SLPC  C315 6502   5.147   4.850   8.706  0.3332  0.3774 -0.1577
   73SLPC  H15X 6503   5.172   4.922   8.625 -2.0614  0.9209 -0.4587
   73SLPC  H15Y 6504   5.052   4.806   8.669  1.7366 -1.8270 -1.2470
   73SLPC  C316 6505   5.252   4.751   8.738 -0.4653 -0.0021  0.7933
   73SLPC  H16X 6506   5.220   4.701   8.832 -0.3319 -0.1127  0.7800
   73SLPC  H16Y 6507   5.350   4.803   8.751  0.3399 -1.4687  0.7719
   73SLPC  C317 6508   5.266   4.642   8.634 -0.1631  1.1212  0.4198
   73SLPC  H17X 6509   5.297   4.693   8.540 -1.6880  0.6811 -0.3311
   73SLPC  H17Y 6510   5.175   4.586   8.606 -0.1597  0.6034  1.4252
   73SLPC  C318 6511   5.378   4.545   8.675  0.2242  0.0379  0.4098
   73SLPC  H18X 6512   5.379   4.458   8.607 -2.5025  0.4674 -0.2319
   73SLPC  H18Y 6513   5.351   4.521   8.780 -1.2408  1.9179  0.5033
   73SLPC  H18Z 6514   5.480   4.590   8.674 -0.0502  0.6625 -1.1545
   74SLPC     N 6515   5.179   6.604  10.669 -0.5372  0.2327  0.5633
   74SLPC   C13 6516   5.264   6.663  10.773  0.8613  0.3428  0.0813
   74SLPC  H13A 6517   5.363   6.689  10.736  1.1112  1.8523  1.7297
   74SLPC  H13B 6518   5.221   6.751  10.817 -0.7267  0.8759 -2.4506
   74SLPC  H13C 6519   5.286   6.586  10.846 -1.8662  0.7363  1.3757
   74SLPC   C14 6520   5.141   6.700  10.566 -0.0116 -0.1258  0.0813
   74SLPC  H14A 6521   5.227   6.756  10.530  0.2516  0.2476  1.2740
   74SLPC  H14B 6522   5.090   6.658  10.480  0.1416  0.1259 -0.1309
   74SLPC  H14C 6523   5.069   6.774  10.597  0.3247 -0.0542  0.6957
   74SLPC   C15 6524   5.059   6.554  10.730  0.1714  0.7324  0.3158
   74SLPC  H15A 6525   5.002   6.497  10.659 -1.2809  0.5601  1.6019
   74SLPC  H15B 6526   5.086   6.482  10.806 -0.2796  0.1670 -0.0518
   74SLPC  H15C 6527   4.991   6.626  10.771 -0.8433  0.1222 -0.2785
   74SLPC   C12 6528   5.270   6.498  10.607 -0.1018 -0.5982 -0.1394
   74SLPC  H12A 6529   5.208   6.454  10.530  0.5278 -1.8711  0.0522
   74SLPC  H12B 6530   5.293   6.430  10.688 -0.7190  0.2067  0.7061
   74SLPC   C11 6531   5.406   6.540  10.537 -0.0829 -0.1381  1.2245
   74SLPC  H11A 6532   5.390   6.578  10.433  1.6623  0.3916  1.1283
   74SLPC  H11B 6533   5.465   6.446  10.528  1.9228  0.9975  2.0698
   74SLPC     P 6534   5.615   6.623  10.676  0.1374  0.3294  0.4852
   74SLPC   O13 6535   5.667   6.754  10.715  0.3052  0.3914 -0.2476
   74SLPC   O14 6536   5.594   6.533  10.788  0.0645 -0.1066 -0.1216
   74SLPC   O12 6537   5.478   6.648  10.602  0.5529  0.4372 -0.6536
   74SLPC   O11 6538   5.722   6.559  10.579 -0.5216 -0.6797  0.2779
   74SLPC    C1 6539   5.813   6.646  10.506  0.1836  0.7056 -0.2434
   74SLPC    HA 6540   5.841   6.734  10.568 -3.8691  3.0546 -1.6321
   74SLPC    HB 6541   5.904   6.585  10.488 -1.3631 -1.1614 -1.8561
   74SLPC    C2 6542   5.765   6.701  10.368 -0.2687 -0.0429 -0.8355
   74SLPC    HS 6543   5.701   6.789  10.389  0.8758  0.9387 -1.4045
   74SLPC   O21 6544   5.703   6.602  10.285 -0.1748  0.0703 -0.2192
   74SLPC   C21 6545   5.590   6.645  10.229 -0.6221 -0.7067  0.1507
   74SLPC   O22 6546   5.539   6.755  10.242 -0.4789  0.1890  0.2183
   74SLPC   C22 6547   5.543   6.531  10.141  0.1369 -1.1415 -0.0995
   74SLPC   H2R 6548   5.583   6.432  10.171  0.4216 -0.8415  0.5045
   74SLPC   H2S 6549   5.433   6.521  10.157 -0.0235  1.9364  0.9282
   74SLPC    C3 6550   5.886   6.770  10.300  0.2876 -0.3864  0.1457
   74SLPC    HX 6551   5.967   6.696  10.283  1.1481  0.7202 -0.7686
   74SLPC    HY 6552   5.919   6.853  10.366 -2.2506  1.4582 -0.8403
   74SLPC   O31 6553   5.857   6.832  10.167  0.0522  0.9530  0.0510
   74SLPC   C31 6554   5.967   6.860  10.102 -0.7010 -0.4324 -0.8615
   74SLPC   O32 6555   6.080   6.841  10.136  0.1454  0.0412 -0.2895
   74SLPC   C32 6556   5.928   6.923   9.962  0.5998  0.5720 -1.1449
   74SLPC   H2X 6557   5.957   6.844   9.890 -1.8738 -0.3349 -1.1924
   74SLPC   H2Y 6558   6.002   7.006   9.950  1.1845  0.5641  1.7978
   74SLPC   C23 6559   5.574   6.558   9.995  0.0981  0.2343 -0.6995
   74SLPC   H3R 6560   5.539   6.658   9.961 -1.3816 -0.8765 -2.5326
   74SLPC   H3S 6561   5.526   6.480   9.931 -2.3809  1.3638 -0.2693
   74SLPC   C24 6562   5.724   6.551   9.953 -0.3607  0.6160  0.1040
   74SLPC   H4R 6563   5.775   6.456   9.981  2.5029  2.2228  0.5010
   74SLPC   H4S 6564   5.770   6.629  10.016 -1.0262  1.3048 -0.2568
   74SLPC   C25 6565   5.751   6.566   9.804 -0.6392 -0.6247 -0.1874
   74SLPC   H5R 6566   5.699   6.662   9.782 -2.3247 -1.4524  0.1125
   74SLPC   H5S 6567   5.697   6.490   9.744 -3.1033  0.5281  0.5399
   74SLPC   C26 6568   5.898   6.570   9.782 -0.7291  0.0572  0.1558
   74SLPC   H6R 6569   5.946   6.471   9.794  2.1974  1.3004 -0.8015
   74SLPC   H6S 6570   5.947   6.624   9.865 -0.7969 -0.4733  0.5434
   74SLPC   C27 6571   5.926   6.623   9.644 -0.2997  0.3800 -0.6062
   74SLPC   H7R 6572   5.899   6.731   9.639 -0.6006  0.2325 -2.5582
   74SLPC   H7S 6573   5.868   6.572   9.564  2.6706 -0.9474 -1.9679
   74SLPC   C28 6574   6.075   6.609   9.612  0.1967  0.2506 -0.3385
   74SLPC   H8R 6575   6.093   6.502   9.589  0.3857  0.0850  0.5852
   74SLPC   H8S 6576   6.140   6.613   9.702 -0.8238 -0.8920  0.4740
   74SLPC   C29 6577   6.127   6.689   9.492  0.6403 -0.3573 -0.5795
   74SLPC   H9R 6578   6.124   6.798   9.503 -1.2580 -0.4106 -0.3673
   74SLPC  C210 6579   6.197   6.644   9.387  0.0782  0.2591 -0.2922
   74SLPC  H10R 6580   6.239   6.718   9.318  0.2687  0.4329  0.0040
   74SLPC  C211 6581   6.236   6.497   9.346 -0.1161  0.3596 -0.0210
   74SLPC  H11R 6582   6.189   6.430   9.422  1.5965  0.2630  0.9869
   74SLPC  H11S 6583   6.343   6.493   9.375 -0.8531  2.4084  3.1720
   74SLPC  C212 6584   6.208   6.459   9.199 -0.2411  0.0952  0.5649
   74SLPC  H12R 6585   6.110   6.412   9.185  0.3918 -1.0751  0.0330
   74SLPC  C213 6586   6.275   6.501   9.088 -0.3031  0.1099 -0.7285
   74SLPC  H13R 6587   6.236   6.479   8.988  1.5127 -3.4589 -0.7297
   74SLPC  C214 6588   6.412   6.578   9.094  0.1993 -0.1632 -0.4402
   74SLPC  H14R 6589   6.465   6.550   9.187  1.4158  0.5361 -0.9120
   74SLPC  H14S 6590   6.398   6.688   9.085  2.3391 -0.0326 -2.6897
   74SLPC  C215 6591   6.512   6.542   8.980 -0.0957  0.3404 -0.4533
   74SLPC  H15R 6592   6.471   6.591   8.889  1.2658  1.0071 -0.7225
   74SLPC  H15S 6593   6.500   6.433   8.964 -3.5661  0.4079  1.3053
   74SLPC  C216 6594   6.651   6.596   8.994  0.3353 -0.9894 -0.3473
   74SLPC  H16R 6595   6.687   6.544   9.086 -1.2100 -1.6868 -0.1320
   74SLPC  H16S 6596   6.642   6.701   9.030 -1.8398 -1.2908  0.0581
   74SLPC  C217 6597   6.746   6.571   8.873 -0.1962  0.8188 -1.0308
   74SLPC  H17R 6598   6.741   6.461   8.858 -0.7703  0.1142  3.3944
   74SLPC  H17S 6599   6.847   6.587   8.915  0.6185  1.5801 -3.2562
   74SLPC  C218 6600   6.712   6.650   8.747  0.8366 -0.4980  0.6836
   74SLPC  H18R 6601   6.787   6.632   8.667  1.5064  1.0652  0.9307
   74SLPC  H18S 6602   6.717   6.759   8.769  2.5447 -0.8659  2.2333
   74SLPC  H18T 6603   6.609   6.628   8.713  1.1326 -0.5335 -0.1999
   74SLPC   C33 6604   5.778   6.962   9.929 -0.5384  0.5759  0.1625
   74SLPC   H3X 6605   5.731   7.034  10.000 -1.9308 -1.4564  1.3669
   74SLPC   H3Y 6606   5.724   6.865   9.935  3.1934 -1.5463  0.4974
   74SLPC   C34 6607   5.772   7.022   9.790 -0.0540 -0.3393  0.1259
   74SLPC   H4X 6608   5.821   6.961   9.710 -0.7907 -2.2979  1.1388
   74SLPC   H4Y 6609   5.829   7.117   9.784  2.2025 -1.6849 -0.4982
   74SLPC   C35 6610   5.623   7.037   9.750 -0.3642  0.0410  0.1829
   74SLPC   H5X 6611   5.577   7.109   9.821  0.6250  0.4038  0.4630
   74SLPC   H5Y 6612   5.569   6.940   9.749  0.3101 -0.3544  1.1636
   74SLPC   C36 6613   5.596   7.098   9.612 -1.0023  0.7436 -0.0958
   74SLPC   H6X 6614   5.681   7.166   9.588 -1.3321  0.7361 -1.3091
   74SLPC   H6Y 6615   5.500   7.154   9.615 -1.6469 -0.3194 -0.6316
   74SLPC   C37 6616   5.575   6.994   9.502  0.1548 -0.4726  0.7520
   74SLPC   H7X 6617   5.474   6.948   9.509 -0.9110  2.1322  3.4297
   74SLPC   H7Y 6618   5.654   6.916   9.504 -0.1449 -0.8185 -0.2645
   74SLPC   C38 6619   5.583   7.063   9.365  0.2006 -0.0434  0.1695
   74SLPC   H8X 6620   5.688   7.089   9.343  0.6821 -1.3619  0.8550
   74SLPC   H8Y 6621   5.519   7.154   9.363 -0.4608 -0.5323 -3.0231
   74SLPC   C39 6622   5.515   6.974   9.260 -0.5435  0.9816 -0.6245
   74SLPC   H9X 6623   5.405   6.983   9.258 -0.6297  0.4488  0.9230
   74SLPC   H9Y 6624   5.541   6.870   9.292  0.2274  1.6067  0.8164
   74SLPC  C310 6625   5.563   7.015   9.121  0.4442  0.1892 -0.1066
   74SLPC  H10X 6626   5.547   6.938   9.042  0.7754 -1.9122  1.8329
   74SLPC  H10Y 6627   5.673   7.030   9.125  0.5786 -0.6472 -0.5148
   74SLPC  C311 6628   5.498   7.147   9.069  0.3960  0.1002  0.6487
   74SLPC  H11X 6629   5.508   7.222   9.150  0.1985  0.6410  0.1727
   74SLPC  H11Y 6630   5.391   7.126   9.049  0.3663  2.0927 -1.4779
   74SLPC  C312 6631   5.558   7.202   8.947 -0.6099  0.5179  0.8045
   74SLPC  H12X 6632   5.668   7.184   8.949 -0.3875  1.1858 -2.4610
   74SLPC  H12Y 6633   5.550   7.312   8.945  2.4411  0.7839  0.1871
   74SLPC  C313 6634   5.499   7.142   8.809 -1.0907  0.4837  0.1132
   74SLPC  H13X 6635   5.390   7.158   8.818 -1.3662 -1.2291  0.0170
   74SLPC  H13Y 6636   5.534   7.038   8.793 -1.6682  0.0033  1.8656
   74SLPC  C314 6637   5.553   7.229   8.699  0.6526  0.0184 -0.5083
   74SLPC  H14X 6638   5.527   7.331   8.734  0.3237 -0.8213  1.8178
   74SLPC  H14Y 6639   5.501   7.212   8.603  0.5627 -0.7823 -0.3214
   74SLPC  C315 6640   5.704   7.220   8.677  0.3521 -0.2433  0.2298
   74SLPC  H15X 6641   5.734   7.114   8.660  0.7987 -0.0226 -0.3777
   74SLPC  H15Y 6642   5.762   7.241   8.769 -1.7699  0.4074  1.4465
   74SLPC  C316 6643   5.750   7.285   8.543  0.2655  0.2883 -0.4997
   74SLPC  H16X 6644   5.757   7.396   8.554 -0.4822  0.2797  0.0511
   74SLPC  H16Y 6645   5.683   7.254   8.460 -0.6275 -1.2288  0.7712
   74SLPC  C317 6646   5.891   7.246   8.513 -0.1734  0.7283 -0.3513
   74SLPC  H17X 6647   5.911   7.138   8.497  0.5846  0.7030  0.6650
   74SLPC  H17Y 6648   5.959   7.274   8.597  2.2424  0.1841 -2.0782
   74SLPC  C318 6649   5.936   7.323   8.383  0.0704  0.6398 -0.1357
   74SLPC  H18X 6650   5.860   7.312   8.302 -2.3936 -1.6508  2.3468
   74SLPC  H18Y 6651   6.041   7.293   8.363  0.1289  0.0204  0.9900
   74SLPC  H18Z 6652   5.940   7.430   8.410  0.2829  0.4416  0.6556
   75SLPC     N 6653   4.249   2.623   6.132 -0.7691  0.2248  0.1316
   75SLPC   C13 6654   4.359   2.692   6.215  0.1562 -0.8301  0.6678
   75SLPC  H13A 6655   4.418   2.765   6.160 -0.0067 -0.2713  1.2193
   75SLPC  H13B 6656   4.320   2.737   6.305 -0.8688  1.1767 -0.7340
   75SLPC  H13C 6657   4.425   2.613   6.247  0.0977 -0.3166  2.0910
   75SLPC   C14 6658   4.191   2.507   6.207  0.0045 -0.1434 -0.6277
   75SLPC  H14A 6659   4.158   2.541   6.304  2.3616  1.8743 -0.4863
   75SLPC  H14B 6660   4.109   2.454   6.160 -1.1236 -0.5745  1.7464
   75SLPC  H14C 6661   4.268   2.436   6.233 -2.7737 -2.3682  1.9133
   75SLPC   C15 6662   4.308   2.571   6.006  0.7145  0.2918  0.8436
   75SLPC  H15A 6663   4.391   2.503   6.022  0.4618 -0.9236 -2.5857
   75SLPC  H15B 6664   4.234   2.518   5.946  1.1341  1.5647 -0.8406
   75SLPC  H15C 6665   4.352   2.653   5.952 -0.5396 -0.1538 -0.9393
   75SLPC   C12 6666   4.134   2.725   6.099 -0.1473  0.2699 -0.2079
   75SLPC  H12A 6667   4.069   2.684   6.024  1.3411  0.4419 -1.6346
   75SLPC  H12B 6668   4.186   2.809   6.055 -1.2597  0.1611 -1.7516
   75SLPC   C11 6669   4.055   2.775   6.220  0.7762  0.6965 -0.2517
   75SLPC  H11A 6670   4.016   2.688   6.278 -1.5254  0.3976 -2.2042
   75SLPC  H11B 6671   3.966   2.836   6.194 -0.1689 -0.3706  0.4195
   75SLPC     P 6672   4.146   2.876   6.443 -0.1277  0.1566 -0.1307
   75SLPC   O13 6673   4.277   2.819   6.483 -0.1830  0.2493 -0.2187
   75SLPC   O14 6674   4.126   3.020   6.475  0.5164  0.3034 -0.5244
   75SLPC   O12 6675   4.139   2.865   6.287  0.7901  0.1001  0.0715
   75SLPC   O11 6676   4.027   2.787   6.493  0.2343  0.1807  0.2947
   75SLPC    C1 6677   3.898   2.850   6.500  0.4370  0.2887 -1.1245
   75SLPC    HA 6678   3.884   2.930   6.424  3.0002  0.3241 -1.6016
   75SLPC    HB 6679   3.816   2.776   6.487 -0.8968  0.9734  2.5256
   75SLPC    C2 6680   3.879   2.909   6.647 -0.3362  0.7074 -0.9809
   75SLPC    HS 6681   3.954   2.991   6.647 -0.1047  0.5149  0.5403
   75SLPC   O21 6682   3.902   2.804   6.744  0.0293  0.1595 -0.1337
   75SLPC   C21 6683   4.027   2.802   6.795 -0.5871  1.0573  0.3959
   75SLPC   O22 6684   4.098   2.900   6.789 -0.2303 -0.1572 -0.1523
   75SLPC   C22 6685   4.070   2.660   6.832  0.9581  0.0706 -0.5484
   75SLPC   H2R 6686   3.979   2.600   6.852  0.1483  0.6662 -2.3581
   75SLPC   H2S 6687   4.121   2.615   6.745  1.1519  0.0935 -0.4474
   75SLPC    C3 6688   3.737   2.972   6.667 -0.4208 -0.0473 -0.8057
   75SLPC    HX 6689   3.667   2.896   6.626 -0.7173 -0.0913 -0.2197
   75SLPC    HY 6690   3.740   3.059   6.598 -0.0597  0.4715 -0.1385
   75SLPC   O31 6691   3.709   2.991   6.806  0.2463 -0.4166  0.4772
   75SLPC   C31 6692   3.726   3.114   6.853 -0.3205  0.4117  0.2023
   75SLPC   O32 6693   3.776   3.207   6.794 -0.2316 -0.3881  0.2281
   75SLPC   C32 6694   3.669   3.139   6.997  0.2801 -0.5273 -0.0791
   75SLPC   H2X 6695   3.572   3.189   6.978 -0.4162 -1.1413  1.7384
   75SLPC   H2Y 6696   3.736   3.216   7.040 -3.6406  1.9357  1.8933
   75SLPC   C23 6697   4.167   2.647   6.959  0.0825 -0.2040 -0.2955
   75SLPC   H3R 6698   4.254   2.716   6.962 -1.3292  1.5524  1.7928
   75SLPC   H3S 6699   4.211   2.547   6.940 -1.1584 -1.2620  2.2271
   75SLPC   C24 6700   4.097   2.653   7.093  0.1614 -0.2490  0.9031
   75SLPC   H4R 6701   4.175   2.616   7.163  1.7568 -1.2742 -1.3818
   75SLPC   H4S 6702   4.014   2.578   7.091  0.8154 -0.9606  0.1997
   75SLPC   C25 6703   4.031   2.791   7.123  0.6521  0.6355 -0.4445
   75SLPC   H5R 6704   3.940   2.804   7.061 -1.0245  1.9903  2.1548
   75SLPC   H5S 6705   4.102   2.874   7.105  3.0268 -1.9934 -3.7066
   75SLPC   C26 6706   3.972   2.793   7.263 -0.3147  0.1866 -0.7087
   75SLPC   H6R 6707   3.921   2.694   7.266  1.5541 -0.7845  0.4976
   75SLPC   H6S 6708   3.891   2.867   7.276  1.7958  2.1833  1.4522
   75SLPC   C27 6709   4.082   2.795   7.369 -0.0244  0.1764 -0.7280
   75SLPC   H7R 6710   4.110   2.901   7.386 -1.8655  0.3945  1.0842
   75SLPC   H7S 6711   4.163   2.720   7.358  0.4626  0.4539  0.8494
   75SLPC   C28 6712   4.019   2.786   7.508 -0.2351  1.0477 -0.2430
   75SLPC   H8R 6713   3.923   2.841   7.501 -1.4409 -1.0457 -0.3280
   75SLPC   H8S 6714   4.095   2.839   7.570  0.6395 -0.4912  0.0222
   75SLPC   C29 6715   4.016   2.639   7.550 -0.1037 -0.4438 -0.1628
   75SLPC   H9R 6716   4.019   2.567   7.467  1.4825 -0.7293  0.1271
   75SLPC  C210 6717   4.028   2.597   7.681  0.3448 -0.0145 -0.0509
   75SLPC  H10R 6718   4.028   2.490   7.707  2.7648  0.8381  3.8451
   75SLPC  C211 6719   4.043   2.691   7.803  0.0052  0.6528  1.1466
   75SLPC  H11R 6720   3.942   2.690   7.848  0.7611 -0.4236  2.8496
   75SLPC  H11S 6721   4.066   2.797   7.777  1.7303  0.2765  1.0728
   75SLPC  C212 6722   4.162   2.636   7.877  0.5255  0.4718  0.7715
   75SLPC  H12R 6723   4.248   2.691   7.836 -0.3005  0.7244 -0.6574
   75SLPC  C213 6724   4.171   2.552   7.979 -0.2004  0.6853 -0.0568
   75SLPC  H13R 6725   4.266   2.511   8.015 -0.2343 -0.1799 -0.9317
   75SLPC  C214 6726   4.061   2.470   8.052 -0.1737 -0.0065  0.0621
   75SLPC  H14R 6727   3.962   2.504   8.014  1.0847  2.7716 -0.8186
   75SLPC  H14S 6728   4.065   2.491   8.160 -0.6107  0.2672  0.0256
   75SLPC  C215 6729   4.060   2.318   8.045  0.1592 -0.3880 -0.0595
   75SLPC  H15R 6730   3.971   2.279   8.098  1.1815 -1.4651  0.9072
   75SLPC  H15S 6731   4.153   2.284   8.097  0.6955  2.4663  0.9921
   75SLPC  C216 6732   4.072   2.261   7.898 -0.2854  0.0013 -0.1337
   75SLPC  H16R 6733   4.179   2.268   7.870 -0.1327  3.4951  1.1509
   75SLPC  H16S 6734   4.005   2.318   7.830  1.6477  0.2525 -1.8727
   75SLPC  C217 6735   4.033   2.114   7.889 -0.1828  0.1750 -0.3406
   75SLPC  H17R 6736   4.097   2.056   7.960  0.2368  0.1075 -0.7706
   75SLPC  H17S 6737   4.059   2.076   7.788 -0.0054  1.0992 -0.6471
   75SLPC  C218 6738   3.888   2.075   7.901  0.0462  0.2936 -0.5685
   75SLPC  H18R 6739   3.858   1.973   7.867  1.4997  0.2966 -1.9467
   75SLPC  H18S 6740   3.821   2.138   7.838 -0.3885 -0.2799 -0.6892
   75SLPC  H18T 6741   3.861   2.086   8.008  1.3276 -1.3162 -0.0571
   75SLPC   C33 6742   3.658   3.025   7.096 -0.0790 -0.0449 -0.7164
   75SLPC   H3X 6743   3.585   2.952   7.054 -1.4754  0.6192  0.5157
   75SLPC   H3Y 6744   3.753   2.970   7.114  0.2603 -0.2032 -2.8648
   75SLPC   C34 6745   3.608   3.073   7.230  0.0993 -0.4280  0.0226
   75SLPC   H4X 6746   3.506   3.116   7.221 -0.8613 -2.5205  0.4487
   75SLPC   H4Y 6747   3.681   3.147   7.269  0.2691 -0.4534 -0.2439
   75SLPC   C35 6748   3.589   2.970   7.331 -0.1788 -0.3862  0.8327
   75SLPC   H5X 6749   3.689   2.921   7.329  0.7614  1.5396 -1.0020
   75SLPC   H5Y 6750   3.526   2.887   7.292  2.3651 -1.4466 -1.1569
   75SLPC   C36 6751   3.563   3.026   7.477  0.6475  0.5097  0.0792
   75SLPC   H6X 6752   3.462   3.073   7.479  0.1727 -0.3549 -2.4528
   75SLPC   H6Y 6753   3.644   3.094   7.509  0.6271  0.7552 -0.3899
   75SLPC   C37 6754   3.560   2.916   7.583 -0.4639  0.7673 -0.3669
   75SLPC   H7X 6755   3.656   2.861   7.575  0.0698  1.5850  0.4136
   75SLPC   H7Y 6756   3.473   2.849   7.566 -1.0626  1.1139  1.2318
   75SLPC   C38 6757   3.540   2.963   7.728 -0.4217  1.0325  0.4399
   75SLPC   H8X 6758   3.436   3.002   7.734 -0.3731  0.9260  1.9690
   75SLPC   H8Y 6759   3.619   3.037   7.753  0.0229  0.5848  0.3700
   75SLPC   C39 6760   3.559   2.839   7.824 -0.3538 -0.3086  0.7452
   75SLPC   H9X 6761   3.662   2.805   7.802 -0.2081  0.6724 -0.1176
   75SLPC   H9Y 6762   3.488   2.760   7.792  0.6927 -0.8476 -0.2848
   75SLPC  C310 6763   3.546   2.865   7.981 -0.0984  0.3603 -0.3111
   75SLPC  H10X 6764   3.545   2.770   8.039  0.3921  0.5552  0.0235
   75SLPC  H10Y 6765   3.444   2.908   7.991 -1.1315 -1.2721 -3.3414
   75SLPC  C311 6766   3.653   2.963   8.036  0.9461  0.4446 -0.3758
   75SLPC  H11X 6767   3.656   3.055   7.974  1.0236  0.8431  0.2145
   75SLPC  H11Y 6768   3.755   2.920   8.037  0.4525 -0.7984 -1.2985
   75SLPC  C312 6769   3.616   3.005   8.179 -0.8873 -0.3286  0.3016
   75SLPC  H12X 6770   3.507   3.023   8.192 -1.4303 -3.3272  0.1537
   75SLPC  H12Y 6771   3.684   3.086   8.213 -2.1844  0.7277  0.4168
   75SLPC  C313 6772   3.644   2.885   8.279 -0.5313 -0.5809  0.2783
   75SLPC  H13X 6773   3.739   2.830   8.265 -0.5331 -0.7565  0.9250
   75SLPC  H13Y 6774   3.565   2.807   8.278 -0.9767 -0.1910  2.3452
   75SLPC  C314 6775   3.647   2.934   8.430  0.1467 -0.2888 -1.2557
   75SLPC  H14X 6776   3.547   2.978   8.450 -0.5625 -1.6639 -1.6640
   75SLPC  H14Y 6777   3.717   3.020   8.431 -0.8955  0.5698 -2.0033
   75SLPC  C315 6778   3.683   2.826   8.533 -0.1188 -0.4114 -0.2458
   75SLPC  H15X 6779   3.764   2.763   8.490  1.3855  1.3942 -0.1223
   75SLPC  H15Y 6780   3.608   2.746   8.554 -0.3506 -0.1397 -0.0395
   75SLPC  C316 6781   3.714   2.876   8.673 -0.0782 -0.0581 -0.3956
   75SLPC  H16X 6782   3.619   2.906   8.722  1.4143 -2.0767  4.0361
   75SLPC  H16Y 6783   3.787   2.959   8.678 -0.4439  0.2204  0.4745
   75SLPC  C317 6784   3.774   2.761   8.765  0.0066 -0.1324 -0.2015
   75SLPC  H17X 6785   3.867   2.725   8.716  0.6921  4.2019 -2.3499
   75SLPC  H17Y 6786   3.699   2.679   8.755  2.1074 -1.7674 -3.4697
   75SLPC  C318 6787   3.794   2.793   8.912 -0.5125 -0.1299  0.2330
   75SLPC  H18X 6788   3.701   2.830   8.961 -0.2206 -0.0182  0.7037
   75SLPC  H18Y 6789   3.868   2.875   8.922  0.3624 -0.9504  0.6302
   75SLPC  H18Z 6790   3.831   2.701   8.962  1.1996  1.1816  1.4282
   76SLPC     N 6791   5.433   0.667   6.035  1.1305  0.1663 -0.9534
   76SLPC   C13 6792   5.461   0.639   6.181  0.2749  0.5326  0.3115
   76SLPC  H13A 6793   5.402   0.563   6.230 -0.4558 -0.6314 -2.2864
   76SLPC  H13B 6794   5.568   0.634   6.195  0.2647 -0.5994  0.0339
   76SLPC  H13C 6795   5.433   0.733   6.225 -1.4898  0.3718 -0.4190
   76SLPC   C14 6796   5.437   0.551   5.952 -0.1778 -0.5697 -0.5790
   76SLPC  H14A 6797   5.536   0.511   5.969 -0.9678 -0.9342  3.7225
   76SLPC  H14B 6798   5.367   0.472   5.976 -0.7473  0.1723  0.2077
   76SLPC  H14C 6799   5.435   0.575   5.846  1.4760  4.3272  0.4103
   76SLPC   C15 6800   5.527   0.773   5.986  0.3744  0.2018 -0.3967
   76SLPC  H15A 6801   5.501   0.808   5.887 -0.0194 -1.0685 -0.7439
   76SLPC  H15B 6802   5.523   0.855   6.056  2.3106 -0.9463  1.1035
   76SLPC  H15C 6803   5.626   0.731   5.982  0.6182  0.8286 -1.1234
   76SLPC   C12 6804   5.300   0.737   6.020  0.4084 -0.3232 -0.7646
   76SLPC  H12A 6805   5.272   0.764   5.919 -0.5212 -0.4497 -0.5434
   76SLPC  H12B 6806   5.304   0.833   6.070  0.1707  0.3894 -2.0865
   76SLPC   C11 6807   5.172   0.666   6.066  0.4759  0.5305  0.4114
   76SLPC  H11A 6808   5.194   0.559   6.040 -1.2533  0.6745 -1.7560
   76SLPC  H11B 6809   5.084   0.705   6.012 -0.6131  0.0997  1.8530
   76SLPC     P 6810   5.124   0.549   6.307  0.1259 -0.1207 -0.2474
   76SLPC   O13 6811   5.046   0.443   6.234 -0.1761 -0.8078 -0.4494
   76SLPC   O14 6812   5.250   0.508   6.372 -0.1166  0.0453 -0.5272
   76SLPC   O12 6813   5.154   0.671   6.211  0.2250 -0.4585 -0.2225
   76SLPC   O11 6814   5.030   0.613   6.413  0.3167  0.0677 -0.4727
   76SLPC    C1 6815   5.021   0.755   6.416  0.1205 -0.6355  0.4301
   76SLPC    HA 6816   5.024   0.803   6.316 -1.8573  0.5619  0.9085
   76SLPC    HB 6817   4.922   0.782   6.460 -0.3823 -2.4703  0.4811
   76SLPC    C2 6818   5.119   0.818   6.517  0.0262 -0.5166  1.0411
   76SLPC    HS 6819   5.216   0.774   6.486  0.6366  0.3225  1.7385
   76SLPC   O21 6820   5.076   0.780   6.650  0.2180  0.0178  0.1490
   76SLPC   C21 6821   5.173   0.745   6.731 -0.2654  0.3002 -0.1451
   76SLPC   O22 6822   5.287   0.714   6.697 -0.3064 -0.1505 -0.3670
   76SLPC   C22 6823   5.129   0.792   6.866 -0.3844 -0.0041 -0.0419
   76SLPC   H2R 6824   5.112   0.902   6.871 -0.3205 -0.0003  0.1049
   76SLPC   H2S 6825   5.025   0.755   6.880 -1.3966  3.1820  1.2408
   76SLPC    C3 6826   5.115   0.978   6.490  0.2397 -0.1632 -0.0450
   76SLPC    HX 6827   5.006   0.998   6.497 -0.0906 -1.4987 -1.1831
   76SLPC    HY 6828   5.137   0.996   6.383  2.1523  0.6002  0.4702
   76SLPC   O31 6829   5.198   1.045   6.585 -0.1340  0.0485  0.2100
   76SLPC   C31 6830   5.320   1.048   6.543 -0.8543  0.1631 -0.3438
   76SLPC   O32 6831   5.362   1.010   6.437  0.5528  0.0712 -0.0123
   76SLPC   C32 6832   5.406   1.119   6.650  0.3848 -0.1439  0.1284
   76SLPC   H2X 6833   5.350   1.204   6.694  2.6496  1.3720  0.1641
   76SLPC   H2Y 6834   5.491   1.159   6.591  1.5129  2.3991  3.3439
   76SLPC   C23 6835   5.210   0.744   6.988  0.1811 -0.5697  0.2170
   76SLPC   H3R 6836   5.313   0.784   6.981 -1.3355  3.3669 -0.6989
   76SLPC   H3S 6837   5.218   0.633   6.985  0.9793 -0.5607  1.8994
   76SLPC   C24 6838   5.162   0.775   7.129  0.1435  0.3610  0.7639
   76SLPC   H4R 6839   5.057   0.740   7.144  1.0365 -1.6492  2.4097
   76SLPC   H4S 6840   5.139   0.884   7.119 -2.2640 -0.2728 -1.3253
   76SLPC   C25 6841   5.248   0.725   7.247  0.1444 -0.0083  0.3418
   76SLPC   H5R 6842   5.356   0.745   7.230 -0.2866  1.1921 -1.1791
   76SLPC   H5S 6843   5.252   0.614   7.253  0.8627  0.1323  3.0701
   76SLPC   C26 6844   5.190   0.777   7.378  0.1856  0.6678  0.6537
   76SLPC   H6R 6845   5.089   0.732   7.395 -0.6077  0.8154 -3.1093
   76SLPC   H6S 6846   5.182   0.888   7.377  0.0112  0.6557 -0.3319
   76SLPC   C27 6847   5.270   0.714   7.491  0.4794  0.5981 -0.3049
   76SLPC   H7R 6848   5.376   0.729   7.463  1.0919 -2.5013  0.1996
   76SLPC   H7S 6849   5.243   0.606   7.489  1.0745  0.4466 -4.1933
   76SLPC   C28 6850   5.232   0.776   7.620 -0.0041 -0.1838 -0.7216
   76SLPC   H8R 6851   5.243   0.885   7.601  0.3671 -0.3479 -1.5058
   76SLPC   H8S 6852   5.123   0.758   7.630 -0.1140  0.4037 -0.8214
   76SLPC   C29 6853   5.314   0.730   7.743  0.0149  0.2804 -0.2585
   76SLPC   H9R 6854   5.414   0.688   7.722  0.8555  2.1442 -0.1130
   76SLPC  C210 6855   5.274   0.730   7.867  0.0042  0.7535 -0.4022
   76SLPC  H10R 6856   5.337   0.673   7.937 -0.2513 -2.1087 -2.4146
   76SLPC  C211 6857   5.137   0.775   7.912 -0.2933 -0.2591 -0.7211
   76SLPC  H11R 6858   5.072   0.688   7.892 -0.2187 -0.4291 -0.2123
   76SLPC  H11S 6859   5.107   0.865   7.853  0.7589  0.3812 -0.2972
   76SLPC  C212 6860   5.117   0.810   8.058  0.1775 -0.4288 -0.0875
   76SLPC  H12R 6861   5.096   0.714   8.108 -1.1752 -1.0630 -1.8270
   76SLPC  C213 6862   5.117   0.930   8.124  0.2408 -0.1249 -0.6626
   76SLPC  H13R 6863   5.094   0.931   8.231  1.1970  1.7730 -0.4588
   76SLPC  C214 6864   5.128   1.063   8.061  0.4139 -0.1343  0.2596
   76SLPC  H14R 6865   5.135   1.058   7.951  0.0410  0.9189  0.1860
   76SLPC  H14S 6866   5.220   1.109   8.102  0.9212 -1.5913  0.7922
   76SLPC  C215 6867   5.009   1.154   8.097 -0.5778  0.0247 -0.1984
   76SLPC  H15R 6868   5.022   1.237   8.024 -0.7654 -0.0573 -0.3263
   76SLPC  H15S 6869   5.017   1.188   8.202  0.0078 -1.2102  0.1660
   76SLPC  C216 6870   4.865   1.101   8.071 -0.8444 -0.1488  0.7159
   76SLPC  H16R 6871   4.871   0.996   8.107  2.0509  0.1181  1.1735
   76SLPC  H16S 6872   4.849   1.104   7.961  0.1076 -2.7296  0.4879
   76SLPC  C217 6873   4.769   1.184   8.140  0.0489  0.2239  0.5026
   76SLPC  H17R 6874   4.673   1.163   8.088 -0.0141 -1.1300  1.1447
   76SLPC  H17S 6875   4.787   1.293   8.132  1.3932 -0.0644 -0.6585
   76SLPC  C218 6876   4.761   1.144   8.284  0.1393  0.2786  0.5497
   76SLPC  H18R 6877   4.697   1.222   8.331  0.6323  1.3029 -0.4723
   76SLPC  H18S 6878   4.860   1.150   8.333  0.9257  1.6677 -1.1594
   76SLPC  H18T 6879   4.727   1.038   8.293  0.3245  0.3932  2.9472
   76SLPC   C33 6880   5.448   1.033   6.769  0.3440  0.8765  0.5198
   76SLPC   H3X 6881   5.527   0.957   6.751  0.3483  0.9261  0.3353
   76SLPC   H3Y 6882   5.363   0.974   6.811  0.7644 -1.0058 -1.2241
   76SLPC   C34 6883   5.486   1.114   6.892 -0.2352  0.6739 -0.1102
   76SLPC   H4X 6884   5.416   1.198   6.907 -1.8243 -0.5882 -0.3693
   76SLPC   H4Y 6885   5.579   1.172   6.875 -0.0202  0.6948  1.1122
   76SLPC   C35 6886   5.502   1.017   7.008  0.1910 -0.8795 -0.1489
   76SLPC   H5X 6887   5.577   0.949   6.963  0.6116  0.4058 -1.4346
   76SLPC   H5Y 6888   5.406   0.962   7.021 -1.0537  0.6090 -2.5913
   76SLPC   C36 6889   5.561   1.080   7.132 -0.0141  0.8746 -0.0549
   76SLPC   H6X 6890   5.516   1.174   7.170  0.5938  0.5779  1.4485
   76SLPC   H6Y 6891   5.672   1.091   7.132 -0.0354  1.0790 -1.0210
   76SLPC   C37 6892   5.535   0.991   7.257  0.2346 -0.6329  0.0462
   76SLPC   H7X 6893   5.426   0.969   7.256  0.2270 -0.6038 -1.2328
   76SLPC   H7Y 6894   5.565   1.057   7.341  0.6940 -0.0617 -0.5632
   76SLPC   C38 6895   5.631   0.870   7.247  0.2339 -0.3050  0.0027
   76SLPC   H8X 6896   5.731   0.892   7.204 -0.5645  0.0985 -1.7136
   76SLPC   H8Y 6897   5.583   0.793   7.182 -0.8745 -1.8068  2.5349
   76SLPC   C39 6898   5.663   0.798   7.384 -0.0116  0.2784  0.1516
   76SLPC   H9X 6899   5.751   0.734   7.361  1.1178  1.6349  0.5917
   76SLPC   H9Y 6900   5.579   0.733   7.416  1.1111 -0.2737  2.1081
   76SLPC  C310 6901   5.701   0.892   7.502  0.1172  0.1006  0.8821
   76SLPC  H10X 6902   5.689   0.839   7.599 -0.3478 -0.2742  0.6240
   76SLPC  H10Y 6903   5.643   0.986   7.513 -0.0424 -0.2644  3.4202
   76SLPC  C311 6904   5.852   0.937   7.490  0.5422 -0.8354 -0.5703
   76SLPC  H11X 6905   5.873   0.987   7.393  0.3985  1.9903  0.8039
   76SLPC  H11Y 6906   5.908   0.842   7.497  0.0977 -1.2483 -2.2482
   76SLPC  C312 6907   5.892   1.039   7.602  0.1713 -0.7287  0.0278
   76SLPC  H12X 6908   5.810   1.113   7.608  1.2154  0.3617  1.2646
   76SLPC  H12Y 6909   5.987   1.087   7.570 -1.8564  2.1801 -1.7968
   76SLPC  C313 6910   5.897   0.971   7.741 -0.3708 -0.2223  0.0852
   76SLPC  H13X 6911   5.975   0.891   7.738  0.7009  0.8492 -1.6098
   76SLPC  H13Y 6912   5.798   0.927   7.764 -1.5754  2.3401 -0.0386
   76SLPC  C314 6913   5.958   1.061   7.852 -0.5985 -0.1064  0.1765
   76SLPC  H14X 6914   5.880   1.139   7.861 -1.1171 -0.5909 -0.1117
   76SLPC  H14Y 6915   6.057   1.095   7.813  0.0622 -2.1115  0.0493
   76SLPC  C315 6916   5.970   0.999   7.987  0.0751  0.1834  0.3226
   76SLPC  H15X 6917   6.052   1.049   8.043 -0.3298  0.8321  0.3446
   76SLPC  H15Y 6918   5.989   0.890   7.992 -2.6094 -0.3164  0.0915
   76SLPC  C316 6919   5.841   1.023   8.077  0.7631 -0.1760 -0.1525
   76SLPC  H16X 6920   5.761   0.984   8.012  0.2186  2.3614 -1.0822
   76SLPC  H16Y 6921   5.830   1.132   8.098  1.3273 -0.2703  0.6764
   76SLPC  C317 6922   5.850   0.938   8.210 -0.5009 -0.3010  1.0878
   76SLPC  H17X 6923   5.900   0.843   8.181 -3.4415 -1.0576 -1.8773
   76SLPC  H17Y 6924   5.749   0.935   8.257 -1.9272 -0.0414 -1.8334
   76SLPC  C318 6925   5.943   1.014   8.309 -0.1420  0.2424 -0.4469
   76SLPC  H18X 6926   6.050   0.988   8.294 -0.5068 -2.3962  1.2580
   76SLPC  H18Y 6927   5.912   0.987   8.412 -1.3869  3.2635  0.0487
   76SLPC  H18Z 6928   5.934   1.124   8.296  0.2527  0.4000  0.5745
   77SLPC     N 6929   2.160   1.371   6.457 -0.0208  0.1999 -0.2314
   77SLPC   C13 6930   2.074   1.459   6.546 -0.5136 -0.2724  0.2212
   77SLPC  H13A 6931   2.045   1.545   6.488  1.3821 -0.7737 -1.5290
   77SLPC  H13B 6932   1.981   1.415   6.577 -1.2023  0.9049 -0.1493
   77SLPC  H13C 6933   2.131   1.494   6.631 -2.3210  1.0543  0.9081
   77SLPC   C14 6934   2.272   1.448   6.407  0.5203 -0.1380 -0.2052
   77SLPC  H14A 6935   2.235   1.517   6.333  0.5291 -1.6425 -1.6485
   77SLPC  H14B 6936   2.325   1.496   6.488  0.3869 -1.6436  0.8062
   77SLPC  H14C 6937   2.342   1.392   6.346  0.5638 -2.0905  1.5805
   77SLPC   C15 6938   2.068   1.321   6.338 -0.3080 -0.0196  0.3751
   77SLPC  H15A 6939   1.995   1.249   6.373 -1.8674  0.5692 -1.5454
   77SLPC  H15B 6940   2.008   1.403   6.301  1.6778  1.0881 -0.4554
   77SLPC  H15C 6941   2.131   1.285   6.258 -1.0135 -0.3518 -0.0364
   77SLPC   C12 6942   2.220   1.250   6.533 -0.5182 -0.7124  0.6990
   77SLPC  H12A 6943   2.298   1.293   6.593  0.1963 -3.4231  1.7982
   77SLPC  H12B 6944   2.274   1.196   6.456  0.5389  1.4522 -0.1019
   77SLPC   C11 6945   2.120   1.176   6.623 -0.1416 -0.2157  0.3289
   77SLPC  H11A 6946   2.059   1.242   6.689  1.0432 -0.0565  1.2971
   77SLPC  H11B 6947   2.170   1.103   6.690 -1.4917 -3.0152 -1.6005
   77SLPC     P 6948   2.055   0.980   6.461 -0.3153 -0.4472 -0.0357
   77SLPC   O13 6949   1.928   0.924   6.413 -0.2059 -0.0550  0.4773
   77SLPC   O14 6950   2.151   1.013   6.350  0.1519 -0.1558  0.5023
   77SLPC   O12 6951   2.020   1.108   6.538 -0.4473  0.9668  0.0059
   77SLPC   O11 6952   2.123   0.900   6.582 -0.2829  0.7486  0.0844
   77SLPC    C1 6953   2.041   0.794   6.653 -0.7160 -0.0496  0.1215
   77SLPC    HA 6954   1.982   0.723   6.591 -0.4686 -0.6586  0.5770
   77SLPC    HB 6955   2.118   0.721   6.685 -1.0654 -0.9293 -1.0076
   77SLPC    C2 6956   1.960   0.842   6.779 -0.7715 -0.4539 -0.5022
   77SLPC    HS 6957   1.877   0.901   6.736 -1.4739 -0.5290  0.7234
   77SLPC   O21 6958   2.056   0.924   6.851  0.1951  0.6433 -0.1960
   77SLPC   C21 6959   1.993   1.002   6.943 -0.2054  0.7278 -0.4418
   77SLPC   O22 6960   1.869   1.011   6.954 -0.0568  0.1187  0.1683
   77SLPC   C22 6961   2.087   1.083   7.027 -0.1735  0.5559  0.5477
   77SLPC   H2R 6962   2.193   1.073   6.994 -0.9448 -2.1773 -1.2953
   77SLPC   H2S 6963   2.056   1.188   7.005  1.7474  0.8293 -1.1491
   77SLPC    C3 6964   1.905   0.727   6.867  0.0326  0.5855 -0.2355
   77SLPC    HX 6965   1.991   0.670   6.907 -0.3104  0.5010  0.3895
   77SLPC    HY 6966   1.848   0.658   6.801 -0.4135  0.8361 -0.1168
   77SLPC   O31 6967   1.819   0.758   6.983 -0.0174  0.2843  0.0292
   77SLPC   C31 6968   1.691   0.789   6.951  0.0332  0.3372 -0.0634
   77SLPC   O32 6969   1.642   0.771   6.839  0.6198 -0.1141  0.1209
   77SLPC   C32 6970   1.619   0.848   7.071 -0.0282 -0.6135  0.3374
   77SLPC   H2X 6971   1.515   0.869   7.038 -0.2863  0.9328  2.0502
   77SLPC   H2Y 6972   1.664   0.947   7.093  0.6107 -0.6364 -0.8128
   77SLPC   C23 6973   2.072   1.043   7.176  0.6615 -0.3442  0.1227
   77SLPC   H3R 6974   2.070   0.933   7.190 -1.4084 -0.2108  1.0511
   77SLPC   H3S 6975   1.984   1.095   7.220  1.8954  1.2435  0.7397
   77SLPC   C24 6976   2.192   1.097   7.255  0.4723  0.5431  0.6337
   77SLPC   H4R 6977   2.167   1.122   7.361  0.3249  0.2722  0.6613
   77SLPC   H4S 6978   2.212   1.195   7.206 -1.2394  1.0139  0.8479
   77SLPC   C25 6979   2.322   1.013   7.244  0.8213 -0.5450 -0.2858
   77SLPC   H5R 6980   2.397   1.061   7.311 -1.2369  0.0945  1.6574
   77SLPC   H5S 6981   2.361   1.014   7.140 -2.4892 -0.6539 -1.6154
   77SLPC   C26 6982   2.299   0.868   7.289  0.1759  0.1494 -0.3606
   77SLPC   H6R 6983   2.395   0.813   7.290 -1.1059 -2.1637 -0.1588
   77SLPC   H6S 6984   2.240   0.811   7.213  0.6625 -0.1876 -0.4878
   77SLPC   C27 6985   2.255   0.854   7.427  0.0089 -0.6656  0.6639
   77SLPC   H7R 6986   2.153   0.897   7.426  0.9394  1.5634 -0.1948
   77SLPC   H7S 6987   2.316   0.912   7.499  0.3136  0.8870 -0.8072
   77SLPC   C28 6988   2.236   0.707   7.461  0.1318 -0.3895 -0.0971
   77SLPC   H8R 6989   2.210   0.707   7.569 -0.4634 -1.7141 -0.2380
   77SLPC   H8S 6990   2.332   0.652   7.452 -0.0501 -1.1706  2.4644
   77SLPC   C29 6991   2.130   0.652   7.363  0.0165 -0.2639 -0.4692
   77SLPC   H9R 6992   2.173   0.625   7.265 -0.6249  2.7229 -1.6184
   77SLPC  C210 6993   1.997   0.645   7.375  0.8828  0.6599  0.4347
   77SLPC  H10R 6994   1.942   0.588   7.299 -0.2036  2.6008 -0.2640
   77SLPC  C211 6995   1.914   0.694   7.491  0.8575 -0.1549 -0.1277
   77SLPC  H11R 6996   1.822   0.736   7.445 -0.1497 -3.2023 -1.0594
   77SLPC  H11S 6997   1.957   0.780   7.546  1.7773 -1.4359  1.1747
   77SLPC  C212 6998   1.891   0.579   7.587  0.6805  0.1369  0.1456
   77SLPC  H12R 6999   1.986   0.551   7.633 -0.4662 -2.6082  0.9441
   77SLPC  C213 7000   1.786   0.511   7.628  0.5296 -0.1912 -0.1835
   77SLPC  H13R 7001   1.805   0.437   7.707  2.1649 -1.4197 -1.7048
   77SLPC  C214 7002   1.643   0.525   7.581  0.1230 -0.4746  0.1157
   77SLPC  H14R 7003   1.647   0.589   7.490 -0.2896  0.8014  0.9838
   77SLPC  H14S 7004   1.578   0.577   7.654 -0.8100 -2.4946  0.7687
   77SLPC  C215 7005   1.589   0.387   7.544 -0.6167 -0.4247 -0.7090
   77SLPC  H15R 7006   1.583   0.336   7.643  0.5089  1.4767  0.3809
   77SLPC  H15S 7007   1.661   0.324   7.487 -0.8759 -0.0594 -1.4448
   77SLPC  C216 7008   1.449   0.375   7.475 -0.4557  0.2944  0.2051
   77SLPC  H16R 7009   1.419   0.270   7.493  1.6410 -0.1465  1.1526
   77SLPC  H16S 7010   1.437   0.401   7.367 -2.1873 -0.7479  0.1190
   77SLPC  C217 7011   1.346   0.456   7.542  0.4909  0.0639 -0.8426
   77SLPC  H17R 7012   1.349   0.565   7.522  0.3137  0.3962  0.9406
   77SLPC  H17S 7013   1.362   0.433   7.649 -0.9535  0.9229 -0.4209
   77SLPC  C218 7014   1.207   0.407   7.510 -0.3199 -1.1101 -0.2082
   77SLPC  H18R 7015   1.131   0.465   7.567 -0.1446  0.8723 -1.9074
   77SLPC  H18S 7016   1.187   0.303   7.543  2.1939 -1.3905  0.4799
   77SLPC  H18T 7017   1.179   0.416   7.403 -2.5456 -0.6692  0.3876
   77SLPC   C33 7018   1.622   0.748   7.191  0.0828  0.1862 -0.2919
   77SLPC   H3X 7019   1.584   0.807   7.277  0.3982 -0.1392  0.0763
   77SLPC   H3Y 7020   1.722   0.716   7.229 -0.3456  2.3842  2.9494
   77SLPC   C34 7021   1.533   0.617   7.188  0.4687 -0.8718 -0.0933
   77SLPC   H4X 7022   1.509   0.594   7.294 -2.3462 -0.4343 -0.5906
   77SLPC   H4Y 7023   1.602   0.542   7.145  0.9155 -2.7312  3.6756
   77SLPC   C35 7024   1.400   0.637   7.112  0.6535  1.1471  0.5042
   77SLPC   H5X 7025   1.402   0.676   7.008 -2.8428 -1.5767 -0.6880
   77SLPC   H5Y 7026   1.345   0.721   7.159 -0.4418  0.9050 -0.3257
   77SLPC   C36 7027   1.311   0.509   7.116 -0.3523  0.1175  0.1038
   77SLPC   H6X 7028   1.318   0.450   7.210 -2.7667 -0.0020  0.2544
   77SLPC   H6Y 7029   1.352   0.445   7.034  1.4247 -0.8265  1.7051
   77SLPC   C37 7030   1.167   0.548   7.077  0.0675 -0.8915 -0.5849
   77SLPC   H7X 7031   1.172   0.612   6.987 -1.4915 -0.1597 -0.1627
   77SLPC   H7Y 7032   1.125   0.610   7.160  1.7244 -2.5162  1.5292
   77SLPC   C38 7033   1.071   0.435   7.055  0.4494  0.3040 -0.0763
   77SLPC   H8X 7034   1.072   0.376   7.149 -1.9268  1.7126  0.8589
   77SLPC   H8Y 7035   1.101   0.368   6.971 -1.6116 -0.8817  0.0953
   77SLPC   C39 7036   0.929   0.469   7.024 -0.5762  0.6800  0.3155
   77SLPC   H9X 7037   0.915   0.537   6.937  0.6120 -1.3312 -1.4896
   77SLPC   H9Y 7038   0.874   0.530   7.099 -0.4921  0.6176  0.4276
   77SLPC  C310 7039   0.857   0.337   6.973 -1.0425 -0.6828 -0.4151
   77SLPC  H10X 7040   0.917   0.312   6.883 -2.3988 -1.8105 -1.0235
   77SLPC  H10Y 7041   0.757   0.367   6.936 -1.1096 -0.7208 -0.2648
   77SLPC  C311 7042   0.837   0.218   7.065 -0.6509 -0.5368 -0.0674
   77SLPC  H11X 7043   0.934   0.184   7.108 -0.3146  0.0381 -0.3697
   77SLPC  H11Y 7044   0.791   0.129   7.017 -0.9300 -0.8153  0.6988
   77SLPC  C312 7045   0.744   0.251   7.183  0.5226  0.2312 -0.6780
   77SLPC  H12X 7046   0.643   0.280   7.149  0.6311 -0.3812 -1.5182
   77SLPC  H12Y 7047   0.778   0.341   7.239 -1.6235  0.3887  0.4139
   77SLPC  C313 7048   0.745   0.137   7.287 -0.9215 -0.0690 -0.9321
   77SLPC  H13X 7049   0.849   0.115   7.317 -0.7626 -0.5420 -1.8229
   77SLPC  H13Y 7050   0.698   0.048   7.240 -1.9196 -0.1437  0.1864
   77SLPC  C314 7051   0.668   0.175   7.417 -0.8185  0.8080  0.3562
   77SLPC  H14X 7052   0.631   0.083   7.468 -1.1605  0.9845  0.4275
   77SLPC  H14Y 7053   0.583   0.244   7.395 -1.0755  0.3402 -0.1461
   77SLPC  C315 7054   0.757   0.248   7.523 -0.1663 -0.3259 -0.0312
   77SLPC  H15X 7055   0.799   0.342   7.481  0.9857 -0.1882  1.3810
   77SLPC  H15Y 7056   0.845   0.183   7.543 -1.5857 -1.5452  2.3893
   77SLPC  C316 7057   0.680   0.285   7.654  0.4294 -0.5903 -0.7104
   77SLPC  H16X 7058   0.609   0.209   7.692 -1.3933  2.4823  2.3401
   77SLPC  H16Y 7059   0.609   0.364   7.620  1.2665 -0.8347 -3.0758
   77SLPC  C317 7060   0.769   0.339   7.769 -0.0867  0.0041  0.4489
   77SLPC  H17X 7061   0.712   0.407   7.836 -1.9852 -2.0212  0.9459
   77SLPC  H17Y 7062   0.844   0.402   7.717 -0.8267  0.4481 -0.0825
   77SLPC  C318 7063   0.830   0.224   7.843  0.0090 -0.2610  0.3300
   77SLPC  H18X 7064   0.748   0.169   7.893  0.3707  1.7404  3.2060
   77SLPC  H18Y 7065   0.921   0.244   7.904  3.3750 -3.3533 -3.3702
   77SLPC  H18Z 7066   0.876   0.153   7.771  1.6939 -0.0411  1.1634
   78SLPC     N 7067   4.324   1.692   5.781  0.0665  0.3205 -0.4341
   78SLPC   C13 7068   4.187   1.649   5.816 -0.2116 -0.1892 -0.9392
   78SLPC  H13A 7069   4.173   1.715   5.900 -1.2454  2.1074 -2.8603
   78SLPC  H13B 7070   4.116   1.663   5.735  0.7459 -1.7481 -2.0712
   78SLPC  H13C 7071   4.176   1.546   5.846 -1.9925  0.4494  0.7619
   78SLPC   C14 7072   4.336   1.839   5.751 -0.1419 -0.0328  0.6826
   78SLPC  H14A 7073   4.271   1.870   5.670  1.5729  1.3061 -0.2020
   78SLPC  H14B 7074   4.324   1.900   5.839  1.4262  2.2632 -0.6446
   78SLPC  H14C 7075   4.431   1.871   5.711 -0.3563 -1.3838 -1.0041
   78SLPC   C15 7076   4.356   1.632   5.649  0.0730  0.2343 -1.3211
   78SLPC  H15A 7077   4.346   1.525   5.650  0.8862  0.1510 -1.6418
   78SLPC  H15B 7078   4.300   1.666   5.563 -0.5567 -0.2476 -1.0957
   78SLPC  H15C 7079   4.460   1.653   5.625 -1.1313  4.0146 -3.6775
   78SLPC   C12 7080   4.417   1.647   5.894 -0.1109 -0.9892  0.0045
   78SLPC  H12A 7081   4.517   1.678   5.868 -0.3538  1.5373  1.9203
   78SLPC  H12B 7082   4.421   1.540   5.910 -3.1949 -1.1945 -0.3407
   78SLPC   C11 7083   4.403   1.711   6.039 -0.0496  0.5837 -0.9872
   78SLPC  H11A 7084   4.485   1.655   6.089 -1.4492 -1.1328 -0.5942
   78SLPC  H11B 7085   4.311   1.674   6.089 -0.4219  0.8785 -1.4441
   78SLPC     P 7086   4.554   1.919   6.095 -0.0507  0.2056  0.3036
   78SLPC   O13 7087   4.670   1.851   6.040 -0.6509  0.0742  0.7490
   78SLPC   O14 7088   4.542   2.063   6.069 -0.0665  0.2154 -0.9005
   78SLPC   O12 7089   4.426   1.855   6.036 -0.1236 -0.0005  0.2943
   78SLPC   O11 7090   4.539   1.905   6.251  0.3703  0.0369  0.7586
   78SLPC    C1 7091   4.419   1.949   6.315 -0.0316  0.6525  0.8942
   78SLPC    HA 7092   4.421   2.058   6.335 -0.0021  0.7185  0.5261
   78SLPC    HB 7093   4.331   1.931   6.250  0.1522 -0.2575  0.8881
   78SLPC    C2 7094   4.383   1.862   6.449  0.1263 -0.2140  0.1677
   78SLPC    HS 7095   4.272   1.865   6.459 -0.0698  1.8287 -2.2831
   78SLPC   O21 7096   4.455   1.904   6.569  0.4387  0.3742 -0.2419
   78SLPC   C21 7097   4.403   2.011   6.619  0.1501 -0.9077 -0.6022
   78SLPC   O22 7098   4.302   2.064   6.577  0.0042 -0.1267 -0.2796
   78SLPC   C22 7099   4.492   2.076   6.730 -0.5025  0.1143 -0.3486
   78SLPC   H2R 7100   4.564   2.004   6.774 -1.5924 -0.7452  0.0381
   78SLPC   H2S 7101   4.554   2.155   6.683  0.9171 -0.9410 -0.2613
   78SLPC    C3 7102   4.420   1.715   6.410 -0.0005 -0.1535 -0.0127
   78SLPC    HX 7103   4.531   1.716   6.401 -0.0096  0.1505 -0.0847
   78SLPC    HY 7104   4.392   1.692   6.305 -0.3581 -0.6162  0.1830
   78SLPC   O31 7105   4.373   1.614   6.500 -0.7345  0.0949  0.7640
   78SLPC   C31 7106   4.240   1.591   6.512  0.3010  0.2631  0.2229
   78SLPC   O32 7107   4.150   1.638   6.447 -0.4278  0.2408 -0.1033
   78SLPC   C32 7108   4.219   1.468   6.591 -0.7724 -0.1459  0.4000
   78SLPC   H2X 7109   4.274   1.387   6.539  0.7905 -1.2243  3.6385
   78SLPC   H2Y 7110   4.109   1.454   6.587 -0.6490 -0.8254 -0.9516
   78SLPC   C23 7111   4.405   2.125   6.846  0.0389 -0.3086 -0.2797
   78SLPC   H3R 7112   4.336   2.041   6.867 -1.0823  0.5658 -0.4509
   78SLPC   H3S 7113   4.346   2.216   6.821  1.0003  1.5504  3.8978
   78SLPC   C24 7114   4.484   2.175   6.973  0.8959 -0.3245  0.5864
   78SLPC   H4R 7115   4.553   2.251   6.929 -1.1472  1.8492  1.0640
   78SLPC   H4S 7116   4.544   2.097   7.024  0.8876 -2.0735 -1.9899
   78SLPC   C25 7117   4.386   2.246   7.069 -0.2216  0.1140  0.1367
   78SLPC   H5R 7118   4.314   2.168   7.103  0.9319 -0.7961  0.5191
   78SLPC   H5S 7119   4.336   2.331   7.018  0.7431 -0.1647 -1.3118
   78SLPC   C26 7120   4.463   2.300   7.188 -0.0805  0.2530 -0.4355
   78SLPC   H6R 7121   4.527   2.380   7.146  0.7284 -1.4205 -2.4560
   78SLPC   H6S 7122   4.530   2.225   7.234  0.3324  1.8257  1.5884
   78SLPC   C27 7123   4.382   2.351   7.310 -0.6352 -0.9763  0.0933
   78SLPC   H7R 7124   4.298   2.278   7.320 -3.8826  2.7724  1.1996
   78SLPC   H7S 7125   4.329   2.446   7.290  0.5458 -0.1081  1.0236
   78SLPC   C28 7126   4.470   2.368   7.435  0.2113  0.4795  0.1033
   78SLPC   H8R 7127   4.540   2.449   7.406 -1.8351  2.2309 -0.0043
   78SLPC   H8S 7128   4.528   2.276   7.459 -0.5900  0.7320  3.2564
   78SLPC   C29 7129   4.401   2.405   7.559  0.5338  0.1354  0.4213
   78SLPC   H9R 7130   4.345   2.499   7.548  0.2568 -0.0025  0.6508
   78SLPC  C210 7131   4.386   2.344   7.675  0.2122 -0.1674  0.1245
   78SLPC  H10R 7132   4.343   2.406   7.754  0.5503 -2.3575  2.0993
   78SLPC  C211 7133   4.450   2.206   7.715  0.9588 -0.2264  0.5350
   78SLPC  H11R 7134   4.452   2.141   7.626 -1.3276  1.2892 -0.6797
   78SLPC  H11S 7135   4.386   2.156   7.791  0.1047 -0.3038 -0.2177
   78SLPC  C212 7136   4.592   2.227   7.755  0.7565  0.0687 -0.5618
   78SLPC  H12R 7137   4.659   2.240   7.669 -0.2948  0.3759 -1.3378
   78SLPC  C213 7138   4.651   2.231   7.879 -0.2800  0.0469  1.0034
   78SLPC  H13R 7139   4.761   2.231   7.885 -0.3249 -0.0021  1.8316
   78SLPC  C214 7140   4.577   2.200   8.011  0.8384 -0.5886 -0.9958
   78SLPC  H14R 7141   4.604   2.105   8.060 -2.3330 -0.5673  0.9224
   78SLPC  H14S 7142   4.467   2.193   8.001  0.7718  0.9268 -1.4896
   78SLPC  C215 7143   4.612   2.303   8.124 -0.3246  1.2881  0.0837
   78SLPC  H15R 7144   4.577   2.403   8.091 -1.6042  1.0675  0.7404
   78SLPC  H15S 7145   4.723   2.310   8.131 -0.0855 -0.7178 -1.1579
   78SLPC  C216 7146   4.561   2.257   8.268 -0.1042  0.2598 -0.6900
   78SLPC  H16R 7147   4.620   2.321   8.336  1.6604  0.6855 -2.5601
   78SLPC  H16S 7148   4.598   2.156   8.295 -3.2365 -0.9859 -0.8147
   78SLPC  C217 7149   4.405   2.259   8.278 -0.6547  0.8581 -0.0809
   78SLPC  H17R 7150   4.375   2.162   8.234  0.0680  1.7742 -2.6913
   78SLPC  H17S 7151   4.364   2.343   8.218 -0.0493  0.9502 -0.3723
   78SLPC  C218 7152   4.363   2.264   8.424 -0.2161 -0.1368 -0.2402
   78SLPC  H18R 7153   4.256   2.292   8.433 -0.2486 -0.8986  2.1498
   78SLPC  H18S 7154   4.424   2.330   8.489 -1.5310  0.8213  0.0416
   78SLPC  H18T 7155   4.373   2.162   8.467 -1.1282  0.6377  1.8685
   78SLPC   C33 7156   4.289   1.465   6.729 -0.0260  0.1694 -0.3889
   78SLPC   H3X 7157   4.261   1.550   6.794 -1.4575 -0.0374 -0.7080
   78SLPC   H3Y 7158   4.399   1.475   6.716  0.3312 -1.8562  0.9197
   78SLPC   C34 7159   4.270   1.334   6.805  0.2680 -0.6943  0.6808
   78SLPC   H4X 7160   4.305   1.249   6.742 -0.1065 -0.3991  0.0701
   78SLPC   H4Y 7161   4.165   1.322   6.839 -0.2267 -0.8597 -0.8420
   78SLPC   C35 7162   4.358   1.334   6.934 -0.4800  0.4818  0.0302
   78SLPC   H5X 7163   4.366   1.431   6.988  2.8641  0.5552 -0.4711
   78SLPC   H5Y 7164   4.464   1.308   6.913 -0.7588 -1.7598  1.2962
   78SLPC   C36 7165   4.321   1.221   7.034  0.6781 -0.8734 -0.2280
   78SLPC   H6X 7166   4.320   1.117   6.995  0.4553 -0.8051 -0.4030
   78SLPC   H6Y 7167   4.222   1.251   7.073  0.3006 -0.8127 -1.2054
   78SLPC   C37 7168   4.399   1.222   7.167  0.7197  0.2446 -0.1093
   78SLPC   H7X 7169   4.491   1.271   7.129  0.5445  0.9135  0.3084
   78SLPC   H7Y 7170   4.440   1.120   7.182 -2.5983 -0.8726  2.0556
   78SLPC   C38 7171   4.347   1.303   7.284  0.2173 -0.0497 -0.1520
   78SLPC   H8X 7172   4.250   1.259   7.316 -0.2771  0.8957 -0.3416
   78SLPC   H8Y 7173   4.333   1.409   7.252 -0.5581 -0.0473  0.1740
   78SLPC   C39 7174   4.443   1.293   7.404 -0.4633 -0.0066  0.1416
   78SLPC   H9X 7175   4.537   1.346   7.380  0.3327 -1.7473 -0.7199
   78SLPC   H9Y 7176   4.480   1.188   7.407 -2.9044 -0.9056 -0.5532
   78SLPC  C310 7177   4.384   1.330   7.537 -0.7106 -0.2165 -0.3209
   78SLPC  H10X 7178   4.276   1.304   7.537 -0.4252 -1.7703 -3.8017
   78SLPC  H10Y 7179   4.387   1.441   7.531  0.8422 -0.1855  0.8508
   78SLPC  C311 7180   4.451   1.263   7.653  0.2467  0.2540 -0.6394
   78SLPC  H11X 7181   4.554   1.304   7.667 -0.4250  0.9556  2.4923
   78SLPC  H11Y 7182   4.463   1.157   7.624 -2.6186 -0.4309  0.5081
   78SLPC  C312 7183   4.371   1.260   7.782  0.2851 -0.6855  0.0809
   78SLPC  H12X 7184   4.269   1.218   7.771 -0.1026  0.0693  0.8042
   78SLPC  H12Y 7185   4.365   1.359   7.830  1.0946  0.1832 -1.5649
   78SLPC  C313 7186   4.448   1.163   7.871  0.0964 -0.1460 -0.2112
   78SLPC  H13X 7187   4.557   1.182   7.882 -0.2657  0.9359  1.8200
   78SLPC  H13Y 7188   4.433   1.062   7.829 -2.2264 -0.5601  1.4877
   78SLPC  C314 7189   4.400   1.162   8.014 -0.6005 -0.4098 -0.0147
   78SLPC  H14X 7190   4.461   1.082   8.060  1.9380  2.2977  1.4935
   78SLPC  H14Y 7191   4.294   1.129   8.014 -0.2578 -1.5252 -0.7587
   78SLPC  C315 7192   4.403   1.299   8.080 -0.5200  0.3378  0.0604
   78SLPC  H15X 7193   4.312   1.351   8.041 -0.8779 -0.8269 -0.6665
   78SLPC  H15Y 7194   4.496   1.356   8.061  1.2054 -2.3318  0.3734
   78SLPC  C316 7195   4.396   1.283   8.232 -0.1091  0.0362 -0.0404
   78SLPC  H16X 7196   4.489   1.227   8.256 -0.2266  0.8766  2.4761
   78SLPC  H16Y 7197   4.317   1.212   8.263 -0.6893 -0.8066 -3.2462
   78SLPC  C317 7198   4.384   1.408   8.314  0.3654  0.5718 -0.6028
   78SLPC  H17X 7199   4.282   1.446   8.337  0.5508  2.0012 -2.0288
   78SLPC  H17Y 7200   4.437   1.487   8.256  2.0195 -1.8532 -2.4719
   78SLPC  C318 7201   4.455   1.409   8.452 -0.3439  0.0613  0.6604
   78SLPC  H18X 7202   4.411   1.334   8.522 -1.2412  0.6655  0.7598
   78SLPC  H18Y 7203   4.432   1.508   8.497 -1.8066  0.1065 -0.1225
   78SLPC  H18Z 7204   4.565   1.406   8.440 -0.4098  0.4497 -0.0643
   79SLPC     N 7205   1.089   3.854   6.046 -0.6559  0.5288  0.0234
   79SLPC   C13 7206   1.094   3.869   5.897 -0.1550 -0.0768  1.1104
   79SLPC  H13A 7207   0.992   3.868   5.860 -0.2321  1.0239  1.2699
   79SLPC  H13B 7208   1.130   3.969   5.875  1.5482 -0.9689 -0.2317
   79SLPC  H13C 7209   1.155   3.797   5.845  0.4806  0.7916  0.6275
   79SLPC   C14 7210   1.219   3.903   6.098  0.0918 -0.2514 -0.3712
   79SLPC  H14A 7211   1.235   4.009   6.087 -1.4817 -0.2510 -3.2115
   79SLPC  H14B 7212   1.210   3.893   6.206  1.2017  0.6634 -0.1885
   79SLPC  H14C 7213   1.307   3.845   6.077  0.9493  1.4806 -1.5929
   79SLPC   C15 7214   1.060   3.713   6.087 -0.8660  0.5897 -0.4182
   79SLPC  H15A 7215   1.086   3.694   6.190  0.2686 -0.7022 -0.9179
   79SLPC  H15B 7216   0.953   3.699   6.086 -0.8603  0.5531 -1.0953
   79SLPC  H15C 7217   1.110   3.646   6.018  0.1713  0.1660  0.7238
   79SLPC   C12 7218   0.981   3.939   6.113  0.7138  0.0783 -0.3152
   79SLPC  H12A 7219   0.979   4.039   6.072  2.5906  0.7318  1.0850
   79SLPC  H12B 7220   1.007   3.964   6.215  1.9317  0.2314 -0.6547
   79SLPC   C11 7221   0.838   3.881   6.114 -1.0605  0.2930 -0.6037
   79SLPC  H11A 7222   0.814   3.839   6.015 -5.0757 -1.3610  0.9545
   79SLPC  H11B 7223   0.766   3.964   6.129 -1.9950 -0.0611 -3.0105
   79SLPC     P 7224   0.690   3.737   6.282 -0.0861  0.3218  0.0284
   79SLPC   O13 7225   0.580   3.724   6.185 -0.1801  0.0044  0.4296
   79SLPC   O14 7226   0.702   3.620   6.371  0.1358  0.2023  0.2301
   79SLPC   O12 7227   0.825   3.784   6.218 -0.1908 -0.1825 -0.1563
   79SLPC   O11 7228   0.654   3.856   6.374 -0.6666  0.1264 -0.5001
   79SLPC    C1 7229   0.735   3.940   6.460 -0.0973 -0.4602 -0.9306
   79SLPC    HA 7230   0.813   3.975   6.389 -0.0549  1.8633  0.2276
   79SLPC    HB 7231   0.680   4.024   6.507 -1.0319 -0.6160 -1.7378
   79SLPC    C2 7232   0.791   3.869   6.581  0.3129  0.0036 -0.4471
   79SLPC    HS 7233   0.856   3.939   6.637 -1.5940  1.6734 -0.2965
   79SLPC   O21 7234   0.869   3.756   6.544  0.2894 -0.0792 -0.3275
   79SLPC   C21 7235   0.982   3.775   6.468  0.5509  0.1720  0.1627
   79SLPC   O22 7236   1.029   3.881   6.438  0.2858 -0.0428  0.8293
   79SLPC   C22 7237   1.052   3.644   6.457  0.3402 -0.2508 -0.1759
   79SLPC   H2R 7238   0.979   3.560   6.455 -0.7650  0.7220 -1.8996
   79SLPC   H2S 7239   1.112   3.641   6.364 -0.7773 -0.8549 -0.8816
   79SLPC    C3 7240   0.677   3.828   6.678  0.6710  1.1745  0.8473
   79SLPC    HX 7241   0.613   3.743   6.645 -0.4348  1.5691  1.8882
   79SLPC    HY 7242   0.605   3.912   6.689  0.1064  1.0747 -1.8368
   79SLPC   O31 7243   0.724   3.778   6.805  0.3826  0.3022  0.0035
   79SLPC   C31 7244   0.748   3.879   6.889 -0.5142  0.4193  0.1298
   79SLPC   O32 7245   0.718   3.996   6.867  0.5351 -0.2309 -0.9057
   79SLPC   C32 7246   0.843   3.837   7.004  0.1441 -0.3254  0.0168
   79SLPC   H2X 7247   0.922   3.914   7.007 -0.3376  0.3669 -2.8901
   79SLPC   H2Y 7248   0.896   3.750   6.960  0.3315  0.1369 -0.6715
   79SLPC   C23 7249   1.155   3.638   6.571  0.5144 -0.3878  0.1615
   79SLPC   H3R 7250   1.222   3.727   6.568  1.0190 -0.6558  2.9327
   79SLPC   H3S 7251   1.223   3.552   6.555 -0.1574 -0.9991  0.5996
   79SLPC   C24 7252   1.087   3.631   6.711  0.6357 -0.6006  0.1337
   79SLPC   H4R 7253   1.016   3.545   6.713  0.9504 -0.8590  3.4996
   79SLPC   H4S 7254   1.024   3.719   6.734 -0.0320 -0.9733 -0.2241
   79SLPC   C25 7255   1.186   3.610   6.821  0.2015 -0.3721  0.6764
   79SLPC   H5R 7256   1.254   3.698   6.832 -0.0356 -0.2573  1.2486
   79SLPC   H5S 7257   1.248   3.520   6.803  0.2247  0.0149 -1.3268
   79SLPC   C26 7258   1.139   3.596   6.970 -0.3332  0.3385  0.0166
   79SLPC   H6R 7259   1.037   3.553   6.966 -0.2365  0.1803 -0.7753
   79SLPC   H6S 7260   1.125   3.704   6.994  2.7778  0.8966 -0.4124
   79SLPC   C27 7261   1.240   3.534   7.058  0.9852 -0.5374 -0.3280
   79SLPC   H7R 7262   1.337   3.584   7.034  1.0886 -1.2192 -1.3715
   79SLPC   H7S 7263   1.249   3.430   7.020  2.6966 -0.1187 -1.1522
   79SLPC   C28 7264   1.210   3.548   7.207 -0.1334 -0.1471 -0.0795
   79SLPC   H8R 7265   1.110   3.506   7.232  0.1144 -3.1230 -3.7432
   79SLPC   H8S 7266   1.202   3.655   7.237  1.1930 -0.3091  0.8807
   79SLPC   C29 7267   1.328   3.493   7.270  0.4973  0.6007  0.3276
   79SLPC   H9R 7268   1.424   3.501   7.218  0.4085  1.7587  0.3432
   79SLPC  C210 7269   1.333   3.448   7.396 -0.5951 -0.2388 -1.2104
   79SLPC  H10R 7270   1.430   3.404   7.425 -0.3567  0.3407 -1.1227
   79SLPC  C211 7271   1.226   3.429   7.500  0.2046 -0.7665  0.5707
   79SLPC  H11R 7272   1.124   3.439   7.456 -0.4014  2.3952  2.5540
   79SLPC  H11S 7273   1.232   3.518   7.566  0.6839 -1.7911  1.9362
   79SLPC  C212 7274   1.244   3.303   7.575 -0.2968 -0.5699 -0.2969
   79SLPC  H12R 7275   1.240   3.216   7.507  0.6416  0.6764 -2.0078
   79SLPC  C213 7276   1.258   3.284   7.709  0.0984 -0.2064 -0.8421
   79SLPC  H13R 7277   1.263   3.187   7.760 -0.0557  1.0670  1.6788
   79SLPC  C214 7278   1.261   3.392   7.808 -0.9211 -0.2800 -1.1526
   79SLPC  H14R 7279   1.156   3.404   7.842 -0.4818 -0.4664  0.2766
   79SLPC  H14S 7280   1.302   3.489   7.772  2.4684 -1.2267 -0.0574
   79SLPC  C215 7281   1.353   3.348   7.924  0.0050 -0.0055 -0.0787
   79SLPC  H15R 7282   1.407   3.439   7.960 -0.6452  0.0184  0.8633
   79SLPC  H15S 7283   1.433   3.277   7.895  0.4737 -0.6502  2.6511
   79SLPC  C216 7284   1.269   3.294   8.046 -0.2123  0.2381  0.9297
   79SLPC  H16R 7285   1.335   3.238   8.115 -0.6599 -1.4233  0.0369
   79SLPC  H16S 7286   1.188   3.228   8.008 -1.1602  1.4461  0.8380
   79SLPC  C217 7287   1.201   3.413   8.120 -0.1775 -0.0550 -0.5208
   79SLPC  H17R 7288   1.130   3.357   8.185 -1.1007  1.4837 -0.1933
   79SLPC  H17S 7289   1.139   3.468   8.045 -0.0474  1.8026  0.7291
   79SLPC  C218 7290   1.289   3.501   8.199  0.5581  0.2691  0.0482
   79SLPC  H18R 7291   1.370   3.444   8.249  1.2183  0.2633 -1.0190
   79SLPC  H18S 7292   1.229   3.551   8.278 -0.5921 -1.5635  0.3643
   79SLPC  H18T 7293   1.327   3.584   8.136 -0.2276 -0.0050 -0.7969
   79SLPC   C33 7294   0.780   3.813   7.143  0.3782 -0.1649 -0.1415
   79SLPC   H3X 7295   0.687   3.754   7.131  1.0205 -1.5024  1.3684
   79SLPC   H3Y 7296   0.739   3.907   7.186 -0.7649 -0.0446 -1.4579
   79SLPC   C34 7297   0.883   3.754   7.245 -0.6252  0.3043 -0.1134
   79SLPC   H4X 7298   0.971   3.821   7.235 -0.5754  0.3965  0.9584
   79SLPC   H4Y 7299   0.918   3.652   7.218  5.2714  2.1129  0.0699
   79SLPC   C35 7300   0.826   3.764   7.385 -0.0470 -0.3933 -0.1323
   79SLPC   H5X 7301   0.737   3.699   7.392 -0.1500 -0.2672 -0.2802
   79SLPC   H5Y 7302   0.792   3.865   7.416  1.7368 -0.1385  1.1068
   79SLPC   C36 7303   0.932   3.728   7.489 -0.0679  0.0781 -0.1464
   79SLPC   H6X 7304   1.004   3.811   7.502 -0.9614  1.0254 -1.2159
   79SLPC   H6Y 7305   0.983   3.636   7.454  0.0557  0.0214  0.1825
   79SLPC   C37 7306   0.883   3.682   7.635  0.4058 -0.6591  0.7914
   79SLPC   H7X 7307   0.837   3.582   7.619  1.8385 -1.5451  2.0475
   79SLPC   H7Y 7308   0.811   3.757   7.673 -0.1472 -1.0691  0.5593
   79SLPC   C38 7309   0.997   3.671   7.736  0.4065  0.0669 -0.2271
   79SLPC   H8X 7310   1.041   3.769   7.762 -1.2461  0.2735  1.9766
   79SLPC   H8Y 7311   1.077   3.601   7.704 -1.3786 -2.4120  0.5167
   79SLPC   C39 7312   0.938   3.602   7.865  1.0716 -0.0814 -0.5774
   79SLPC   H9X 7313   1.020   3.617   7.938  1.8506 -0.6875 -1.3193
   79SLPC   H9Y 7314   0.926   3.493   7.844  0.1213  0.0853 -0.9419
   79SLPC  C310 7315   0.823   3.672   7.934  1.0739 -0.0700  0.4851
   79SLPC  H10X 7316   0.740   3.630   7.873 -0.1193  2.1930  0.4907
   79SLPC  H10Y 7317   0.834   3.780   7.911 -0.4097 -0.2043 -0.9108
   79SLPC  C311 7318   0.796   3.651   8.083  0.1321  0.1250  0.4404
   79SLPC  H11X 7319   0.700   3.703   8.103 -1.9932 -2.4974 -2.5426
   79SLPC  H11Y 7320   0.869   3.699   8.152  1.0174  0.2236 -0.5665
   79SLPC  C312 7321   0.776   3.508   8.141  0.5743  0.2581  0.1195
   79SLPC  H12X 7322   0.862   3.438   8.143  0.5443  0.1055 -2.3713
   79SLPC  H12Y 7323   0.686   3.463   8.095 -0.0829 -0.8533  2.4277
   79SLPC  C313 7324   0.718   3.503   8.284  0.1501  0.8910  1.1005
   79SLPC  H13X 7325   0.665   3.406   8.300  1.4008 -0.2905 -1.6946
   79SLPC  H13Y 7326   0.634   3.574   8.269  0.2357  0.0538 -4.3097
   79SLPC  C314 7327   0.807   3.544   8.403  0.7744 -0.3505  0.1611
   79SLPC  H14X 7328   0.743   3.537   8.493 -0.6970 -1.3604 -0.9495
   79SLPC  H14Y 7329   0.835   3.651   8.386  0.2922  0.1204  2.2278
   79SLPC  C315 7330   0.924   3.453   8.419  0.3864 -0.1742 -0.3416
   79SLPC  H15X 7331   1.000   3.474   8.340  1.2009  2.3099  1.0511
   79SLPC  H15Y 7332   0.878   3.354   8.403 -0.0492 -0.0580  0.1838
   79SLPC  C316 7333   0.971   3.468   8.562  0.7826  0.4586 -0.8322
   79SLPC  H16X 7334   1.049   3.390   8.579  0.3374  0.3745  0.8683
   79SLPC  H16Y 7335   0.879   3.462   8.624  0.2717  0.0247 -1.6144
   79SLPC  C317 7336   1.031   3.605   8.599 -0.7323 -0.1332 -0.2795
   79SLPC  H17X 7337   0.959   3.687   8.577  0.0065  0.9970  1.4318
   79SLPC  H17Y 7338   1.125   3.615   8.540 -1.0153  1.0594 -0.5326
   79SLPC  C318 7339   1.074   3.625   8.748 -0.1894  0.3474  0.5250
   79SLPC  H18X 7340   1.114   3.729   8.753 -1.3577  0.9001 -1.2496
   79SLPC  H18Y 7341   1.147   3.549   8.783 -0.7822 -0.0774  0.8207
   79SLPC  H18Z 7342   0.991   3.620   8.821  1.7421  3.0703  3.0477
   80SLPC     N 7343   3.126   2.142   6.070 -0.0324  0.4386 -1.0139
   80SLPC   C13 7344   3.216   2.121   5.955  0.8397  0.3027 -0.6049
   80SLPC  H13A 7345   3.282   2.036   5.966  2.1557  1.6116  1.8990
   80SLPC  H13B 7346   3.154   2.114   5.867 -0.2981 -0.1981  0.2296
   80SLPC  H13C 7347   3.286   2.202   5.945 -0.7524  1.7748 -0.0541
   80SLPC   C14 7348   3.025   2.035   6.056 -0.5198  0.0092 -0.3644
   80SLPC  H14A 7349   2.954   2.038   6.137  0.8748 -0.6840  0.8897
   80SLPC  H14B 7350   2.952   2.042   5.976 -1.9362 -0.0376  0.8974
   80SLPC  H14C 7351   3.073   1.941   6.077 -0.1342  0.0485 -1.0495
   80SLPC   C15 7352   3.052   2.269   6.062 -0.7572 -0.1522 -0.2260
   80SLPC  H15A 7353   3.000   2.270   5.967 -1.4672 -2.1422  0.1080
   80SLPC  H15B 7354   2.981   2.276   6.144  0.6881 -0.6079  1.0809
   80SLPC  H15C 7355   3.114   2.357   6.060  0.8733 -1.2711  0.4604
   80SLPC   C12 7356   3.190   2.135   6.202 -0.1539 -0.4102  0.1424
   80SLPC  H12A 7357   3.110   2.150   6.272 -0.9385 -0.4349 -0.7319
   80SLPC  H12B 7358   3.263   2.214   6.211 -0.9376  0.3687 -0.2474
   80SLPC   C11 7359   3.258   2.004   6.244  0.3758 -0.0057  0.5851
   80SLPC  H11A 7360   3.332   2.022   6.325  2.1315  2.1707 -1.4369
   80SLPC  H11B 7361   3.331   1.978   6.164 -2.5669 -1.8032 -1.6515
   80SLPC     P 7362   3.092   1.859   6.398 -0.0537 -0.4351 -0.2793
   80SLPC   O13 7363   2.957   1.825   6.354  0.2658 -0.3271  0.2252
   80SLPC   O14 7364   3.170   1.764   6.481  0.6013 -0.8172  0.0492
   80SLPC   O12 7365   3.164   1.899   6.266  0.0786 -0.2580 -0.0572
   80SLPC   O11 7366   3.090   1.987   6.478  0.1610 -0.2792 -0.2584
   80SLPC    C1 7367   3.200   2.050   6.540  0.1271  0.3297 -0.8572
   80SLPC    HA 7368   3.294   1.992   6.525  0.2473  0.7052 -1.5838
   80SLPC    HB 7369   3.226   2.148   6.495 -0.9541  1.0444  0.0675
   80SLPC    C2 7370   3.167   2.074   6.687 -0.0134 -0.0697  0.3170
   80SLPC    HS 7371   3.131   1.974   6.720 -1.2933  0.4506  0.5196
   80SLPC   O21 7372   3.076   2.181   6.692  0.3461 -0.5637  0.0604
   80SLPC   C21 7373   2.987   2.167   6.796 -0.2846  0.3158  0.2088
   80SLPC   O22 7374   2.974   2.066   6.864  0.1558  0.4212 -0.0064
   80SLPC   C22 7375   2.883   2.284   6.789 -0.5573 -0.4292 -0.4143
   80SLPC   H2R 7376   2.905   2.352   6.703  0.6522 -1.1652 -0.6960
   80SLPC   H2S 7377   2.783   2.240   6.769 -1.5919  1.0373  1.3397
   80SLPC    C3 7378   3.297   2.106   6.766  0.2624 -0.2313  0.2316
   80SLPC    HX 7379   3.368   2.170   6.709 -0.5917  0.2728 -0.2606
   80SLPC    HY 7380   3.362   2.017   6.784  0.5028 -0.0339  0.3473
   80SLPC   O31 7381   3.263   2.158   6.896 -0.3798 -0.1857 -0.2075
   80SLPC   C31 7382   3.338   2.255   6.939 -0.5919  0.6740  0.4438
   80SLPC   O32 7383   3.429   2.313   6.878 -0.4745 -0.5322 -0.1377
   80SLPC   C32 7384   3.283   2.301   7.085 -0.7281 -0.5718 -0.3545
   80SLPC   H2X 7385   3.218   2.382   7.045 -0.4333 -0.2175 -0.1208
   80SLPC   H2Y 7386   3.368   2.344   7.142 -0.0436  2.1639 -3.2980
   80SLPC   C23 7387   2.891   2.381   6.914  0.1391  0.0559 -0.2761
   80SLPC   H3R 7388   2.857   2.486   6.901  3.0633  1.1024  0.1454
   80SLPC   H3S 7389   2.998   2.401   6.937  0.3922 -0.3655 -1.0661
   80SLPC   C24 7390   2.812   2.311   7.033  0.9129  0.5828  0.2862
   80SLPC   H4R 7391   2.859   2.212   7.053 -2.6229 -1.3843 -0.6557
   80SLPC   H4S 7392   2.706   2.284   7.012 -0.5969  1.9540  5.3213
   80SLPC   C25 7393   2.820   2.390   7.157  0.0888 -0.9083  0.4136
   80SLPC   H5R 7394   2.768   2.488   7.155  1.3232 -0.2314  0.8634
   80SLPC   H5S 7395   2.922   2.419   7.188  0.4221 -0.1028 -1.3688
   80SLPC   C26 7396   2.761   2.321   7.273 -0.9092  0.3207 -0.0272
   80SLPC   H6R 7397   2.788   2.376   7.366  0.8024  0.0360 -0.3444
   80SLPC   H6S 7398   2.805   2.220   7.289 -2.3407 -0.1094  1.4050
   80SLPC   C27 7399   2.608   2.291   7.262  1.1001  0.0578  0.2214
   80SLPC   H7R 7400   2.586   2.231   7.172  0.4611 -0.2164  0.5523
   80SLPC   H7S 7401   2.571   2.394   7.242  1.0429  0.1966  0.9993
   80SLPC   C28 7402   2.540   2.243   7.397  0.2286  0.0612  0.5388
   80SLPC   H8R 7403   2.568   2.141   7.432  1.1034 -0.4838 -1.6087
   80SLPC   H8S 7404   2.437   2.219   7.365  0.9736  0.1894 -2.0615
   80SLPC   C29 7405   2.532   2.351   7.506 -0.3643 -0.3296  1.0360
   80SLPC   H9R 7406   2.486   2.446   7.476 -0.3264 -1.0992 -1.5708
   80SLPC  C210 7407   2.574   2.326   7.630  0.4157  0.7165 -0.5512
   80SLPC  H10R 7408   2.561   2.404   7.707 -2.4359  1.0799 -1.3365
   80SLPC  C211 7409   2.628   2.204   7.700  0.3237  0.7625 -0.3060
   80SLPC  H11R 7410   2.668   2.236   7.798  1.0016  1.3673 -0.7760
   80SLPC  H11S 7411   2.713   2.163   7.641 -1.7511  1.0293 -3.6084
   80SLPC  C212 7412   2.525   2.094   7.727  0.4123  0.6936  0.5586
   80SLPC  H12R 7413   2.473   2.071   7.633  1.3467  0.8663 -0.0062
   80SLPC  C213 7414   2.512   2.017   7.836  0.2955 -0.1074 -0.4986
   80SLPC  H13R 7415   2.446   1.929   7.825 -0.0987  0.4063 -2.3723
   80SLPC  C214 7416   2.593   2.021   7.968 -0.2384 -0.0657  0.2511
   80SLPC  H14R 7417   2.689   2.074   7.955 -0.0404 -0.4016  0.3340
   80SLPC  H14S 7418   2.624   1.916   7.989 -0.7485 -0.7311 -2.0889
   80SLPC  C215 7419   2.513   2.088   8.081  0.7022  0.3912  0.3172
   80SLPC  H15R 7420   2.413   2.041   8.087  1.6191 -2.1202 -2.6642
   80SLPC  H15S 7421   2.496   2.193   8.047  1.1944 -0.0549 -1.3684
   80SLPC  C216 7422   2.583   2.092   8.216  0.1982  0.3781 -0.4163
   80SLPC  H16R 7423   2.679   2.146   8.236 -0.7299  1.5727  0.9524
   80SLPC  H16S 7424   2.594   1.990   8.257  2.0193  1.4572  1.9433
   80SLPC  C217 7425   2.497   2.162   8.329  0.0056 -0.3180 -0.0562
   80SLPC  H17R 7426   2.389   2.157   8.305  0.4145 -0.2105 -2.0091
   80SLPC  H17S 7427   2.531   2.267   8.317  0.7189 -0.5479 -0.1127
   80SLPC  C218 7428   2.516   2.107   8.468  0.1115  0.2531 -0.2238
   80SLPC  H18R 7429   2.428   2.141   8.526 -1.2964  0.4324 -2.3832
   80SLPC  H18S 7430   2.604   2.152   8.518  0.2483  0.9003 -1.0395
   80SLPC  H18T 7431   2.516   1.996   8.471 -0.9297  0.2602  0.3526
   80SLPC   C33 7432   3.203   2.189   7.161  0.0991  0.3054  0.0128
   80SLPC   H3X 7433   3.259   2.093   7.155  1.5438  1.1237  0.0772
   80SLPC   H3Y 7434   3.099   2.181   7.124 -0.0469  1.0124  0.2671
   80SLPC   C34 7435   3.183   2.226   7.310 -0.0044  0.5937 -1.3673
   80SLPC   H4X 7436   3.120   2.315   7.329 -3.0268 -1.5995 -0.6023
   80SLPC   H4Y 7437   3.280   2.248   7.360 -0.3509 -0.5967 -0.1169
   80SLPC   C35 7438   3.118   2.105   7.389 -0.4942 -0.1694 -0.8697
   80SLPC   H5X 7439   3.183   2.017   7.372 -0.3885 -0.3701  0.5403
   80SLPC   H5Y 7440   3.016   2.083   7.352 -0.9202 -1.9484  1.2680
   80SLPC   C36 7441   3.106   2.135   7.549  0.0764 -0.3749 -0.1304
   80SLPC   H6X 7442   3.022   2.205   7.571  0.6814 -0.2965  2.1079
   80SLPC   H6Y 7443   3.205   2.171   7.584 -0.6491  1.1324  0.4175
   80SLPC   C37 7444   3.079   1.998   7.626  0.2012  0.0947  0.4710
   80SLPC   H7X 7445   3.154   1.923   7.594 -0.5235  0.1172 -1.3473
   80SLPC   H7Y 7446   2.981   1.961   7.589 -0.4742  2.4086 -0.1230
   80SLPC   C38 7447   3.086   2.018   7.780 -0.6534 -0.2766  0.9172
   80SLPC   H8X 7448   3.184   2.068   7.801 -1.1517  1.5125 -0.7956
   80SLPC   H8Y 7449   3.090   1.916   7.822 -1.0111 -0.3185  0.8451
   80SLPC   C39 7450   2.974   2.096   7.834  0.0472  0.0929 -0.3637
   80SLPC   H9X 7451   2.889   2.027   7.820  1.2415 -1.8298  1.4264
   80SLPC   H9Y 7452   2.941   2.187   7.780 -3.4495 -1.0168 -0.2091
   80SLPC  C310 7453   2.983   2.117   7.987  0.1539  0.2218 -0.2441
   80SLPC  H10X 7454   3.015   2.015   8.019  0.2013  0.1385 -0.5564
   80SLPC  H10Y 7455   2.881   2.141   8.023  0.2177 -2.7562  2.1105
   80SLPC  C311 7456   3.068   2.234   8.039 -0.6201 -0.1784 -0.1139
   80SLPC  H11X 7457   3.017   2.333   8.034 -0.4640 -0.1219 -0.6280
   80SLPC  H11Y 7458   3.156   2.237   7.972 -1.2180  1.3489 -0.8404
   80SLPC  C312 7459   3.123   2.217   8.187  0.2950  0.2926 -0.2601
   80SLPC  H12X 7460   3.170   2.117   8.186 -0.1012  0.0995  0.3826
   80SLPC  H12Y 7461   3.037   2.216   8.258 -2.2699  1.2224 -3.2602
   80SLPC  C313 7462   3.235   2.312   8.215  0.1163  0.2304  0.0719
   80SLPC  H13X 7463   3.310   2.315   8.133  1.1560 -0.0228  1.0018
   80SLPC  H13Y 7464   3.299   2.269   8.295  0.2493  0.5273  0.1256
   80SLPC  C314 7465   3.185   2.453   8.244 -0.5594  0.6860 -0.3739
   80SLPC  H14X 7466   3.115   2.447   8.330 -0.0763 -2.3238 -0.1434
   80SLPC  H14Y 7467   3.127   2.496   8.159 -0.4092  0.9290 -0.3521
   80SLPC  C315 7468   3.306   2.551   8.265 -0.4061 -0.7655 -0.2428
   80SLPC  H15X 7469   3.357   2.568   8.168  1.0208  0.0904  0.6274
   80SLPC  H15Y 7470   3.388   2.506   8.325 -0.1535  0.0769  0.0529
   80SLPC  C316 7471   3.260   2.676   8.334  0.2965  0.5678  0.1179
   80SLPC  H16X 7472   3.339   2.739   8.380 -0.6585  2.5665 -0.8971
   80SLPC  H16Y 7473   3.198   2.658   8.425  1.9373  1.9506  1.5499
   80SLPC  C317 7474   3.195   2.785   8.238 -0.1159  0.7728 -0.5839
   80SLPC  H17X 7475   3.134   2.719   8.173  0.6596  1.5902 -2.1532
   80SLPC  H17Y 7476   3.276   2.833   8.180  0.1387  1.0532  0.0048
   80SLPC  C318 7477   3.108   2.883   8.305 -0.2296 -0.7328  0.2816
   80SLPC  H18X 7478   3.041   2.830   8.376 -0.7136  0.0449  0.4234
   80SLPC  H18Y 7479   3.046   2.942   8.234 -0.3815 -1.0146  0.1794
   80SLPC  H18Z 7480   3.154   2.957   8.374  0.1691  2.0605 -2.8478
   81SAPS     N 7481   3.412   4.104  11.073  0.0067 -0.1707  0.0771
   81SAPS   HN1 7482   3.388   4.086  10.974  0.6814  0.6898 -0.2444
   81SAPS   HN2 7483   3.498   4.161  11.084 -0.0629 -0.1263  0.3879
   81SAPS   HN3 7484   3.424   4.015  11.125 -2.4301 -0.9988 -0.7042
   81SAPS   C12 7485   3.290   4.162  11.120 -0.0046 -0.2253 -0.1605
   81SAPS  H12A 7486   3.212   4.087  11.115  2.0292 -2.2780 -2.3882
   81SAPS   C13 7487   3.316   4.193  11.271  0.6486 -0.3169 -0.2649
   81SAPS  O13A 7488   3.433   4.189  11.326  0.4274 -0.2580  0.3605
   81SAPS  O13B 7489   3.225   4.265  11.325 -0.1206  0.1291 -0.1636
   81SAPS   C11 7490   3.251   4.285  11.032 -0.1301  0.6456 -0.0627
   81SAPS  H11A 7491   3.339   4.351  11.037 -0.2137  0.7515  0.0163
   81SAPS  H11B 7492   3.169   4.345  11.077 -2.7222 -0.8097 -2.6271
   81SAPS     P 7493   3.094   4.197  10.827  0.0279 -0.1741  0.0010
   81SAPS   O13 7494   3.058   4.082  10.911  0.3823 -0.2291 -0.4693
   81SAPS   O14 7495   2.988   4.293  10.792 -0.5843 -0.0923 -0.5689
   81SAPS   O12 7496   3.230   4.256  10.890  0.3991 -0.0964  0.1780
   81SAPS   O11 7497   3.152   4.141  10.700 -0.0775 -0.4271 -0.5004
   81SAPS    C1 7498   3.209   4.222  10.597  0.0830 -0.3521  0.0042
   81SAPS    HA 7499   3.226   4.329  10.620 -2.3672 -0.0741  0.5913
   81SAPS    HB 7500   3.318   4.200  10.592  0.2388  0.5543 -0.7564
   81SAPS    C2 7501   3.137   4.217  10.464  0.4437  0.2711  0.7054
   81SAPS    HS 7502   3.041   4.270  10.479  1.0022  0.4056  4.1032
   81SAPS   O21 7503   3.116   4.088  10.409  0.5858  0.1054 -0.1189
   81SAPS   C21 7504   3.008   4.021  10.457  0.3424  0.2955  0.0198
   81SAPS   O22 7505   2.928   4.054  10.546  0.0467  0.2491 -0.1580
   81SAPS   C22 7506   2.992   3.892  10.382  0.8531  0.2515  0.4586
   81SAPS   H2R 7507   3.074   3.866  10.312  0.9642 -0.8310  0.9840
   81SAPS   H2S 7508   3.000   3.818  10.464 -0.8646 -0.9058 -0.3714
   81SAPS    C3 7509   3.224   4.293  10.366 -0.6956 -0.2255  0.8476
   81SAPS    HX 7510   3.319   4.237  10.350  0.3494  2.2101 -2.0130
   81SAPS    HY 7511   3.249   4.392  10.409 -0.9183 -0.3653  1.2987
   81SAPS   O31 7512   3.142   4.313  10.245 -0.3342  0.0495  0.0749
   81SAPS   C31 7513   3.188   4.261  10.130  0.2413 -0.0890  0.9039
   81SAPS   O32 7514   3.293   4.200  10.113  0.4706 -0.5363 -0.3665
   81SAPS   C32 7515   3.077   4.298  10.038  0.7655  0.7198  0.3794
   81SAPS   H2X 7516   3.110   4.392   9.989  0.0547  0.7293 -0.0850
   81SAPS   H2Y 7517   2.983   4.316  10.096  1.0265 -0.0728  1.0556
   81SAPS   C23 7518   2.847   3.883  10.314  0.1677  1.3740 -1.1306
   81SAPS   H3R 7519   2.765   3.903  10.385  0.4202 -2.9249  0.5343
   81SAPS   H3S 7520   2.825   3.778  10.285 -1.7849  1.7896 -1.1661
   81SAPS   C24 7521   2.837   3.958  10.184 -0.3332 -1.3908 -0.4914
   81SAPS   H4R 7522   2.869   4.062  10.207 -1.0345 -1.3941  0.5475
   81SAPS   H4S 7523   2.728   3.956  10.163 -0.3971  2.6400 -0.8685
   81SAPS   C25 7524   2.922   3.914  10.075 -0.7620 -0.0298  0.5313
   81SAPS   H5R 7525   3.031   3.921  10.090 -0.4772 -0.2611 -1.3445
   81SAPS   C26 7526   2.878   3.875   9.954  0.9300 -1.3973  0.4755
   81SAPS   H6R 7527   2.953   3.835   9.884  2.1545 -2.6319  2.4411
   81SAPS   C27 7528   2.741   3.861   9.904  0.3691  0.2312 -0.4971
   81SAPS   H7R 7529   2.673   3.944   9.931 -2.4104 -2.1337 -0.0666
   81SAPS   H7S 7530   2.699   3.783   9.971  2.3256  2.3696  3.3549
   81SAPS   C28 7531   2.714   3.816   9.762  0.1726 -1.1433 -0.0537
   81SAPS   H8R 7532   2.679   3.713   9.746  0.8546 -0.8695 -3.7239
   81SAPS   C29 7533   2.736   3.889   9.654  0.6356 -0.3505 -0.4271
   81SAPS   H9R 7534   2.722   3.834   9.560  0.6983  2.0396 -1.8847
   81SAPS  C210 7535   2.792   4.023   9.654 -0.3579 -0.1659 -0.4116
   81SAPS  H10R 7536   2.831   4.053   9.555  0.1851  1.9501  0.4219
   81SAPS  H10S 7537   2.873   4.026   9.730  1.9844 -0.8336 -2.8002
   81SAPS  C211 7538   2.693   4.127   9.696  0.1791  0.0122  0.0755
   81SAPS  H11R 7539   2.651   4.092   9.791  2.7182 -1.6444  0.6286
   81SAPS  C212 7540   2.668   4.240   9.626  0.0837 -0.6568  0.3667
   81SAPS  H12R 7541   2.578   4.294   9.659 -0.4785  0.6274 -3.1297
   81SAPS  C213 7542   2.730   4.283   9.490 -0.0766  0.5241  0.0746
   81SAPS  H13R 7543   2.840   4.269   9.486 -0.3363 -1.4393 -0.3358
   81SAPS  H13S 7544   2.734   4.393   9.474  1.5671  0.4064 -0.4864
   81SAPS  C214 7545   2.671   4.201   9.375  1.0514 -0.0661 -0.6536
   81SAPS  H14R 7546   2.596   4.126   9.404  1.7315  0.1076  1.6234
   81SAPS  C215 7547   2.694   4.218   9.240 -0.6576  0.4166 -0.1475
   81SAPS  H15R 7548   2.634   4.164   9.165  0.6533 -2.4506  0.7964
   81SAPS  C216 7549   2.788   4.320   9.176 -0.0767  0.8361  0.1832
   81SAPS  H16R 7550   2.873   4.270   9.124 -0.1548  1.4336 -0.5303
   81SAPS  H16S 7551   2.847   4.381   9.248  0.1169  0.2297  0.5433
   81SAPS  C217 7552   2.711   4.405   9.077  0.3632 -0.3559 -0.6782
   81SAPS  H17R 7553   2.775   4.492   9.049 -0.6708 -0.0371 -2.0688
   81SAPS  H17S 7554   2.624   4.447   9.132  1.2014 -0.3274  0.6509
   81SAPS  C218 7555   2.668   4.341   8.951 -0.3237  0.1862  0.0935
   81SAPS  H18R 7556   2.591   4.408   8.907  1.9406  2.8594  0.0977
   81SAPS  H18S 7557   2.610   4.247   8.965  1.0901 -0.4396  1.9013
   81SAPS  C219 7558   2.780   4.313   8.848  0.5353 -1.0348  0.5663
   81SAPS  H19R 7559   2.856   4.262   8.911  2.5296  1.3401  0.1667
   81SAPS  H19S 7560   2.821   4.409   8.810 -1.5289 -1.5539 -3.2318
   81SAPS  C220 7561   2.737   4.231   8.735 -0.2497 -0.2650 -0.9786
   81SAPS  H20R 7562   2.677   4.143   8.768 -0.5651  0.2043 -0.3056
   81SAPS  H20S 7563   2.823   4.179   8.687  1.7036  0.6348  1.4422
   81SAPS  H20T 7564   2.672   4.293   8.670 -0.9378  1.4710  1.2916
   81SAPS   C33 7565   3.050   4.204   9.914  0.8802 -0.7366 -0.0030
   81SAPS   H3X 7566   2.946   4.217   9.878  1.0138 -0.6914 -0.3719
   81SAPS   H3Y 7567   3.068   4.099   9.945  1.3977 -0.8652 -0.7331
   81SAPS   C34 7568   3.151   4.242   9.800 -0.3339  0.2717  0.1562
   81SAPS   H4X 7569   3.246   4.190   9.825 -0.4132  1.0542  2.1863
   81SAPS   H4Y 7570   3.163   4.351   9.783 -0.8061  0.0728 -1.5805
   81SAPS   C35 7571   3.109   4.192   9.662 -0.1669  0.6488  0.9113
   81SAPS   H5X 7572   3.025   4.257   9.629  0.3661 -0.3968 -2.7890
   81SAPS   H5Y 7573   3.060   4.093   9.672 -0.3037  0.5686 -0.3690
   81SAPS   C36 7574   3.225   4.194   9.559 -0.5186  0.1917 -0.1332
   81SAPS   H6X 7575   3.316   4.154   9.609 -0.8966 -1.8376 -1.0578
   81SAPS   H6Y 7576   3.264   4.291   9.520  0.2667  0.2275  0.7121
   81SAPS   C37 7577   3.186   4.116   9.436 -0.2618  0.7369  0.0299
   81SAPS   H7X 7578   3.084   4.144   9.400  0.3281  1.7932 -0.8403
   81SAPS   H7Y 7579   3.183   4.006   9.455 -0.6458  0.8328  0.5511
   81SAPS   C38 7580   3.286   4.125   9.324  0.1365 -0.4618 -0.2035
   81SAPS   H8X 7581   3.384   4.090   9.364  0.7118 -0.0206 -1.2213
   81SAPS   H8Y 7582   3.286   4.233   9.299 -2.8879 -0.2714  0.4262
   81SAPS   C39 7583   3.236   4.045   9.205 -0.3104 -0.1160 -0.3963
   81SAPS   H9X 7584   3.141   4.093   9.174 -0.6690  1.0105  2.3086
   81SAPS   H9Y 7585   3.213   3.939   9.228  1.5913 -0.8896 -1.9196
   81SAPS  C310 7586   3.341   4.057   9.100 -0.3135 -1.4515  0.3703
   81SAPS  H10X 7587   3.418   3.983   9.131  0.0505 -2.0725 -1.9478
   81SAPS  H10Y 7588   3.387   4.157   9.115 -2.2489 -0.6875  1.4540
   81SAPS  C311 7589   3.303   4.019   8.953 -0.7835  0.1364 -0.9721
   81SAPS  H11X 7590   3.247   3.925   8.935 -0.8222 -0.3174  1.3514
   81SAPS  H11Y 7591   3.392   4.013   8.887  0.3609  0.5727  0.5107
   81SAPS  C312 7592   3.219   4.126   8.891 -0.0965  0.0495 -0.3617
   81SAPS  H12X 7593   3.267   4.220   8.925 -1.6549  0.6250  0.2812
   81SAPS  H12Y 7594   3.129   4.104   8.951 -0.5084  0.3397 -0.8697
   81SAPS  C313 7595   3.188   4.119   8.744  0.3216 -0.1434 -0.1763
   81SAPS  H13X 7596   3.125   4.207   8.719 -0.6584 -0.9331 -0.5283
   81SAPS  H13Y 7597   3.139   4.023   8.720  0.4960 -0.3636  0.3313
   81SAPS  C314 7598   3.311   4.143   8.656  0.6546 -0.0441  0.2716
   81SAPS  H14X 7599   3.394   4.072   8.678  0.5165  0.0725  1.2055
   81SAPS  H14Y 7600   3.361   4.237   8.687 -0.6139  0.5315  0.6042
   81SAPS  C315 7601   3.268   4.156   8.508  0.3090 -0.3763 -0.2753
   81SAPS  H15X 7602   3.164   4.193   8.508  0.4008 -0.1223 -0.9265
   81SAPS  H15Y 7603   3.268   4.052   8.467 -0.6096 -0.9477  1.1336
   81SAPS  C316 7604   3.367   4.242   8.426 -0.3221  0.5964  0.0799
   81SAPS  H16X 7605   3.465   4.225   8.475 -1.0236  1.0110  1.6911
   81SAPS  H16Y 7606   3.342   4.350   8.442  2.9107  1.5685 -1.1863
   81SAPS  C317 7607   3.343   4.217   8.271  0.1317 -0.0272  0.2032
   81SAPS  H17X 7608   3.234   4.230   8.253  0.1033  1.2096  1.2520
   81SAPS  H17Y 7609   3.356   4.107   8.259 -2.5363 -0.5960  2.0828
   81SAPS  C318 7610   3.442   4.290   8.173  0.4002  0.0268  0.7293
   81SAPS  H18X 7611   3.547   4.278   8.207  0.4193  1.5341  1.2335
   81SAPS  H18Y 7612   3.408   4.396   8.167 -1.6432 -0.5114  2.4123
   81SAPS  H18Z 7613   3.427   4.244   8.073 -0.4566 -0.5285  1.1105
   82SAPS     N 7614   2.427   3.265  10.863  0.3030  0.5530  0.4008
   82SAPS   HN1 7615   2.474   3.185  10.815  0.0136  0.7619 -0.2380
   82SAPS   HN2 7616   2.394   3.328  10.787 -0.0746  0.7896  0.7589
   82SAPS   HN3 7617   2.499   3.318  10.916  0.9940  1.4884 -1.4059
   82SAPS   C12 7618   2.301   3.214  10.932  0.2311 -0.9628  0.3275
   82SAPS  H12A 7619   2.320   3.181  11.033  0.0090 -3.0967 -0.3024
   82SAPS   C13 7620   2.198   3.319  10.947 -0.3090 -0.5077 -0.7889
   82SAPS  O13A 7621   2.227   3.441  10.909 -0.0313 -0.2425 -0.2123
   82SAPS  O13B 7622   2.084   3.290  10.991  0.4419 -0.2022  0.3722
   82SAPS   C11 7623   2.253   3.094  10.850  0.1370  0.3861  0.7632
   82SAPS  H11A 7624   2.212   3.122  10.751 -0.4646 -0.3870  0.7829
   82SAPS  H11B 7625   2.161   3.048  10.892  1.0072  0.6960  3.0658
   82SAPS     P 7626   2.353   2.894  10.711 -0.3296  0.1651  0.3461
   82SAPS   O13 7627   2.485   2.890  10.647 -0.0087  0.5999  0.6082
   82SAPS   O14 7628   2.303   2.772  10.772 -0.1305 -0.1328  0.1021
   82SAPS   O12 7629   2.361   3.000  10.832 -0.5874 -0.4923 -1.1260
   82SAPS   O11 7630   2.247   2.943  10.599 -0.5729 -0.0633 -0.1757
   82SAPS    C1 7631   2.291   3.030  10.497 -0.0027 -0.1313 -0.1670
   82SAPS    HA 7632   2.368   3.106  10.524  1.6172 -1.7987  0.0082
   82SAPS    HB 7633   2.336   2.966  10.418  0.1474 -0.1711 -0.0512
   82SAPS    C2 7634   2.184   3.120  10.430 -1.1908 -0.1133  0.4926
   82SAPS    HS 7635   2.144   3.188  10.508  1.6483 -0.0975  1.9965
   82SAPS   O21 7636   2.079   3.044  10.358 -0.7197 -0.1205  0.4528
   82SAPS   C21 7637   1.982   2.995  10.442  0.0774 -0.3996  0.3884
   82SAPS   O22 7638   1.966   3.020  10.558 -0.3032  0.4955 -0.1492
   82SAPS   C22 7639   1.896   2.902  10.356 -0.0232 -0.2023  0.1725
   82SAPS   H2R 7640   1.959   2.875  10.268  0.3737 -2.5113  1.1207
   82SAPS   H2S 7641   1.887   2.807  10.413 -0.7979  0.9188  1.9725
   82SAPS    C3 7642   2.263   3.207  10.322 -0.0322  0.5422  0.6732
   82SAPS    HX 7643   2.320   3.134  10.261  1.1241  2.0771 -0.1139
   82SAPS    HY 7644   2.340   3.276  10.362  0.2397  0.2251  0.6998
   82SAPS   O31 7645   2.173   3.278  10.232 -0.2089  0.9980 -0.0197
   82SAPS   C31 7646   2.124   3.385  10.289 -0.1886 -0.7655  0.0309
   82SAPS   O32 7647   2.162   3.435  10.392  0.4602 -0.1829 -0.5502
   82SAPS   C32 7648   2.019   3.443  10.212  0.2954  0.2900 -0.1414
   82SAPS   H2X 7649   1.967   3.527  10.263  0.4292  0.3261 -0.0660
   82SAPS   H2Y 7650   1.945   3.361  10.199 -0.2682  0.2223  3.1677
   82SAPS   C23 7651   1.754   2.947  10.312  0.3925 -0.0630 -0.3232
   82SAPS   H3R 7652   1.684   2.956  10.397  1.5072 -1.6175  0.7890
   82SAPS   H3S 7653   1.719   2.871  10.239 -0.7705 -0.8313  1.0391
   82SAPS   C24 7654   1.754   3.093  10.259  0.5041  0.2091  0.3073
   82SAPS   H4R 7655   1.824   3.098  10.173  0.0679  0.8252 -0.0224
   82SAPS   H4S 7656   1.794   3.162  10.336  0.4801  1.0353 -0.4016
   82SAPS   C25 7657   1.614   3.146  10.217 -0.6669 -0.0657 -0.7718
   82SAPS   H5R 7658   1.539   3.110  10.289  3.2443 -4.3975  1.3936
   82SAPS   C26 7659   1.590   3.218  10.110  1.0647  0.2074  0.4221
   82SAPS   H6R 7660   1.485   3.242  10.086  1.3215 -0.6473 -1.5932
   82SAPS   C27 7661   1.689   3.268  10.008  0.0944  0.5645  0.2353
   82SAPS   H7R 7662   1.784   3.296  10.057 -0.7902  1.2433  1.5714
   82SAPS   H7S 7663   1.648   3.361   9.963 -1.2919 -0.6278 -1.0420
   82SAPS   C28 7664   1.709   3.165   9.894  0.4280 -0.5844 -0.4067
   82SAPS   H8R 7665   1.678   3.062   9.919  0.1174  0.0084  1.7629
   82SAPS   C29 7666   1.757   3.189   9.769  0.0050  0.7540 -0.3194
   82SAPS   H9R 7667   1.764   3.097   9.711  2.3220 -0.9347  2.5175
   82SAPS  C210 7668   1.807   3.318   9.704 -0.3473 -0.3716 -0.9635
   82SAPS  H10R 7669   1.897   3.295   9.643 -0.6028 -1.7723 -0.8264
   82SAPS  H10S 7670   1.818   3.398   9.779 -2.7602  0.0558 -1.0063
   82SAPS  C211 7671   1.706   3.378   9.606  0.1662  0.7552  0.3012
   82SAPS  H11R 7672   1.621   3.426   9.658  0.7144  1.0127  0.9666
   82SAPS  C212 7673   1.707   3.365   9.472 -0.2580  0.2275 -0.4679
   82SAPS  H12R 7674   1.620   3.408   9.420 -0.5861 -0.8342 -0.8063
   82SAPS  C213 7675   1.807   3.281   9.398 -0.3290 -0.2688  0.5515
   82SAPS  H13R 7676   1.810   3.182   9.448 -0.8391 -0.2645  0.5896
   82SAPS  H13S 7677   1.909   3.326   9.399 -0.6110  0.4453 -0.9861
   82SAPS  C214 7678   1.766   3.255   9.257  0.6109 -0.4840 -1.4969
   82SAPS  H14R 7679   1.732   3.154   9.232 -0.3669 -1.4534  3.2666
   82SAPS  C215 7680   1.746   3.361   9.166  0.4716  0.9781 -0.5775
   82SAPS  H15R 7681   1.710   3.333   9.066  2.5247 -1.1711 -0.7577
   82SAPS  C216 7682   1.769   3.512   9.181 -0.6488 -0.1731  0.2800
   82SAPS  H16R 7683   1.849   3.541   9.253  0.4054 -1.2079 -0.4474
   82SAPS  H16S 7684   1.680   3.561   9.225 -1.7894 -1.5419 -0.4750
   82SAPS  C217 7685   1.803   3.565   9.043  0.2242  0.2555  0.2938
   82SAPS  H17R 7686   1.861   3.490   8.985 -0.7564 -1.0534  0.9967
   82SAPS  H17S 7687   1.853   3.663   9.063 -0.0084  0.0311  1.9952
   82SAPS  C218 7688   1.678   3.583   8.957 -0.1642 -0.6463 -0.0732
   82SAPS  H18R 7689   1.603   3.634   9.021 -0.7973  0.6681 -1.8540
   82SAPS  H18S 7690   1.643   3.483   8.923 -1.1504  0.8460 -3.5659
   82SAPS  C219 7691   1.709   3.651   8.828  0.0368  0.1184 -0.0769
   82SAPS  H19R 7692   1.784   3.595   8.767 -0.6226  0.4090 -1.1835
   82SAPS  H19S 7693   1.756   3.747   8.858  2.3015 -0.8799 -0.3354
   82SAPS  C220 7694   1.593   3.669   8.725  0.4438  0.5230  0.2105
   82SAPS  H20R 7695   1.626   3.710   8.627 -0.7372  1.0417  0.0259
   82SAPS  H20S 7696   1.523   3.751   8.751  3.2227  2.3789  2.1286
   82SAPS  H20T 7697   1.543   3.573   8.701  1.8178 -0.0524 -0.4559
   82SAPS   C33 7698   2.079   3.490  10.084  0.9354 -0.2313  0.6214
   82SAPS   H3X 7699   2.173   3.544  10.106 -0.9680  4.4940 -2.0127
   82SAPS   H3Y 7700   2.003   3.565  10.053  0.5700 -1.0358 -0.4936
   82SAPS   C34 7701   2.081   3.379   9.979 -0.1327  0.5615 -0.2271
   82SAPS   H4X 7702   1.987   3.323   9.956  0.3705 -0.1628 -0.5655
   82SAPS   H4Y 7703   2.153   3.302  10.014  1.0403  1.0098 -1.5942
   82SAPS   C35 7704   2.128   3.438   9.846  0.2206  1.0715  0.0215
   82SAPS   H5X 7705   2.207   3.513   9.865 -0.2363  1.3217  0.9646
   82SAPS   H5Y 7706   2.040   3.496   9.810 -0.7028  1.4542  2.7729
   82SAPS   C36 7707   2.163   3.341   9.740  0.0130  0.4151  0.4102
   82SAPS   H6X 7708   2.082   3.269   9.714  0.3749  1.2526 -3.2153
   82SAPS   H6Y 7709   2.252   3.284   9.774 -2.2250 -1.7998  2.8523
   82SAPS   C37 7710   2.189   3.408   9.595  0.6800  0.4962  0.0383
   82SAPS   H7X 7711   2.242   3.504   9.616 -0.8879  1.4125 -0.0777
   82SAPS   H7Y 7712   2.086   3.432   9.561  0.2337 -0.9589  0.3502
   82SAPS   C38 7713   2.280   3.323   9.511  0.0092 -0.0795 -0.4355
   82SAPS   H8X 7714   2.228   3.226   9.492 -2.4124  1.2428 -0.8311
   82SAPS   H8Y 7715   2.377   3.307   9.563  1.4680  2.0173 -2.4034
   82SAPS   C39 7716   2.311   3.379   9.370  0.6341 -0.0607  0.8398
   82SAPS   H9X 7717   2.340   3.486   9.383 -0.5463  0.3015  0.5449
   82SAPS   H9Y 7718   2.209   3.375   9.326  0.8820 -3.1388  0.4335
   82SAPS  C310 7719   2.428   3.301   9.302  0.1821 -0.9079 -0.0377
   82SAPS  H10X 7720   2.394   3.204   9.261  0.8865 -1.4310  0.6038
   82SAPS  H10Y 7721   2.516   3.287   9.368 -0.2325 -1.9055  0.3091
   82SAPS  C311 7722   2.480   3.379   9.174 -0.6148  0.2063  0.1300
   82SAPS  H11X 7723   2.523   3.475   9.209  0.1290 -0.4187  0.9651
   82SAPS  H11Y 7724   2.388   3.403   9.116 -0.5086 -1.6484 -0.8636
   82SAPS  C312 7725   2.586   3.306   9.089  0.1372 -0.0983  0.0289
   82SAPS  H12X 7726   2.684   3.338   9.132 -0.3787  0.4736  0.7972
   82SAPS  H12Y 7727   2.574   3.353   8.989  0.9589  1.9783  0.8599
   82SAPS  C313 7728   2.584   3.149   9.096 -0.1287 -0.6051  0.3412
   82SAPS  H13X 7729   2.486   3.120   9.052  0.7112  1.2437 -2.9041
   82SAPS  H13Y 7730   2.578   3.111   9.200 -0.0141  0.4976  0.7506
   82SAPS  C314 7731   2.688   3.067   9.015 -0.0850  0.3083  0.1681
   82SAPS  H14X 7732   2.687   2.960   9.045  0.8950  0.7692  1.8962
   82SAPS  H14Y 7733   2.789   3.100   9.046 -0.3982  2.1081 -0.6714
   82SAPS  C315 7734   2.663   3.063   8.864 -0.2779  0.4777 -0.5090
   82SAPS  H15X 7735   2.628   3.165   8.838 -2.2781  0.7078  2.7748
   82SAPS  H15Y 7736   2.575   2.998   8.844  0.3398 -1.0199  1.4233
   82SAPS  C316 7737   2.786   3.030   8.779 -0.5018  0.3027  0.2542
   82SAPS  H16X 7738   2.824   2.927   8.794 -0.6316  0.2027 -0.0954
   82SAPS  H16Y 7739   2.865   3.099   8.815 -0.6627 -0.1708  1.5623
   82SAPS  C317 7740   2.767   3.055   8.637 -0.2520  0.1230 -0.1758
   82SAPS  H17X 7741   2.690   3.134   8.619 -1.0043 -0.4207  0.6081
   82SAPS  H17Y 7742   2.725   2.966   8.585 -0.6578 -1.1123  2.2319
   82SAPS  C318 7743   2.895   3.088   8.554 -0.1382 -0.1610 -0.9237
   82SAPS  H18X 7744   2.955   3.167   8.604  0.0296 -2.8378  3.3522
   82SAPS  H18Y 7745   2.865   3.121   8.452  1.0076  1.1157 -0.8637
   82SAPS  H18Z 7746   2.965   3.002   8.543  0.6275  0.3611 -0.2058
   83SAPS     N 7747   3.653   4.193  11.457  0.4831 -0.2955  0.1813
   83SAPS   HN1 7748   3.560   4.201  11.413  0.5790 -0.0902  0.0126
   83SAPS   HN2 7749   3.717   4.131  11.403  1.2569  0.8354 -0.2256
   83SAPS   HN3 7750   3.643   4.160  11.555 -2.9752 -1.9412 -0.6861
   83SAPS   C12 7751   3.689   4.338  11.469 -0.3235 -0.1317 -0.3253
   83SAPS  H12A 7752   3.600   4.397  11.488  0.4075  0.7368  0.4332
   83SAPS   C13 7753   3.790   4.367  11.584  0.1475 -0.1635  0.0055
   83SAPS  O13A 7754   3.809   4.281  11.677 -0.4546 -0.1537 -0.3855
   83SAPS  O13B 7755   3.837   4.483  11.599  0.1986  0.3825  0.6331
   83SAPS   C11 7756   3.758   4.384  11.338  0.5941  0.6081  0.2697
   83SAPS  H11A 7757   3.842   4.319  11.306  0.6341  0.9214 -0.2687
   83SAPS  H11B 7758   3.810   4.482  11.353 -0.8227  1.4057  0.0471
   83SAPS     P 7759   3.697   4.383  11.082 -0.8597 -0.1784  0.0376
   83SAPS   O13 7760   3.827   4.438  11.055 -0.0289 -0.0814 -0.1924
   83SAPS   O14 7761   3.674   4.240  11.055  0.4056  0.4792 -0.5154
   83SAPS   O12 7762   3.658   4.398  11.237  0.1702  0.0318  0.3796
   83SAPS   O11 7763   3.596   4.476  11.009  0.4457  0.4991  0.3891
   83SAPS    C1 7764   3.512   4.569  11.085  0.2409  0.1320 -1.0858
   83SAPS    HA 7765   3.422   4.526  11.133 -0.3031  0.6017 -1.6694
   83SAPS    HB 7766   3.567   4.616  11.169  0.0291 -0.9818 -0.3053
   83SAPS    C2 7767   3.454   4.679  10.987  0.0805  0.5023 -0.6515
   83SAPS    HS 7768   3.409   4.754  11.055  0.3304 -1.9533  2.3194
   83SAPS   O21 7769   3.357   4.613  10.903  0.1385  0.1039  0.5789
   83SAPS   C21 7770   3.263   4.691  10.849  0.1107 -0.4142 -0.1919
   83SAPS   O22 7771   3.246   4.811  10.863  0.4713  0.0467 -0.6267
   83SAPS   C22 7772   3.169   4.602  10.777  0.0078  0.6680 -0.2614
   83SAPS   H2R 7773   3.212   4.526  10.709 -0.0254  0.9006 -0.5390
   83SAPS   H2S 7774   3.106   4.556  10.857  1.1951 -0.7041 -0.1121
   83SAPS    C3 7775   3.557   4.763  10.896 -0.1411 -0.0050  0.2046
   83SAPS    HX 7776   3.614   4.682  10.845 -2.3493 -0.6952 -1.2692
   83SAPS    HY 7777   3.632   4.816  10.958  1.6815 -1.8688 -0.3344
   83SAPS   O31 7778   3.493   4.845  10.792  0.7642  0.3064 -0.5854
   83SAPS   C31 7779   3.566   4.880  10.687 -0.6237  0.1621 -0.0813
   83SAPS   O32 7780   3.684   4.859  10.684  0.2274 -0.0795  0.2232
   83SAPS   C32 7781   3.490   4.982  10.599  0.0419 -0.1723  0.0263
   83SAPS   H2X 7782   3.536   5.074  10.639  2.8516 -2.3131  1.9175
   83SAPS   H2Y 7783   3.383   4.982  10.629 -0.8212  3.3558 -2.6912
   83SAPS   C23 7784   3.063   4.682  10.699 -0.2620 -0.0227 -0.3813
   83SAPS   H3R 7785   3.021   4.775  10.743 -1.7676 -2.0792  2.6449
   83SAPS   H3S 7786   2.971   4.623  10.680 -1.1596  1.6866 -1.5083
   83SAPS   C24 7787   3.120   4.723  10.557 -0.6421 -0.0302 -0.2916
   83SAPS   H4R 7788   3.172   4.634  10.516  0.0421  0.1210  0.2500
   83SAPS   H4S 7789   3.205   4.790  10.582  0.4075 -1.5864  0.3619
   83SAPS   C25 7790   3.021   4.765  10.455 -0.8034  0.2413 -1.1155
   83SAPS   H5R 7791   2.949   4.842  10.489 -1.8444 -1.4741  0.6504
   83SAPS   C26 7792   3.013   4.727  10.329 -0.1515 -0.6132  0.1777
   83SAPS   H6R 7793   2.930   4.765  10.267 -1.3002 -0.5549  1.7213
   83SAPS   C27 7794   3.097   4.626  10.252  0.6555 -0.6173 -0.4945
   83SAPS   H7R 7795   3.039   4.534  10.227 -1.3141  0.7627 -1.1927
   83SAPS   H7S 7796   3.186   4.601  10.312 -0.4624 -0.3629  1.3215
   83SAPS   C28 7797   3.145   4.683  10.117 -0.0809 -0.4336 -0.5712
   83SAPS   H8R 7798   3.253   4.704  10.112  0.2146 -1.7973 -0.3112
   83SAPS   C29 7799   3.069   4.692  10.009 -0.0038  0.4051  0.0095
   83SAPS   H9R 7800   3.112   4.746   9.923  0.8787 -0.5492 -0.1526
   83SAPS  C210 7801   2.915   4.668   9.998 -0.4107 -0.4570 -0.3752
   83SAPS  H10R 7802   2.862   4.766   9.989  0.8124  0.1975 -0.4817
   83SAPS  H10S 7803   2.870   4.627  10.091 -0.2829 -1.4340 -0.7369
   83SAPS  C211 7804   2.870   4.563   9.901 -0.5930  0.6593 -0.2816
   83SAPS  H11R 7805   2.809   4.487   9.952  0.0200  1.6880  2.0705
   83SAPS  C212 7806   2.897   4.558   9.767  0.0279 -0.4449  0.3184
   83SAPS  H12R 7807   2.868   4.465   9.717  1.8217 -0.9202  0.1091
   83SAPS  C213 7808   2.979   4.653   9.685  0.1790  0.2783 -0.2674
   83SAPS  H13R 7809   3.083   4.629   9.718 -0.1990  2.7800  2.9701
   83SAPS  H13S 7810   2.976   4.760   9.713  2.1084 -0.2434  2.0959
   83SAPS  C214 7811   2.946   4.650   9.537 -0.3504 -0.0600  0.0359
   83SAPS  H14R 7812   2.840   4.629   9.519 -0.0731 -1.4012 -0.0374
   83SAPS  C215 7813   3.025   4.677   9.430 -0.0095  0.1233 -0.2007
   83SAPS  H15R 7814   2.980   4.669   9.330  1.4295 -0.3465 -0.8271
   83SAPS  C216 7815   3.170   4.719   9.428  0.2906  0.8053  0.2519
   83SAPS  H16R 7816   3.207   4.706   9.532 -3.4975  0.3260  1.6107
   83SAPS  H16S 7817   3.180   4.827   9.404  0.5708  0.1325 -2.9475
   83SAPS  C217 7818   3.258   4.630   9.337 -0.8308 -0.1078  0.1099
   83SAPS  H17R 7819   3.248   4.521   9.354 -2.1023  0.1073  0.8192
   83SAPS  H17S 7820   3.362   4.652   9.368  0.2647 -2.0375 -2.0088
   83SAPS  C218 7821   3.234   4.663   9.189  0.2484 -0.3099  0.2043
   83SAPS  H18R 7822   3.137   4.619   9.156 -0.3961  1.3982 -0.2219
   83SAPS  H18S 7823   3.316   4.614   9.133  0.2041 -0.7802  0.5475
   83SAPS  C219 7824   3.220   4.810   9.145  0.1790 -0.0334 -0.1661
   83SAPS  H19R 7825   3.134   4.851   9.203  1.0630  0.5932  0.7142
   83SAPS  H19S 7826   3.196   4.822   9.037 -1.2482 -0.3418  0.0976
   83SAPS  C220 7827   3.333   4.896   9.182  0.6006  0.3095 -0.3682
   83SAPS  H20R 7828   3.429   4.871   9.131  2.3054  1.7320  2.0291
   83SAPS  H20S 7829   3.347   4.905   9.292  2.1362  1.6410 -0.6509
   83SAPS  H20T 7830   3.304   4.999   9.154 -1.4427 -0.3900 -0.8995
   83SAPS   C33 7831   3.525   4.954  10.446 -0.0413  0.0774 -0.4213
   83SAPS   H3X 7832   3.507   4.846  10.427 -2.2827  0.4875 -0.7705
   83SAPS   H3Y 7833   3.625   4.982  10.406 -0.0979 -1.6572 -1.8903
   83SAPS   C34 7834   3.434   5.041  10.360 -0.8517  0.2392  0.3431
   83SAPS   H4X 7835   3.482   5.141  10.351 -2.2021  0.8961  0.3832
   83SAPS   H4Y 7836   3.332   5.047  10.405 -0.0400 -0.9411  2.4139
   83SAPS   C35 7837   3.418   4.979  10.219  0.0226  0.8976  0.6149
   83SAPS   H5X 7838   3.347   4.895  10.233 -0.8930  1.9159  2.2615
   83SAPS   H5Y 7839   3.517   4.938  10.188 -0.8385 -0.5658 -0.2194
   83SAPS   C36 7840   3.387   5.076  10.102  1.2571  0.4730 -0.1809
   83SAPS   H6X 7841   3.471   5.147  10.087  0.7072  0.4731 -3.9065
   83SAPS   H6Y 7842   3.290   5.121  10.132  0.9703  1.0443 -1.9033
   83SAPS   C37 7843   3.370   4.993   9.969  0.8121 -0.0446  0.7414
   83SAPS   H7X 7844   3.273   4.941   9.966  1.4140 -1.1715  0.5058
   83SAPS   H7Y 7845   3.453   4.919   9.972 -0.1404 -1.2398 -1.0415
   83SAPS   C38 7846   3.374   5.085   9.840  0.1881 -0.7028 -0.1700
   83SAPS   H8X 7847   3.462   5.152   9.851  1.2818 -2.3683  1.5083
   83SAPS   H8Y 7848   3.284   5.149   9.846  0.4931 -0.4397  2.0825
   83SAPS   C39 7849   3.388   5.013   9.704  0.3894  0.3899  0.1249
   83SAPS   H9X 7850   3.303   4.942   9.711 -1.4687  2.4862 -0.5349
   83SAPS   H9Y 7851   3.483   4.959   9.681 -0.6075 -1.0459 -0.7096
   83SAPS  C310 7852   3.346   5.096   9.585 -0.4300 -0.4356  0.0301
   83SAPS  H10X 7853   3.242   5.128   9.605 -0.4395 -1.2220  1.2979
   83SAPS  H10Y 7854   3.359   5.025   9.500 -1.6391 -2.4811  1.5261
   83SAPS  C311 7855   3.430   5.225   9.558  0.3492 -0.2359  0.2250
   83SAPS  H11X 7856   3.540   5.208   9.554  0.4407  0.0369  1.5475
   83SAPS  H11Y 7857   3.409   5.294   9.642 -1.2136 -1.4847  0.8697
   83SAPS  C312 7858   3.370   5.296   9.430 -0.4551 -0.5757 -0.2003
   83SAPS  H12X 7859   3.285   5.355   9.471  0.1203  1.6817 -2.1914
   83SAPS  H12Y 7860   3.341   5.210   9.366 -0.7604 -2.4483  2.3745
   83SAPS  C313 7861   3.463   5.399   9.373  0.9355 -0.4965 -0.0578
   83SAPS  H13X 7862   3.542   5.343   9.318  1.3144 -0.1097  0.0845
   83SAPS  H13Y 7863   3.511   5.454   9.457  0.5088  1.1628 -0.8875
   83SAPS  C314 7864   3.384   5.502   9.294  0.0646 -0.0351  0.4597
   83SAPS  H14X 7865   3.331   5.576   9.358  1.3507 -0.3975  1.9612
   83SAPS  H14Y 7866   3.300   5.456   9.236 -0.8050 -0.7998  2.2925
   83SAPS  C315 7867   3.470   5.573   9.187  0.0831 -0.0498  0.2139
   83SAPS  H15X 7868   3.537   5.506   9.128  2.6616  0.6458  2.2827
   83SAPS  H15Y 7869   3.537   5.636   9.248 -2.4660  1.5927  1.3718
   83SAPS  C316 7870   3.387   5.668   9.089 -0.4148  0.2796 -0.1711
   83SAPS  H16X 7871   3.453   5.728   9.023 -2.4557  0.8097 -1.7862
   83SAPS  H16Y 7872   3.332   5.736   9.158  0.1837  1.4897 -0.8650
   83SAPS  C317 7873   3.307   5.575   8.997 -0.0603  0.4193 -0.5273
   83SAPS  H17X 7874   3.245   5.509   9.059  0.6372 -0.3076 -0.5954
   83SAPS  H17Y 7875   3.373   5.509   8.935  1.0082  0.0568  0.9777
   83SAPS  C318 7876   3.212   5.656   8.916 -0.2541 -0.2848 -0.1787
   83SAPS  H18X 7877   3.148   5.724   8.976  2.0893  0.6556  1.3120
   83SAPS  H18Y 7878   3.168   5.589   8.839  1.6696 -0.2683 -1.3242
   83SAPS  H18Z 7879   3.270   5.736   8.863  0.9662 -2.3202 -2.0150
   84SAPS     N 7880   4.449   3.774  11.112 -0.7518 -0.2128  0.6982
   84SAPS   HN1 7881   4.489   3.776  11.208 -1.9734  0.3850  1.2087
   84SAPS   HN2 7882   4.353   3.733  11.110 -0.2291 -1.4061 -0.5256
   84SAPS   HN3 7883   4.512   3.717  11.052  1.8472 -0.4518  3.5610
   84SAPS   C12 7884   4.440   3.913  11.054 -0.7967 -0.1202 -0.1182
   84SAPS  H12A 7885   4.393   3.902  10.957  0.1848 -3.5616 -0.2463
   84SAPS   C13 7886   4.345   4.000  11.140 -0.3776  0.2475  0.4639
   84SAPS  O13A 7887   4.291   3.946  11.247 -0.2538  0.2527  0.1870
   84SAPS  O13B 7888   4.314   4.118  11.108  0.3725 -0.4843 -0.0186
   84SAPS   C11 7889   4.576   3.984  11.037 -0.1156 -0.3347 -0.0053
   84SAPS  H11A 7890   4.612   4.018  11.136 -2.8435  0.0316  0.9153
   84SAPS  H11B 7891   4.540   4.070  10.977 -1.0051 -0.6770  0.0252
   84SAPS     P 7892   4.814   3.967  10.956 -0.1468 -0.1247 -0.6294
   84SAPS   O13 7893   4.813   4.116  10.956 -0.5397 -0.0648 -0.6599
   84SAPS   O14 7894   4.892   3.903  11.060  0.0218  0.6012 -0.1271
   84SAPS   O12 7895   4.670   3.910  10.960  0.6198 -0.2224  0.0743
   84SAPS   O11 7896   4.868   3.921  10.828 -0.5385 -0.0859  0.5364
   84SAPS    C1 7897   4.838   3.795  10.768 -0.3460 -0.1362 -0.2702
   84SAPS    HA 7898   4.932   3.735  10.772 -1.7856 -2.5142 -0.9692
   84SAPS    HB 7899   4.768   3.732  10.827 -1.7047 -0.1606 -1.8717
   84SAPS    C2 7900   4.769   3.815  10.623 -0.3349  0.2845 -0.0355
   84SAPS    HS 7901   4.768   3.712  10.580 -1.0739  0.7981 -1.2605
   84SAPS   O21 7902   4.856   3.901  10.552  0.2046  0.4339 -0.3342
   84SAPS   C21 7903   4.873   3.869  10.422  0.5946  0.4954  0.4234
   84SAPS   O22 7904   4.819   3.775  10.368 -0.1074 -0.0974  0.9739
   84SAPS   C22 7905   4.944   3.975  10.350  0.3075 -0.2318  0.4838
   84SAPS   H2R 7906   4.877   4.058  10.319  1.1010  0.6864  1.1808
   84SAPS   H2S 7907   5.030   4.000  10.416  1.4333 -1.0719 -0.6471
   84SAPS    C3 7908   4.621   3.861  10.635 -0.0848 -0.8458  0.9006
   84SAPS    HX 7909   4.617   3.969  10.663  1.0351 -0.8510  1.1037
   84SAPS    HY 7910   4.567   3.817  10.721 -2.2344  0.4306  0.2389
   84SAPS   O31 7911   4.550   3.830  10.520  0.7725 -0.5233 -0.4852
   84SAPS   C31 7912   4.544   3.933  10.429  0.0849 -0.1041  0.0050
   84SAPS   O32 7913   4.595   4.041  10.437 -0.6363 -0.0594  0.1375
   84SAPS   C32 7914   4.464   3.885  10.303 -0.8820 -0.5450  0.0496
   84SAPS   H2X 7915   4.363   3.866  10.345 -1.4663  0.7984 -0.7415
   84SAPS   H2Y 7916   4.494   3.781  10.277 -1.4927 -0.9498  0.9539
   84SAPS   C23 7917   5.005   3.919  10.217  0.0743 -0.3721  0.0981
   84SAPS   H3R 7918   4.925   3.901  10.143  0.0480  1.1404 -0.2636
   84SAPS   H3S 7919   5.056   3.824  10.244  0.1341 -0.8170 -1.5490
   84SAPS   C24 7920   5.108   4.011  10.158  0.7569 -0.0265 -0.2539
   84SAPS   H4R 7921   5.190   4.021  10.233 -0.8298  0.0089  1.5091
   84SAPS   H4S 7922   5.064   4.113  10.149  0.8490 -0.0238 -0.6997
   84SAPS   C25 7923   5.166   3.951  10.031  0.0769 -0.1213 -0.1060
   84SAPS   H5R 7924   5.247   3.877  10.041  1.5689  1.8090  2.7664
   84SAPS   C26 7925   5.117   3.981   9.911  0.2748  0.1297  0.1363
   84SAPS   H6R 7926   5.163   3.922   9.830 -1.1970 -0.9114  0.0407
   84SAPS   C27 7927   4.998   4.062   9.870 -0.3653 -0.1489  0.0131
   84SAPS   H7R 7928   5.039   4.137   9.800 -2.3816 -0.6779 -1.7873
   84SAPS   H7S 7929   4.938   4.102   9.955  1.4305 -0.8713  1.6668
   84SAPS   C28 7930   4.899   3.972   9.799 -0.5508  0.0297  0.4168
   84SAPS   H8R 7931   4.914   3.865   9.822  3.5627  0.4049 -0.0490
   84SAPS   C29 7932   4.824   4.007   9.686 -0.3693 -0.1545 -0.0283
   84SAPS   H9R 7933   4.753   3.928   9.658  1.3925 -1.9092  0.3882
   84SAPS  C210 7934   4.818   4.145   9.622  0.4638 -0.6250  0.4606
   84SAPS  H10R 7935   4.844   4.229   9.691  0.0768  0.8346 -1.1388
   84SAPS  H10S 7936   4.718   4.184   9.593  1.5439  0.4415 -2.0268
   84SAPS  C211 7937   4.895   4.149   9.486  0.7509  0.0585 -0.4336
   84SAPS  H11R 7938   4.861   4.059   9.432 -0.7605  1.4188 -1.7604
   84SAPS  C212 7939   4.987   4.235   9.439 -0.1085 -0.7298  0.0422
   84SAPS  H12R 7940   5.034   4.213   9.343  0.9308  0.1828  0.3348
   84SAPS  C213 7941   5.048   4.357   9.511  0.2437 -0.4452 -0.3703
   84SAPS  H13R 7942   5.130   4.403   9.452 -1.2186  0.8684 -1.4021
   84SAPS  H13S 7943   5.102   4.333   9.605 -2.1833 -1.1752  0.8790
   84SAPS  C214 7944   4.950   4.468   9.544  0.2853 -0.1680 -0.2111
   84SAPS  H14R 7945   4.890   4.513   9.463 -0.9508 -0.7183  0.3857
   84SAPS  C215 7946   4.918   4.531   9.660 -0.1586 -0.1678  0.0789
   84SAPS  H15R 7947   4.838   4.606   9.649  2.0371  1.7058 -4.1310
   84SAPS  C216 7948   4.973   4.511   9.800  1.1534  0.0643  0.6984
   84SAPS  H16R 7949   5.021   4.412   9.817 -1.9157 -1.5008  0.4568
   84SAPS  H16S 7950   4.889   4.522   9.872 -1.0800  2.7963 -2.2326
   84SAPS  C217 7951   5.080   4.613   9.845  0.8354 -0.3490 -0.5035
   84SAPS  H17R 7952   5.040   4.716   9.838 -0.9992 -0.9063  1.3307
   84SAPS  H17S 7953   5.179   4.602   9.795  0.9661  1.7318 -0.7372
   84SAPS  C218 7954   5.105   4.585   9.993 -0.2714 -0.3485  0.2741
   84SAPS  H18R 7955   5.143   4.481   9.992 -0.4414 -0.4141  0.6622
   84SAPS  H18S 7956   5.004   4.588  10.038 -0.0104 -2.2453  1.0161
   84SAPS  C219 7957   5.200   4.680  10.066  0.2495  0.0360 -0.9807
   84SAPS  H19R 7958   5.307   4.653  10.051 -0.0600 -0.5831 -2.0994
   84SAPS  H19S 7959   5.181   4.670  10.175  0.7089 -1.1792 -1.0080
   84SAPS  C220 7960   5.179   4.834  10.035  0.2005  0.3297  0.5663
   84SAPS  H20R 7961   5.078   4.872  10.062  0.1915 -0.4566  1.6443
   84SAPS  H20S 7962   5.177   4.855   9.926  2.3244  2.9825  0.9786
   84SAPS  H20T 7963   5.262   4.894  10.079 -1.5449  0.4364  3.8881
   84SAPS   C33 7964   4.467   3.968  10.174 -0.1757  0.2461 -0.1141
   84SAPS   H3X 7965   4.564   4.022  10.171  0.9434 -1.5573  2.0120
   84SAPS   H3Y 7966   4.391   4.048  10.185 -0.1762  0.3383 -0.7223
   84SAPS   C34 7967   4.457   3.877  10.046 -0.5692 -0.4468 -0.4380
   84SAPS   H4X 7968   4.350   3.846  10.042 -1.4982  2.2311  2.1126
   84SAPS   H4Y 7969   4.508   3.779  10.040  2.0098  0.8572 -0.3031
   84SAPS   C35 7970   4.473   3.960   9.924 -0.6636 -0.6968  0.5066
   84SAPS   H5X 7971   4.581   3.974   9.905 -0.8533  2.1844  1.3745
   84SAPS   H5Y 7972   4.438   4.063   9.945  0.8571 -0.1661  0.4630
   84SAPS   C36 7973   4.404   3.908   9.802 -1.0414 -0.5251  0.0815
   84SAPS   H6X 7974   4.294   3.923   9.816 -0.7088  0.4032  1.8242
   84SAPS   H6Y 7975   4.438   3.804   9.782 -1.8951 -1.2601  2.2854
   84SAPS   C37 7976   4.437   3.989   9.675  0.6770 -0.3384  0.4202
   84SAPS   H7X 7977   4.542   3.984   9.640  0.5386  3.2069 -0.6871
   84SAPS   H7Y 7978   4.407   4.093   9.700  0.7749 -0.0565 -0.6183
   84SAPS   C38 7979   4.357   3.952   9.552 -0.3431 -0.6632  0.2546
   84SAPS   H8X 7980   4.411   4.015   9.477  1.0745 -1.1852  0.8152
   84SAPS   H8Y 7981   4.250   3.973   9.569 -0.9650 -2.1021 -1.6864
   84SAPS   C39 7982   4.377   3.811   9.505 -0.0968  0.0860  0.8374
   84SAPS   H9X 7983   4.304   3.795   9.423 -0.0302  1.9232  0.4024
   84SAPS   H9Y 7984   4.348   3.752   9.595 -1.6124  1.6076  1.3787
   84SAPS  C310 7985   4.519   3.780   9.464  0.2166 -0.7192  0.8351
   84SAPS  H10X 7986   4.589   3.792   9.550 -0.0409 -1.3937  1.1479
   84SAPS  H10Y 7987   4.556   3.842   9.380  0.3896 -2.4087 -0.3649
   84SAPS  C311 7988   4.544   3.637   9.428 -0.1548  0.1004 -0.1119
   84SAPS  H11X 7989   4.546   3.567   9.514  0.5291  2.7376  2.1182
   84SAPS  H11Y 7990   4.651   3.639   9.398  0.2801  0.0590  1.3969
   84SAPS  C312 7991   4.459   3.575   9.315 -0.1757  0.1777 -0.0863
   84SAPS  H12X 7992   4.351   3.588   9.341 -0.7044 -2.3092 -0.8964
   84SAPS  H12Y 7993   4.482   3.466   9.312  2.4184  0.6406  1.6141
   84SAPS  C313 7994   4.485   3.636   9.172  0.0224  0.1297  0.3494
   84SAPS  H13X 7995   4.595   3.639   9.166  0.0573 -1.4240  0.0078
   84SAPS  H13Y 7996   4.443   3.739   9.167  1.0198  0.4169 -3.1156
   84SAPS  C314 7997   4.428   3.547   9.058  0.6838 -0.0373  0.3867
   84SAPS  H14X 7998   4.317   3.544   9.055  0.6695  1.5139 -1.9417
   84SAPS  H14Y 7999   4.473   3.446   9.064 -1.1128 -0.7536  2.5808
   84SAPS  C315 8000   4.466   3.602   8.922  0.9835  0.4233 -0.0673
   84SAPS  H15X 8001   4.571   3.639   8.913  0.4614  1.8880 -0.3224
   84SAPS  H15Y 8002   4.411   3.696   8.900  0.6595  0.7566  2.1111
   84SAPS  C316 8003   4.455   3.500   8.813 -0.0887  0.3046 -0.5004
   84SAPS  H16X 8004   4.348   3.486   8.789  0.0996 -1.2423 -0.4416
   84SAPS  H16Y 8005   4.491   3.401   8.847  1.2127  1.0163  0.2560
   84SAPS  C317 8006   4.527   3.555   8.690 -0.2468  0.0590  0.3190
   84SAPS  H17X 8007   4.542   3.466   8.625  0.7048  0.3032  0.1874
   84SAPS  H17Y 8008   4.633   3.587   8.706 -0.6524  1.2476  0.6632
   84SAPS  C318 8009   4.456   3.669   8.617 -0.4405 -0.2054 -0.4024
   84SAPS  H18X 8010   4.491   3.685   8.512 -0.7831  1.1330 -0.3232
   84SAPS  H18Y 8011   4.475   3.767   8.665 -1.0661 -0.6570  0.7977
   84SAPS  H18Z 8012   4.347   3.648   8.620 -0.9607  2.6078  1.4971
   85SAPS     N 8013   1.647   6.702  10.733 -0.4305 -0.7915  0.3551
   85SAPS   HN1 8014   1.556   6.704  10.682  0.5427  1.1145 -1.4172
   85SAPS   HN2 8015   1.669   6.803  10.748  0.0603 -0.8234 -0.1362
   85SAPS   HN3 8016   1.710   6.655  10.665 -0.3250  0.0361 -0.1270
   85SAPS   C12 8017   1.643   6.635  10.862 -0.9392  0.5714 -0.3568
   85SAPS  H12A 8018   1.742   6.597  10.881 -0.9523  0.9902  0.5645
   85SAPS   C13 8019   1.620   6.726  10.986  0.2881  0.4687 -0.0992
   85SAPS  O13A 8020   1.584   6.848  10.973 -0.6862 -0.6852  0.4775
   85SAPS  O13B 8021   1.615   6.666  11.095  0.5299  0.8275 -0.0137
   85SAPS   C11 8022   1.539   6.517  10.856 -0.1972 -0.9012 -0.3258
   85SAPS  H11A 8023   1.447   6.572  10.825  0.9304  0.0958 -2.0108
   85SAPS  H11B 8024   1.520   6.465  10.952 -1.9832  1.3620  0.5703
   85SAPS     P 8025   1.605   6.275  10.790  0.0651  0.2285  0.0438
   85SAPS   O13 8026   1.682   6.254  10.916 -0.6314  0.1396 -0.4871
   85SAPS   O14 8027   1.467   6.214  10.781  0.1986 -0.4673  0.0644
   85SAPS   O12 8028   1.584   6.427  10.751 -0.3171 -0.0371 -0.5940
   85SAPS   O11 8029   1.695   6.226  10.663 -0.1996 -0.3401 -0.1072
   85SAPS    C1 8030   1.831   6.271  10.654  0.0425 -0.1211 -0.0717
   85SAPS    HA 8031   1.842   6.374  10.613  0.0940 -0.4804 -0.9706
   85SAPS    HB 8032   1.875   6.263  10.756  1.2705  0.4792 -0.5412
   85SAPS    C2 8033   1.913   6.190  10.549  0.0736 -0.4222 -0.6856
   85SAPS    HS 8034   2.004   6.254  10.542 -0.4615  0.6240  1.3478
   85SAPS   O21 8035   1.846   6.167  10.425  0.4250  1.2563 -0.0318
   85SAPS   C21 8036   1.832   6.274  10.347  0.7906 -0.7083 -0.6607
   85SAPS   O22 8037   1.880   6.381  10.369 -0.0216 -1.0890  0.4484
   85SAPS   C22 8038   1.757   6.241  10.217 -0.5392 -0.1544 -0.6964
   85SAPS   H2R 8039   1.710   6.141  10.226 -1.6432  0.5681  1.9360
   85SAPS   H2S 8040   1.671   6.308  10.197 -1.1545  0.0601  2.4243
   85SAPS    C3 8041   1.954   6.054  10.607 -0.1217 -0.2275  0.6054
   85SAPS    HX 8042   1.862   5.993  10.603  0.4537 -1.1000  0.5123
   85SAPS    HY 8043   1.982   6.062  10.715 -0.8333 -0.7252  0.8332
   85SAPS   O31 8044   2.054   5.979  10.528 -0.4638  0.4947 -0.0049
   85SAPS   C31 8045   2.184   5.996  10.567 -0.0132 -0.1986  0.0881
   85SAPS   O32 8046   2.215   6.077  10.651 -0.0139  0.2837 -0.1111
   85SAPS   C32 8047   2.282   5.903  10.499  0.8517 -0.0222 -1.2206
   85SAPS   H2X 8048   2.237   5.801  10.495  1.5923 -0.4931  1.4290
   85SAPS   H2Y 8049   2.365   5.895  10.572 -1.0182  1.5251  1.1417
   85SAPS   C23 8050   1.858   6.237  10.101 -0.8515 -0.2541  1.1708
   85SAPS   H3R 8051   1.930   6.153  10.109 -1.3117 -0.8869 -0.9347
   85SAPS   H3S 8052   1.925   6.325  10.089  0.3771 -1.0564  2.0373
   85SAPS   C24 8053   1.788   6.220   9.961  0.2784 -0.3269 -0.6545
   85SAPS   H4R 8054   1.744   6.322   9.950  0.5466 -0.3003 -1.4958
   85SAPS   H4S 8055   1.710   6.142   9.970  0.7290 -0.6053  0.8948
   85SAPS   C25 8056   1.891   6.195   9.859  0.4364  1.2512  0.5025
   85SAPS   H5R 8057   1.962   6.114   9.884 -1.2162  0.1960  1.8375
   85SAPS   C26 8058   1.893   6.248   9.736 -0.1776  0.4430  0.6303
   85SAPS   H6R 8059   1.973   6.209   9.671 -0.4847  1.5827 -0.4271
   85SAPS   C27 8060   1.808   6.361   9.671 -0.3290 -0.9675 -0.0636
   85SAPS   H7R 8061   1.875   6.429   9.614 -0.2404 -0.4993  0.5927
   85SAPS   H7S 8062   1.763   6.431   9.745  0.4758 -0.3789 -0.1307
   85SAPS   C28 8063   1.706   6.283   9.587 -0.3852 -0.3200 -0.3003
   85SAPS   H8R 8064   1.609   6.249   9.627 -0.0388 -0.9192  0.0307
   85SAPS   C29 8065   1.727   6.249   9.459 -0.7594  0.1463 -0.4265
   85SAPS   H9R 8066   1.653   6.193   9.400 -0.3160 -2.8735  1.7599
   85SAPS  C210 8067   1.848   6.265   9.367 -0.4288 -0.0569 -0.7132
   85SAPS  H10R 8068   1.910   6.355   9.387  0.7490 -0.8968 -0.4511
   85SAPS  H10S 8069   1.817   6.280   9.261 -0.8550  0.2518 -0.5439
   85SAPS  C211 8070   1.953   6.151   9.371 -0.4034  0.1222  0.3117
   85SAPS  H11R 8071   1.932   6.082   9.454  1.2442  0.0461  0.6882
   85SAPS  C212 8072   2.043   6.117   9.279  0.4730  0.2001  0.2094
   85SAPS  H12R 8073   2.113   6.033   9.293 -1.3087 -1.2660  0.4242
   85SAPS  C213 8074   2.065   6.212   9.161  0.3153 -0.2659 -0.1410
   85SAPS  H13R 8075   2.167   6.255   9.167  0.0072  0.3453  0.7238
   85SAPS  H13S 8076   1.990   6.294   9.159 -0.6549 -1.1317  0.3911
   85SAPS  C214 8077   2.060   6.120   9.040 -0.0684  0.2837 -0.1974
   85SAPS  H14R 8078   2.134   6.039   9.038  0.6992  0.9099  1.9500
   85SAPS  C215 8079   1.977   6.128   8.940  0.8783  0.1393 -0.0108
   85SAPS  H15R 8080   1.982   6.057   8.856 -0.4244 -0.2338  0.2164
   85SAPS  C216 8081   1.870   6.246   8.920 -0.4633  0.4286  0.0133
   85SAPS  H16R 8082   1.864   6.314   9.007 -2.3238  0.3649 -0.0401
   85SAPS  H16S 8083   1.772   6.195   8.903 -0.2874  0.0860  0.0179
   85SAPS  C217 8084   1.898   6.311   8.786  0.5875  0.0634 -0.1263
   85SAPS  H17R 8085   1.922   6.240   8.704  2.3032  0.2925  0.1756
   85SAPS  H17S 8086   1.990   6.370   8.805  2.1948 -1.7955 -1.9343
   85SAPS  C218 8087   1.777   6.394   8.742  0.0268 -0.4335  0.1964
   85SAPS  H18R 8088   1.731   6.437   8.833 -1.6943  0.3996 -1.0500
   85SAPS  H18S 8089   1.703   6.325   8.695  1.8370 -0.9228 -2.0498
   85SAPS  C219 8090   1.816   6.514   8.644 -0.6979 -0.5031  0.3258
   85SAPS  H19R 8091   1.900   6.565   8.696 -4.4337  1.1638  5.0729
   85SAPS  H19S 8092   1.734   6.589   8.650  1.0826  1.5315 -0.0506
   85SAPS  C220 8093   1.861   6.477   8.503  0.1378 -0.9090 -0.8076
   85SAPS  H20R 8094   1.775   6.435   8.447 -2.0666  0.4830  1.4517
   85SAPS  H20S 8095   1.939   6.398   8.508  2.0442  1.0137  1.3725
   85SAPS  H20T 8096   1.906   6.565   8.454 -0.7486  0.6233  1.0795
   85SAPS   C33 8097   2.343   5.945  10.363  0.1795 -0.5579  0.1876
   85SAPS   H3X 8098   2.431   5.881  10.342  0.6478  0.3896 -0.7698
   85SAPS   H3Y 8099   2.389   6.045  10.375  1.1705 -0.6921 -2.2179
   85SAPS   C34 8100   2.245   5.940  10.254  0.1933 -0.2761  0.3465
   85SAPS   H4X 8101   2.183   6.032  10.260  0.3626  0.1366 -3.2735
   85SAPS   H4Y 8102   2.183   5.850  10.269  0.0855  0.0080  1.6780
   85SAPS   C35 8103   2.313   5.926  10.117 -0.5045  0.1403 -0.0018
   85SAPS   H5X 8104   2.356   5.823  10.126  2.5214  1.0550 -3.1602
   85SAPS   H5Y 8105   2.389   6.005  10.099 -1.3424  0.4849 -2.2374
   85SAPS   C36 8106   2.209   5.932  10.004 -0.4754  0.4072  0.4767
   85SAPS   H6X 8107   2.148   6.025  10.010 -0.7527  0.0993  3.1502
   85SAPS   H6Y 8108   2.150   5.842  10.029  2.1216 -1.5496 -0.2889
   85SAPS   C37 8109   2.273   5.904   9.866  0.8964 -0.1770 -0.0232
   85SAPS   H7X 8110   2.342   5.819   9.883 -0.1568 -1.2813 -1.1557
   85SAPS   H7Y 8111   2.332   5.995   9.843  0.6283  0.7680  2.8388
   85SAPS   C38 8112   2.172   5.872   9.756  0.5968  0.0712 -0.0642
   85SAPS   H8X 8113   2.093   5.949   9.752  1.3236  0.8197 -0.2618
   85SAPS   H8Y 8114   2.124   5.776   9.786 -0.9170  1.1902  1.1422
   85SAPS   C39 8115   2.257   5.849   9.628 -0.0537 -0.3269 -0.1896
   85SAPS   H9X 8116   2.323   5.767   9.665 -0.3760 -0.7281 -0.4957
   85SAPS   H9Y 8117   2.320   5.939   9.610 -1.6646  0.5435 -1.5590
   85SAPS  C310 8118   2.177   5.807   9.507  0.2435 -0.1880 -0.2764
   85SAPS  H10X 8119   2.112   5.894   9.485  1.0830  0.9029  1.3919
   85SAPS  H10Y 8120   2.124   5.711   9.525  0.3177 -0.3539 -0.9464
   85SAPS  C311 8121   2.276   5.776   9.398  0.0027 -0.4705 -0.3507
   85SAPS  H11X 8122   2.343   5.693   9.428  0.7171  0.6519  1.2810
   85SAPS  H11Y 8123   2.336   5.864   9.366  0.1811  0.1617  1.6319
   85SAPS  C312 8124   2.200   5.726   9.274  1.2321  0.1635  0.5781
   85SAPS  H12X 8125   2.134   5.804   9.231  2.3614  0.8902  0.1424
   85SAPS  H12Y 8126   2.145   5.632   9.297  1.2221  0.3696  1.4121
   85SAPS  C313 8127   2.307   5.695   9.158  1.0906 -0.7654  0.2307
   85SAPS  H13X 8128   2.326   5.585   9.153 -1.5573 -1.2897  0.8203
   85SAPS  H13Y 8129   2.401   5.743   9.194  0.7912 -0.9310  1.2470
   85SAPS  C314 8130   2.252   5.734   9.017 -0.5797 -0.3344  0.0637
   85SAPS  H14X 8131   2.334   5.734   8.941  0.2273 -0.2948  0.9347
   85SAPS  H14Y 8132   2.206   5.834   9.025 -0.0742  0.0620 -1.6484
   85SAPS  C315 8133   2.145   5.639   8.965  0.3837 -0.6054  0.6107
   85SAPS  H15X 8134   2.045   5.667   9.005  0.3812 -1.5261  1.2601
   85SAPS  H15Y 8135   2.160   5.535   9.002  1.6398 -0.7169 -0.1683
   85SAPS  C316 8136   2.129   5.629   8.813  0.2435  0.5956 -0.8457
   85SAPS  H16X 8137   2.090   5.724   8.771 -0.5447  0.6658  0.0383
   85SAPS  H16Y 8138   2.057   5.546   8.797  2.0356 -1.2874  0.4336
   85SAPS  C317 8139   2.257   5.586   8.736 -0.3729  0.3832 -0.7364
   85SAPS  H17X 8140   2.294   5.485   8.764  0.6734  0.4095 -1.9753
   85SAPS  H17Y 8141   2.344   5.654   8.751  1.8182 -2.6691  1.1659
   85SAPS  C318 8142   2.235   5.574   8.576  0.0839  0.0840  0.1822
   85SAPS  H18X 8143   2.309   5.642   8.530 -0.2856  0.7202  0.5287
   85SAPS  H18Y 8144   2.132   5.594   8.539 -0.1920 -2.6403 -0.6170
   85SAPS  H18Z 8145   2.262   5.471   8.545 -0.1830 -0.2026  0.8745
   86SAPS     N 8146   3.891   5.746  11.021  0.2048  0.4523 -0.4095
   86SAPS   HN1 8147   3.892   5.643  11.038 -3.3282  0.6107  1.1805
   86SAPS   HN2 8148   3.792   5.778  11.009  0.0487  0.1478  0.0380
   86SAPS   HN3 8149   3.935   5.753  10.928 -0.0434 -1.4793 -0.6881
   86SAPS   C12 8150   3.957   5.810  11.147 -0.3833 -0.0771 -0.0336
   86SAPS  H12A 8151   3.984   5.910  11.115 -0.3697  0.7867  2.5852
   86SAPS   C13 8152   3.868   5.816  11.276  0.3231 -0.4470  0.1184
   86SAPS  O13A 8153   3.760   5.746  11.270  0.2238 -0.2425 -0.2382
   86SAPS  O13B 8154   3.917   5.870  11.375 -0.3864 -0.2486  0.0636
   86SAPS   C11 8155   4.086   5.722  11.176  0.7579 -0.2839  0.3169
   86SAPS  H11A 8156   4.055   5.628  11.224 -1.9505  2.0306  3.3058
   86SAPS  H11B 8157   4.148   5.760  11.260  0.7029  0.8594 -0.1464
   86SAPS     P 8158   4.286   5.786  11.009  0.4704  0.4666  0.0996
   86SAPS   O13 8159   4.340   5.875  11.115 -0.7677 -0.1993 -0.2818
   86SAPS   O14 8160   4.394   5.690  10.959  0.0962 -0.8223  0.4903
   86SAPS   O12 8161   4.165   5.701  11.064  0.2223 -0.2170 -0.3465
   86SAPS   O11 8162   4.230   5.873  10.886 -0.3104 -0.7436  0.2848
   86SAPS    C1 8163   4.189   5.814  10.766 -0.6069  0.1083  0.2240
   86SAPS    HA 8164   4.168   5.707  10.783 -2.8202  0.7196  1.4675
   86SAPS    HB 8165   4.093   5.858  10.732 -0.9251  0.9888  2.2143
   86SAPS    C2 8166   4.296   5.842  10.654  0.7073  0.5006 -0.1283
   86SAPS    HS 8167   4.396   5.843  10.703  0.5607  1.4280  0.1663
   86SAPS   O21 8168   4.269   5.972  10.593  0.3353  0.3694 -0.1947
   86SAPS   C21 8169   4.364   6.040  10.541  0.8052 -0.2133  0.4570
   86SAPS   O22 8170   4.483   6.018  10.537  0.0995  0.1589  0.2085
   86SAPS   C22 8171   4.297   6.165  10.492  0.2115 -0.3923 -0.5921
   86SAPS   H2R 8172   4.188   6.151  10.508  0.1251 -1.3424 -1.8700
   86SAPS   H2S 8173   4.344   6.250  10.546 -1.9353 -1.1263  2.4985
   86SAPS    C3 8174   4.287   5.724  10.550 -0.0250  1.0217  0.0466
   86SAPS    HX 8175   4.181   5.719  10.516 -0.8346  1.7083  2.3807
   86SAPS    HY 8176   4.304   5.630  10.608 -1.4043  0.4674 -0.4204
   86SAPS   O31 8177   4.373   5.741  10.440 -0.2074 -0.3737  0.3975
   86SAPS   C31 8178   4.506   5.710  10.465  1.1097  0.1160 -1.0177
   86SAPS   O32 8179   4.547   5.666  10.572  0.0376  0.4163  1.0354
   86SAPS   C32 8180   4.589   5.736  10.339 -0.1931  0.6276  0.4578
   86SAPS   H2X 8181   4.695   5.710  10.358 -0.9245 -1.7037  1.6000
   86SAPS   H2Y 8182   4.595   5.847  10.333  0.6706  0.6857  2.1883
   86SAPS   C23 8183   4.324   6.189  10.340  0.6054 -0.0237 -0.6116
   86SAPS   H3R 8184   4.246   6.247  10.287 -2.3577 -0.2995  3.2271
   86SAPS   H3S 8185   4.318   6.093  10.285  0.8486 -0.3177 -0.1373
   86SAPS   C24 8186   4.461   6.246  10.292  0.6432  0.4393 -0.5883
   86SAPS   H4R 8187   4.469   6.231  10.183 -2.8772 -0.2477 -0.8151
   86SAPS   H4S 8188   4.536   6.182  10.343  1.0077  1.1050 -0.2792
   86SAPS   C25 8189   4.484   6.381  10.355 -0.6280 -0.2514 -0.3546
   86SAPS   H5R 8190   4.547   6.392  10.445  0.8796 -1.6436 -1.2119
   86SAPS   C26 8191   4.450   6.495  10.297 -0.6175 -0.0140 -0.0851
   86SAPS   H6R 8192   4.476   6.587  10.352  0.2934 -1.3945  1.8570
   86SAPS   C27 8193   4.387   6.521  10.160 -0.6395 -0.2274  0.0616
   86SAPS   H7R 8194   4.372   6.424  10.108 -2.6509 -0.5288  1.1864
   86SAPS   H7S 8195   4.444   6.595  10.099  1.3013 -0.6921  1.2461
   86SAPS   C28 8196   4.242   6.572  10.175  1.0771  0.6021  0.7509
   86SAPS   H8R 8197   4.198   6.577  10.276  1.3148 -3.0012  1.0912
   86SAPS   C29 8198   4.163   6.598  10.068 -0.1990  0.2699  0.1407
   86SAPS   H9R 8199   4.062   6.621  10.105 -0.2395  1.8018 -0.8838
   86SAPS  C210 8200   4.194   6.584   9.923 -0.5590  0.1276 -0.3777
   86SAPS  H10R 8201   4.182   6.478   9.891  2.4235 -0.6517  0.9573
   86SAPS  H10S 8202   4.295   6.625   9.901 -0.0613 -0.2611  1.1512
   86SAPS  C211 8203   4.091   6.670   9.843 -0.2223 -0.2109 -0.2444
   86SAPS  H11R 8204   4.004   6.707   9.900 -0.5562 -0.8588 -0.3286
   86SAPS  C212 8205   4.107   6.712   9.716  0.3311 -0.4024 -0.3733
   86SAPS  H12R 8206   4.024   6.761   9.664 -0.4428 -0.3758  0.8621
   86SAPS  C213 8207   4.230   6.682   9.641 -0.1556  0.5208  0.0688
   86SAPS  H13R 8208   4.313   6.704   9.712  0.4446 -1.7919  0.1220
   86SAPS  H13S 8209   4.256   6.767   9.574  2.4377  0.9236  1.5186
   86SAPS  C214 8210   4.257   6.548   9.586 -0.3329 -0.2639  0.6699
   86SAPS  H14R 8211   4.260   6.458   9.648 -0.3053 -0.3590  0.5286
   86SAPS  C215 8212   4.261   6.526   9.452 -0.1845  0.1750  0.5661
   86SAPS  H15R 8213   4.277   6.422   9.421 -1.7598 -1.1324  3.8392
   86SAPS  C216 8214   4.243   6.615   9.330 -0.4788  0.1186  0.2364
   86SAPS  H16R 8215   4.199   6.713   9.357  0.1092 -0.0887  1.9787
   86SAPS  H16S 8216   4.160   6.573   9.269  0.5898 -2.5247  0.5399
   86SAPS  C217 8217   4.364   6.608   9.242  0.0511 -0.4788 -0.3754
   86SAPS  H17R 8218   4.381   6.501   9.218 -3.0932 -1.0550 -0.3375
   86SAPS  H17S 8219   4.454   6.660   9.280  0.3185 -2.4089  1.8020
   86SAPS  C218 8220   4.341   6.664   9.104  0.2561 -0.1067 -0.0330
   86SAPS  H18R 8221   4.373   6.771   9.100  1.8596 -0.6348 -3.0175
   86SAPS  H18S 8222   4.234   6.677   9.078  0.9048  1.3562 -2.1031
   86SAPS  C219 8223   4.411   6.587   8.982 -0.1356  0.2530  0.5473
   86SAPS  H19R 8224   4.381   6.481   8.964 -0.0559  0.6204 -1.9514
   86SAPS  H19S 8225   4.516   6.575   9.017  0.4815 -1.1427 -1.6634
   86SAPS  C220 8226   4.416   6.655   8.844 -0.0802  0.4827  0.1364
   86SAPS  H20R 8227   4.477   6.598   8.771  0.6155 -2.8574  3.1811
   86SAPS  H20S 8228   4.472   6.750   8.832  1.9198 -1.0642 -3.4226
   86SAPS  H20T 8229   4.316   6.670   8.798  0.3165  1.7461 -0.3262
   86SAPS   C33 8230   4.546   5.677  10.208 -0.0034  0.2260 -1.2114
   86SAPS   H3X 8231   4.499   5.577  10.219 -0.9309  0.8268  0.2886
   86SAPS   H3Y 8232   4.641   5.668  10.150  1.2416 -1.0661  0.9663
   86SAPS   C34 8233   4.439   5.768  10.142  0.0954  0.2080  0.7156
   86SAPS   H4X 8234   4.364   5.801  10.217 -0.7767 -2.0939  0.8819
   86SAPS   H4Y 8235   4.386   5.704  10.068 -1.8674  2.5503  0.0333
   86SAPS   C35 8236   4.505   5.881  10.067 -0.7752  0.2894  0.7851
   86SAPS   H5X 8237   4.565   5.949  10.131  2.1801  0.0038 -1.5540
   86SAPS   H5Y 8238   4.425   5.940  10.018 -0.1325  0.6551  0.1714
   86SAPS   C36 8239   4.600   5.842   9.952  0.3472 -0.4073  1.1688
   86SAPS   H6X 8240   4.679   5.769   9.981  0.8344 -0.1779  0.4317
   86SAPS   H6Y 8241   4.657   5.934   9.927  0.8632 -0.2030  3.0096
   86SAPS   C37 8242   4.523   5.789   9.828  0.0687 -0.1632 -0.0981
   86SAPS   H7X 8243   4.451   5.869   9.803  0.0215 -0.3841 -0.6876
   86SAPS   H7Y 8244   4.457   5.701   9.850  0.6915 -0.4523  0.6448
   86SAPS   C38 8245   4.612   5.743   9.704  0.0003  0.1980  0.5539
   86SAPS   H8X 8246   4.688   5.670   9.739 -1.3813 -0.8709  1.3553
   86SAPS   H8Y 8247   4.664   5.832   9.662  0.0145 -1.2917 -2.7638
   86SAPS   C39 8248   4.525   5.679   9.592  0.3603  0.5203 -0.3772
   86SAPS   H9X 8249   4.447   5.622   9.647  1.0898 -1.8682 -1.7515
   86SAPS   H9Y 8250   4.582   5.603   9.535  0.9165 -0.5942  1.6212
   86SAPS  C310 8251   4.455   5.776   9.488  0.0907 -0.1191 -0.1130
   86SAPS  H10X 8252   4.534   5.846   9.454 -0.0656  0.3982  0.5872
   86SAPS  H10Y 8253   4.381   5.845   9.533  0.5266  3.1110 -4.0680
   86SAPS  C311 8254   4.395   5.699   9.377  0.4943  0.0279 -0.8519
   86SAPS  H11X 8255   4.306   5.639   9.406  1.0169  1.0112  2.9948
   86SAPS  H11Y 8256   4.479   5.641   9.333  0.6827  0.2957 -0.8442
   86SAPS  C312 8257   4.350   5.797   9.259  0.6407 -0.8435  0.1440
   86SAPS  H12X 8258   4.430   5.874   9.250  0.6777 -0.9230 -0.2418
   86SAPS  H12Y 8259   4.258   5.850   9.293  1.6482 -1.1363  3.3992
   86SAPS  C313 8260   4.332   5.722   9.123  0.8841 -0.2387  0.0296
   86SAPS  H13X 8261   4.251   5.649   9.144  0.8252  0.0774  0.9371
   86SAPS  H13Y 8262   4.426   5.672   9.089  1.5339 -0.5254  2.1640
   86SAPS  C314 8263   4.296   5.805   8.997  0.0250  0.1342  0.2262
   86SAPS  H14X 8264   4.355   5.900   8.999 -2.2341  1.6160 -0.8647
   86SAPS  H14Y 8265   4.187   5.826   8.991 -0.3830 -1.3750  1.9306
   86SAPS  C315 8266   4.326   5.741   8.860  0.7616  0.2309  0.2259
   86SAPS  H15X 8267   4.290   5.636   8.869  3.2998 -1.0885 -3.6136
   86SAPS  H15Y 8268   4.435   5.718   8.861  0.6770 -0.2254 -0.5716
   86SAPS  C316 8269   4.278   5.808   8.732 -0.1025 -0.0853  0.5791
   86SAPS  H16X 8270   4.352   5.884   8.699  1.4099 -1.7759  0.0244
   86SAPS  H16Y 8271   4.183   5.864   8.746 -2.0703 -2.2909 -3.2756
   86SAPS  C317 8272   4.275   5.727   8.604  0.4535  0.9400  0.1740
   86SAPS  H17X 8273   4.203   5.644   8.616 -0.1214  1.4708  0.4270
   86SAPS  H17Y 8274   4.374   5.684   8.578  0.0431  0.0241  0.1360
   86SAPS  C318 8275   4.228   5.797   8.475 -0.1726 -0.1213  0.1044
   86SAPS  H18X 8276   4.233   5.740   8.379  1.7326  2.3298 -1.2998
   86SAPS  H18Y 8277   4.293   5.885   8.457  0.8756 -0.7155  0.9099
   86SAPS  H18Z 8278   4.124   5.834   8.480 -0.7301 -1.8458  1.8139
   87SAPS     N 8279   4.493   0.216  11.133 -0.1824  0.8277 -0.1067
   87SAPS   HN1 8280   4.411   0.263  11.090  0.3861 -0.8333 -3.1333
   87SAPS   HN2 8281   4.472   0.161  11.218 -0.6172  2.2025  0.6921
   87SAPS   HN3 8282   4.545   0.300  11.167 -0.4459  0.3112  1.5990
   87SAPS   C12 8283   4.564   0.140  11.029 -0.0030  1.5580  0.1703
   87SAPS  H12A 8284   4.667   0.129  11.057  0.2641  1.3235 -0.8919
   87SAPS   C13 8285   4.504   0.004  10.984 -0.7585 -0.1640  0.6471
   87SAPS  O13A 8286   4.420  -0.049  11.055  0.4505  0.1436 -0.3283
   87SAPS  O13B 8287   4.569  -0.063  10.895  0.2727 -0.0821 -0.1630
   87SAPS   C11 8288   4.568   0.230  10.900 -0.1949 -0.3254  0.1700
   87SAPS  H11A 8289   4.468   0.246  10.855  1.2296  2.6564 -2.0347
   87SAPS  H11B 8290   4.635   0.178  10.828 -0.5080  0.9795 -1.0851
   87SAPS     P 8291   4.773   0.392  10.900  0.3614 -0.1050 -0.1214
   87SAPS   O13 8292   4.799   0.529  10.943 -0.5336  0.3723 -0.5254
   87SAPS   O14 8293   4.847   0.283  10.969 -0.2721  0.5632  0.1803
   87SAPS   O12 8294   4.619   0.362  10.931  0.2345  0.4857  0.8644
   87SAPS   O11 8295   4.779   0.372  10.746 -0.4103 -0.0295  0.2692
   87SAPS    C1 8296   4.735   0.461  10.647 -1.0835 -0.0246  0.2570
   87SAPS    HA 8297   4.766   0.567  10.662 -0.8588 -0.3032  1.9332
   87SAPS    HB 8298   4.777   0.424  10.551 -0.3681  2.2157 -0.3279
   87SAPS    C2 8299   4.585   0.450  10.611 -0.1503 -0.2446 -0.3188
   87SAPS    HS 8300   4.533   0.473  10.706 -0.1578  0.8384 -0.5799
   87SAPS   O21 8301   4.560   0.317  10.569 -0.3646  0.3291  0.3008
   87SAPS   C21 8302   4.433   0.267  10.582  0.3006  0.8818  0.2017
   87SAPS   O22 8303   4.333   0.324  10.618 -0.2474 -0.2118 -0.1667
   87SAPS   C22 8304   4.429   0.117  10.549 -0.1598  0.2098  0.2992
   87SAPS   H2R 8305   4.532   0.084  10.524 -0.7124  0.1851 -2.0694
   87SAPS   H2S 8306   4.390   0.063  10.638  0.8591  0.5999  0.9900
   87SAPS    C3 8307   4.532   0.557  10.504 -0.0446 -0.1437 -0.7721
   87SAPS    HX 8308   4.533   0.661  10.543 -2.8609 -0.2697 -0.2411
   87SAPS    HY 8309   4.424   0.530  10.495 -0.1609 -0.0072  0.1892
   87SAPS   O31 8310   4.594   0.539  10.371  0.0223  0.2764  0.3266
   87SAPS   C31 8311   4.533   0.610  10.282  0.1624 -0.0006  0.5468
   87SAPS   O32 8312   4.425   0.665  10.294 -0.3810 -0.2139  0.7769
   87SAPS   C32 8313   4.625   0.622  10.157 -0.4844 -0.0003 -0.2513
   87SAPS   H2X 8314   4.680   0.527  10.143 -1.9684 -1.3115  2.4399
   87SAPS   H2Y 8315   4.696   0.706  10.172 -1.2291  0.1117  2.9239
   87SAPS   C23 8316   4.329   0.084  10.432  0.0607 -0.4076 -0.2269
   87SAPS   H3R 8317   4.235   0.142  10.447 -0.5638 -1.6383  0.7483
   87SAPS   H3S 8318   4.298  -0.022  10.446  2.0015 -0.8580  0.8897
   87SAPS   C24 8319   4.389   0.097  10.291 -0.0381 -0.1018  0.5170
   87SAPS   H4R 8320   4.327   0.031  10.227  0.5976  0.8051 -1.0729
   87SAPS   H4S 8321   4.492   0.054  10.283  0.5228  1.2800  0.0994
   87SAPS   C25 8322   4.381   0.242  10.243 -0.3071 -0.2044 -0.1657
   87SAPS   H5R 8323   4.357   0.322  10.315 -0.6823  1.2889 -1.8911
   87SAPS   C26 8324   4.385   0.276  10.112 -0.0624  0.2167  1.0073
   87SAPS   H6R 8325   4.360   0.380  10.085 -1.0185  0.2802  2.0917
   87SAPS   C27 8326   4.409   0.187   9.990  0.3480  0.0579  0.1727
   87SAPS   H7R 8327   4.428   0.081  10.017 -2.0056 -0.0137  1.7354
   87SAPS   H7S 8328   4.509   0.222   9.956 -0.0197 -0.7045 -1.7237
   87SAPS   C28 8329   4.299   0.201   9.891 -0.1070  0.3073 -0.4333
   87SAPS   H8R 8330   4.197   0.189   9.929  0.5596 -1.6482  0.8199
   87SAPS   C29 8331   4.322   0.252   9.772 -0.7188 -0.2629 -0.1521
   87SAPS   H9R 8332   4.239   0.257   9.700 -2.4073 -2.6811  1.5519
   87SAPS  C210 8333   4.450   0.311   9.712  0.3244  0.0139 -0.2697
   87SAPS  H10R 8334   4.530   0.329   9.787 -0.7428  1.9923  0.4163
   87SAPS  H10S 8335   4.424   0.407   9.662 -0.9361  1.0367  2.2621
   87SAPS  C211 8336   4.496   0.201   9.617  0.1964 -0.4018 -0.2389
   87SAPS  H11R 8337   4.498   0.100   9.661  0.1654  0.5063  1.9367
   87SAPS  C212 8338   4.528   0.229   9.484 -0.0563 -0.3502  0.2759
   87SAPS  H12R 8339   4.561   0.143   9.425 -1.0423 -0.8365  0.4248
   87SAPS  C213 8340   4.520   0.366   9.418 -0.2051  0.1165 -0.0203
   87SAPS  H13R 8341   4.617   0.393   9.372 -0.8990  0.3865 -1.3725
   87SAPS  H13S 8342   4.516   0.452   9.488  1.3366 -0.4922  0.8165
   87SAPS  C214 8343   4.404   0.380   9.317 -0.7775 -0.4250 -0.2308
   87SAPS  H14R 8344   4.303   0.398   9.355 -0.6358 -1.3325  0.6113
   87SAPS  C215 8345   4.424   0.353   9.185 -0.0521  0.1451  0.1172
   87SAPS  H15R 8346   4.345   0.369   9.109  1.7353  0.6413 -1.6716
   87SAPS  C216 8347   4.557   0.307   9.124  0.8924  0.9149  0.1811
   87SAPS  H16R 8348   4.614   0.233   9.185 -1.4362 -1.5905 -0.5792
   87SAPS  H16S 8349   4.618   0.393   9.089  0.3217  0.6555 -1.4707
   87SAPS  C217 8350   4.518   0.240   8.988 -0.0121 -0.2587 -0.1803
   87SAPS  H17R 8351   4.432   0.170   8.997  0.6937 -1.4960 -2.5461
   87SAPS  H17S 8352   4.610   0.182   8.967  0.6844  0.9308 -0.4355
   87SAPS  C218 8353   4.507   0.342   8.871 -0.1703  0.3662  0.7056
   87SAPS  H18R 8354   4.605   0.394   8.862  0.8694 -2.0344 -3.1221
   87SAPS  H18S 8355   4.430   0.419   8.897 -1.4441 -0.9472  0.8733
   87SAPS  C219 8356   4.464   0.274   8.748  0.2346 -0.1022  0.2970
   87SAPS  H19R 8357   4.527   0.183   8.749  1.2620  0.5952  0.0830
   87SAPS  H19S 8358   4.489   0.335   8.659  0.9586 -0.4056  0.2927
   87SAPS  C220 8359   4.313   0.223   8.748 -0.1029 -0.0096  0.2585
   87SAPS  H20R 8360   4.288   0.171   8.843 -2.0149  2.5919  1.2370
   87SAPS  H20S 8361   4.295   0.161   8.658 -0.4678 -0.2320  0.4838
   87SAPS  H20T 8362   4.247   0.311   8.743  1.5377  1.1819 -0.9841
   87SAPS   C33 8363   4.545   0.643  10.028 -0.6297 -0.3489 -0.1304
   87SAPS   H3X 8364   4.487   0.737  10.035  0.8598  0.6722 -1.2248
   87SAPS   H3Y 8365   4.480   0.553  10.022 -0.3971 -0.5322  0.0771
   87SAPS   C34 8366   4.640   0.659   9.906 -0.2356  0.7226  1.2902
   87SAPS   H4X 8367   4.691   0.564   9.879  2.5710  2.2603  0.8560
   87SAPS   H4Y 8368   4.710   0.742   9.932  0.3282  1.1858 -1.4980
   87SAPS   C35 8369   4.575   0.706   9.769  0.0993 -0.0024  0.5112
   87SAPS   H5X 8370   4.534   0.808   9.784 -0.3267 -0.0143 -0.5564
   87SAPS   H5Y 8371   4.490   0.635   9.756 -1.1459  0.7472  3.8610
   87SAPS   C36 8372   4.674   0.701   9.646  0.0023 -0.3170  0.9276
   87SAPS   H6X 8373   4.706   0.595   9.632 -0.5640 -0.4460  0.5891
   87SAPS   H6Y 8374   4.764   0.759   9.674  0.2260 -0.8344  1.3033
   87SAPS   C37 8375   4.618   0.772   9.524  0.6865 -0.1884 -0.1233
   87SAPS   H7X 8376   4.631   0.882   9.530 -2.0258  0.2172 -1.0279
   87SAPS   H7Y 8377   4.510   0.748   9.512  0.5841  0.5978 -0.8219
   87SAPS   C38 8378   4.687   0.722   9.396 -0.3900  0.1038  0.3268
   87SAPS   H8X 8379   4.689   0.611   9.403 -0.0338  0.0447 -0.7231
   87SAPS   H8Y 8380   4.795   0.746   9.392 -0.5940  1.0327  0.3801
   87SAPS   C39 8381   4.623   0.748   9.262  0.3423  0.2354 -0.2226
   87SAPS   H9X 8382   4.612   0.857   9.243 -0.7881  0.5406  1.9905
   87SAPS   H9Y 8383   4.525   0.696   9.261 -0.9715  2.6338 -0.4383
   87SAPS  C310 8384   4.701   0.686   9.141 -0.1884  0.1436 -0.4850
   87SAPS  H10X 8385   4.714   0.579   9.166 -1.1123 -0.3344 -2.0091
   87SAPS  H10Y 8386   4.799   0.736   9.151 -0.9861  1.7504 -0.4976
   87SAPS  C311 8387   4.646   0.709   8.999 -0.3336  0.1747  0.3911
   87SAPS  H11X 8388   4.635   0.819   8.986  1.9777  0.6281  2.0173
   87SAPS  H11Y 8389   4.548   0.657   8.991 -0.0064 -0.2708 -0.8075
   87SAPS  C312 8390   4.735   0.671   8.876 -0.1715 -0.3940 -0.1547
   87SAPS  H12X 8391   4.757   0.562   8.882  0.3406 -0.4010 -1.8884
   87SAPS  H12Y 8392   4.823   0.738   8.875 -0.6504  0.2543  0.5747
   87SAPS  C313 8393   4.667   0.716   8.742 -0.3963  0.0884 -0.0325
   87SAPS  H13X 8394   4.623   0.816   8.763 -2.4093 -0.7415 -0.1923
   87SAPS  H13Y 8395   4.592   0.638   8.718  0.4044 -1.2027  1.5529
   87SAPS  C314 8396   4.770   0.720   8.630 -0.2461 -0.1753 -0.0574
   87SAPS  H14X 8397   4.815   0.619   8.625  0.9389  0.4330 -2.2582
   87SAPS  H14Y 8398   4.860   0.784   8.644  0.2386 -0.5870 -1.1842
   87SAPS  C315 8399   4.712   0.752   8.490 -0.1995 -0.8651 -0.2997
   87SAPS  H15X 8400   4.662   0.849   8.510 -0.1032 -1.3220  2.2545
   87SAPS  H15Y 8401   4.631   0.683   8.458 -1.6003  0.3030  0.6599
   87SAPS  C316 8402   4.818   0.761   8.380  0.5115 -0.2077 -1.3663
   87SAPS  H16X 8403   4.887   0.843   8.410 -0.4066 -0.2648  1.0374
   87SAPS  H16Y 8404   4.761   0.788   8.289  1.1706 -0.3582 -1.8248
   87SAPS  C317 8405   4.886   0.625   8.344 -0.4574  0.3053  0.0635
   87SAPS  H17X 8406   4.914   0.578   8.441 -0.5966 -0.3457 -0.2094
   87SAPS  H17Y 8407   4.982   0.638   8.288  0.3703  1.0464  1.6113
   87SAPS  C318 8408   4.820   0.513   8.262  0.0175 -0.2662  0.1897
   87SAPS  H18X 8409   4.733   0.475   8.319 -0.5271 -1.5067 -1.4471
   87SAPS  H18Y 8410   4.876   0.417   8.257  1.2427  0.3686  1.3626
   87SAPS  H18Z 8411   4.796   0.550   8.160 -3.8861 -0.5030  0.9421
   88SAPS     N 8412   6.419   4.662  11.141  0.5595  0.2677 -0.0536
   88SAPS   HN1 8413   6.490   4.644  11.214  2.0693  0.3608 -1.4734
   88SAPS   HN2 8414   6.449   4.750  11.094 -0.1448 -0.3306 -1.6558
   88SAPS   HN3 8415   6.328   4.681  11.189  0.5624  0.8573 -0.2777
   88SAPS   C12 8416   6.402   4.557  11.034 -0.3285 -0.0664  0.2237
   88SAPS  H12A 8417   6.380   4.467  11.090  1.1682  0.1731  1.2155
   88SAPS   C13 8418   6.286   4.601  10.939  0.0900  0.0617 -0.0349
   88SAPS  O13A 8419   6.199   4.674  10.986 -0.8182 -0.1100 -0.2394
   88SAPS  O13B 8420   6.265   4.536  10.825  0.1700  0.0715 -0.1701
   88SAPS   C11 8421   6.532   4.556  10.951  0.9475 -0.1016  0.2046
   88SAPS  H11A 8422   6.542   4.650  10.893  1.9557 -0.3979 -0.1157
   88SAPS  H11B 8423   6.521   4.470  10.882 -0.5265  0.4134 -0.2121
   88SAPS     P 8424   6.784   4.485  10.974  0.3797 -0.3531  0.2682
   88SAPS   O13 8425   6.904   4.534  11.050 -0.5613  0.1147  0.3355
   88SAPS   O14 8426   6.756   4.340  10.979 -0.0044  0.2246 -0.5314
   88SAPS   O12 8427   6.650   4.549  11.037  0.0435 -0.3615 -0.0069
   88SAPS   O11 8428   6.788   4.530  10.823 -0.3022 -0.0564 -0.2885
   88SAPS    C1 8429   6.817   4.667  10.796  0.3138  0.3403 -0.2422
   88SAPS    HA 8430   6.723   4.727  10.786 -0.6621 -1.2693 -0.8986
   88SAPS    HB 8431   6.891   4.718  10.861  1.0926 -0.2124 -0.7014
   88SAPS    C2 8432   6.888   4.672  10.663  0.9823  0.3586 -0.1280
   88SAPS    HS 8433   6.924   4.777  10.653  1.6367  0.2103  0.6744
   88SAPS   O21 8434   6.790   4.638  10.561  0.5862  0.5112  0.4225
   88SAPS   C21 8435   6.712   4.744  10.522 -0.6674  0.5350 -0.5295
   88SAPS   O22 8436   6.713   4.853  10.573 -0.0013  0.0485 -0.0115
   88SAPS   C22 8437   6.632   4.697  10.398  0.3013  0.2759  0.7422
   88SAPS   H2R 8438   6.703   4.690  10.313  1.1841  1.3837  1.3722
   88SAPS   H2S 8439   6.584   4.601  10.423  0.0965  0.0309 -0.5608
   88SAPS    C3 8440   7.012   4.572  10.649  0.0842  0.1618 -0.1058
   88SAPS    HX 8441   6.969   4.469  10.647  1.0003 -0.2039 -1.5745
   88SAPS    HY 8442   7.062   4.585  10.747 -1.5973  0.0885  0.7924
   88SAPS   O31 8443   7.103   4.591  10.540  0.3974 -0.0835 -0.0420
   88SAPS   C31 8444   7.218   4.530  10.538  0.5051  0.6574 -0.1527
   88SAPS   O32 8445   7.271   4.457  10.625  0.3889  0.0533 -0.1645
   88SAPS   C32 8446   7.278   4.543  10.397 -0.7837 -0.0144 -0.3622
   88SAPS   H2X 8447   7.388   4.542  10.409 -0.7908 -0.2786 -0.3219
   88SAPS   H2Y 8448   7.247   4.644  10.361 -1.8488 -0.7463 -1.5461
   88SAPS   C23 8449   6.525   4.801  10.361  0.2287 -0.8402  0.4817
   88SAPS   H3R 8450   6.509   4.782  10.253  1.3735 -1.3002  0.3869
   88SAPS   H3S 8451   6.567   4.904  10.364 -0.0108 -0.7601  1.0724
   88SAPS   C24 8452   6.390   4.792  10.440  0.0929 -0.3022 -0.2947
   88SAPS   H4R 8453   6.413   4.802  10.548  0.4625  1.4893 -0.5336
   88SAPS   H4S 8454   6.352   4.688  10.424  3.2564 -1.5460 -0.1273
   88SAPS   C25 8455   6.302   4.898  10.381  0.3845  0.0009 -0.2066
   88SAPS   H5R 8456   6.289   4.985  10.447 -0.1628  0.1432 -0.4981
   88SAPS   C26 8457   6.253   4.906  10.256 -0.0691  0.4420  0.7085
   88SAPS   H6R 8458   6.188   4.992  10.234 -0.5858 -0.1505 -0.1603
   88SAPS   C27 8459   6.267   4.812  10.146  0.6400  0.6377 -0.2344
   88SAPS   H7R 8460   6.167   4.767  10.134 -0.2655  2.3735  0.5955
   88SAPS   H7S 8461   6.325   4.722  10.175 -1.0145 -0.1080  0.7769
   88SAPS   C28 8462   6.321   4.861  10.012 -0.6844  0.7140  1.2572
   88SAPS   H8R 8463   6.395   4.941  10.024 -0.2159  0.4897 -0.0918
   88SAPS   C29 8464   6.282   4.808   9.898 -0.0589  0.9811 -0.2411
   88SAPS   H9R 8465   6.335   4.836   9.805  2.2795 -0.2602  0.6753
   88SAPS  C210 8466   6.184   4.702   9.875 -0.7751 -0.5244 -0.4793
   88SAPS  H10R 8467   6.158   4.654   9.971 -1.2429  0.6212 -0.0335
   88SAPS  H10S 8468   6.241   4.628   9.814 -0.5193 -1.0151  0.3564
   88SAPS  C211 8469   6.058   4.751   9.804  0.2407 -0.2040  0.3755
   88SAPS  H11R 8470   5.972   4.767   9.871  0.6009 -1.6683  1.2110
   88SAPS  C212 8471   6.045   4.786   9.676 -0.3099 -0.9717  0.3061
   88SAPS  H12R 8472   5.944   4.810   9.640  0.1778  0.5480 -0.0824
   88SAPS  C213 8473   6.150   4.771   9.565  0.6037 -0.0589  0.2387
   88SAPS  H13R 8474   6.238   4.715   9.602  0.0886 -0.5086  0.7836
   88SAPS  H13S 8475   6.192   4.872   9.546 -1.2360  0.6515 -0.2228
   88SAPS  C214 8476   6.093   4.708   9.440 -0.4136 -0.0804 -0.1596
   88SAPS  H14R 8477   6.063   4.602   9.445 -0.2634 -0.0912  0.5981
   88SAPS  C215 8478   6.100   4.753   9.313  0.0232  0.1689  0.1959
   88SAPS  H15R 8479   6.043   4.698   9.236 -0.6402  2.4807 -1.0043
   88SAPS  C216 8480   6.159   4.885   9.271  0.0471 -0.0389 -0.3079
   88SAPS  H16R 8481   6.218   4.924   9.356  0.8799 -0.7624 -0.5490
   88SAPS  H16S 8482   6.078   4.960   9.258 -1.5799 -1.2133  2.6009
   88SAPS  C217 8483   6.227   4.884   9.133 -0.2231  0.2062 -0.2562
   88SAPS  H17R 8484   6.307   4.808   9.143 -0.8861 -0.7435 -1.9215
   88SAPS  H17S 8485   6.280   4.981   9.125  0.0211  0.1798  0.9612
   88SAPS  C218 8486   6.134   4.864   9.008 -0.1917  0.2558 -0.1035
   88SAPS  H18R 8487   6.027   4.878   9.035  0.3535  1.2010  1.6316
   88SAPS  H18S 8488   6.151   4.761   8.970  0.1633  0.3323 -0.1595
   88SAPS  C219 8489   6.167   4.968   8.900  0.4354  0.7428  0.4283
   88SAPS  H19R 8490   6.155   5.072   8.935  1.9862  0.9746  0.2730
   88SAPS  H19S 8491   6.091   4.956   8.819  0.7312  1.7049  0.0009
   88SAPS  C220 8492   6.301   4.939   8.828 -0.0125  0.1578 -0.6009
   88SAPS  H20R 8493   6.386   4.942   8.900 -0.1953 -2.0494 -0.2470
   88SAPS  H20S 8494   6.325   5.011   8.747  1.2652  1.2082  0.6801
   88SAPS  H20T 8495   6.309   4.839   8.781 -0.9851 -0.3579  0.2987
   88SAPS   C33 8496   7.226   4.429  10.299  0.3295 -0.1659 -0.2721
   88SAPS   H3X 8497   7.115   4.425  10.302  0.2734  1.8370  0.9999
   88SAPS   H3Y 8498   7.269   4.331  10.329  0.9885  0.9413  2.5960
   88SAPS   C34 8499   7.259   4.452  10.153 -0.3553 -0.0714 -0.3660
   88SAPS   H4X 8500   7.369   4.432  10.146 -0.2704 -0.6499  2.1032
   88SAPS   H4Y 8501   7.238   4.550  10.106 -1.7628 -0.4513 -0.5513
   88SAPS   C35 8502   7.189   4.347  10.062  0.1999 -0.3837  0.2514
   88SAPS   H5X 8503   7.079   4.357  10.076 -0.0061  1.1361 -2.1447
   88SAPS   H5Y 8504   7.214   4.248  10.106 -1.6836 -0.2846  1.6364
   88SAPS   C36 8505   7.218   4.336   9.915  0.1978 -0.7436  0.2047
   88SAPS   H6X 8506   7.328   4.327   9.902 -0.0553  0.3452 -3.2150
   88SAPS   H6Y 8507   7.176   4.421   9.857  0.4111  0.2926  1.5559
   88SAPS   C37 8508   7.171   4.205   9.846  1.0864 -0.2745 -0.3246
   88SAPS   H7X 8509   7.068   4.183   9.881  2.3042 -1.6674  2.5539
   88SAPS   H7Y 8510   7.239   4.122   9.873  2.7502  0.9943 -0.5405
   88SAPS   C38 8511   7.169   4.211   9.683  0.4702 -0.8590 -0.3200
   88SAPS   H8X 8512   7.275   4.205   9.651  0.2064 -2.3034 -0.9498
   88SAPS   H8Y 8513   7.121   4.308   9.661  0.2426 -1.2393 -1.4982
   88SAPS   C39 8514   7.078   4.103   9.620  0.7171  0.0846 -0.3204
   88SAPS   H9X 8515   6.972   4.117   9.648  0.9808  0.0370  0.7412
   88SAPS   H9Y 8516   7.105   4.005   9.665 -0.8672 -0.7589 -1.1786
   88SAPS  C310 8517   7.085   4.097   9.470  0.3117 -0.8222  0.2707
   88SAPS  H10X 8518   7.192   4.087   9.442  0.3504 -1.3499  0.5951
   88SAPS  H10Y 8519   7.048   4.189   9.420  0.9356 -0.3603  0.6510
   88SAPS  C311 8520   7.006   3.974   9.411 -0.2461  0.1283  0.1087
   88SAPS  H11X 8521   6.905   3.965   9.456 -0.4824 -0.1905 -0.4758
   88SAPS  H11Y 8522   7.065   3.880   9.422 -0.8799 -0.3875 -0.8552
   88SAPS  C312 8523   6.994   4.002   9.257  0.1394 -0.0423 -0.6103
   88SAPS  H12X 8524   7.092   4.051   9.235  0.2275  0.1042  0.0996
   88SAPS  H12Y 8525   6.919   4.078   9.228 -0.8197 -0.4027  0.8828
   88SAPS  C313 8526   6.974   3.879   9.179 -0.7140 -0.1631 -0.2640
   88SAPS  H13X 8527   6.875   3.836   9.207 -0.9673 -0.1805 -1.1625
   88SAPS  H13Y 8528   7.037   3.793   9.207 -2.8678 -3.0439 -3.8504
   88SAPS  C314 8529   6.996   3.911   9.028  0.1215  0.0448 -0.1188
   88SAPS  H14X 8530   7.092   3.962   9.004  0.0514 -0.2623 -1.0855
   88SAPS  H14Y 8531   6.911   3.978   9.000  0.1829  0.2095  0.0961
   88SAPS  C315 8532   6.982   3.787   8.944 -0.0485 -0.2348  0.1517
   88SAPS  H15X 8533   6.886   3.735   8.966 -0.5658  0.9260  0.7110
   88SAPS  H15Y 8534   7.060   3.712   8.969 -1.3371 -2.1243 -1.3308
   88SAPS  C316 8535   6.984   3.818   8.791 -0.4060  0.4041  0.2392
   88SAPS  H16X 8536   7.053   3.897   8.753  1.2127 -0.1109  1.9951
   88SAPS  H16Y 8537   6.880   3.851   8.773 -0.8426 -0.4431  1.1588
   88SAPS  C317 8538   7.013   3.694   8.703  0.6404 -0.2318 -0.0263
   88SAPS  H17X 8539   6.945   3.609   8.728 -0.0644  0.9101  2.1420
   88SAPS  H17Y 8540   7.114   3.653   8.721  1.3709  2.4461  2.3653
   88SAPS  C318 8541   6.997   3.728   8.554 -0.0249 -0.0639 -0.5327
   88SAPS  H18X 8542   6.892   3.749   8.526 -0.0543 -0.2747 -0.5839
   88SAPS  H18Y 8543   7.024   3.635   8.500  0.3323  0.4649 -1.2791
   88SAPS  H18Z 8544   7.076   3.797   8.517 -1.3347  0.4641 -2.4072
   89SAPS     N 8545   6.566   0.979  11.093 -0.3605  0.1321 -0.6217
   89SAPS   HN1 8546   6.599   1.077  11.088  0.7383 -0.0121  2.4838
   89SAPS   HN2 8547   6.598   0.948  11.187  0.6321  4.3604  0.5030
   89SAPS   HN3 8548   6.599   0.913  11.019 -0.8271 -1.6809  0.7601
   89SAPS   C12 8549   6.420   0.958  11.087 -0.3764  0.5082 -0.0821
   89SAPS  H12A 8550   6.408   0.857  11.121  1.9709  0.0116 -0.6353
   89SAPS   C13 8551   6.347   1.042  11.197  0.8025  0.6211 -0.6679
   89SAPS  O13A 8552   6.412   1.120  11.270 -0.4660 -0.2429  0.2371
   89SAPS  O13B 8553   6.219   1.047  11.192  0.2114 -0.2221  0.4107
   89SAPS   C11 8554   6.358   1.002  10.944  0.2111 -0.0255  0.0375
   89SAPS  H11A 8555   6.371   1.112  10.950  0.6845 -0.0891  0.1636
   89SAPS  H11B 8556   6.250   0.978  10.938  1.0484 -3.3590 -3.5828
   89SAPS     P 8557   6.400   0.797  10.781  0.0681  0.3553  0.4002
   89SAPS   O13 8558   6.521   0.713  10.796 -0.2274  0.5463 -0.2779
   89SAPS   O14 8559   6.274   0.751  10.836 -0.1506  0.2646 -0.7020
   89SAPS   O12 8560   6.433   0.948  10.831 -0.6043  0.0590  0.2330
   89SAPS   O11 8561   6.382   0.837  10.623  0.1379 -0.3816 -0.2901
   89SAPS    C1 8562   6.291   0.929  10.568  0.1573  0.1660  0.1157
   89SAPS    HA 8563   6.194   0.883  10.595  0.0442 -0.0706 -0.6876
   89SAPS    HB 8564   6.296   1.027  10.621 -3.2787  0.9278 -0.8392
   89SAPS    C2 8565   6.309   0.943  10.418 -0.3160  0.2030  0.4136
   89SAPS    HS 8566   6.232   1.005  10.369 -2.1846 -0.3787  2.5367
   89SAPS   O21 8567   6.307   0.812  10.362 -0.7749  0.5283 -0.3133
   89SAPS   C21 8568   6.189   0.749  10.348 -0.0154  0.1581  0.3025
   89SAPS   O22 8569   6.083   0.792  10.383 -0.0799 -0.2472 -0.2951
   89SAPS   C22 8570   6.209   0.627  10.260  1.1537 -0.3067  0.0131
   89SAPS   H2R 8571   6.310   0.611  10.217  0.5636 -1.5091 -0.9318
   89SAPS   H2S 8572   6.207   0.548  10.338 -0.3040  0.0321  0.3303
   89SAPS    C3 8573   6.452   1.005  10.380  0.2275 -0.2098 -0.6530
   89SAPS    HX 8574   6.539   0.950  10.420  0.6660  0.4829 -0.6386
   89SAPS    HY 8575   6.460   1.100  10.438 -0.6907 -1.1485  1.0567
   89SAPS   O31 8576   6.456   1.034  10.242  0.4005  0.2825 -0.2737
   89SAPS   C31 8577   6.540   0.954  10.169  0.0999  0.8389  0.1322
   89SAPS   O32 8578   6.613   0.863  10.210 -0.0480 -0.4018 -0.0592
   89SAPS   C32 8579   6.544   0.994  10.022 -0.5319 -0.7745  0.1096
   89SAPS   H2X 8580   6.549   1.104  10.009 -1.8829 -0.4676  1.9794
   89SAPS   H2Y 8581   6.460   0.953   9.963 -0.3048  2.3906 -2.5033
   89SAPS   C23 8582   6.100   0.592  10.154 -0.5336 -0.9372 -0.7086
   89SAPS   H3R 8583   6.111   0.664  10.070  3.0786 -1.5333 -0.8071
   89SAPS   H3S 8584   6.006   0.608  10.212  1.5805  0.0073  2.6151
   89SAPS   C24 8585   6.099   0.447  10.107 -0.3205  0.4179 -0.5977
   89SAPS   H4R 8586   6.026   0.430  10.026 -1.4957  1.6573  0.1613
   89SAPS   H4S 8587   6.066   0.392  10.198 -2.3865  2.6582  0.0816
   89SAPS   C25 8588   6.238   0.406  10.062 -0.1940  0.0068  0.2017
   89SAPS   H5R 8589   6.299   0.377  10.149 -1.1827 -2.9427 -0.0497
   89SAPS   C26 8590   6.305   0.414   9.942  0.6345 -0.1318  0.1918
   89SAPS   H6R 8591   6.404   0.367   9.927  0.1506 -0.4115 -2.3393
   89SAPS   C27 8592   6.241   0.468   9.818  0.4260 -0.0406 -0.0834
   89SAPS   H7R 8593   6.329   0.515   9.769  1.4164 -1.5887  0.1832
   89SAPS   H7S 8594   6.161   0.542   9.840 -1.0124 -1.2366 -1.2107
   89SAPS   C28 8595   6.188   0.354   9.727 -0.4128  0.0450 -0.3826
   89SAPS   H8R 8596   6.170   0.257   9.776 -0.6081  0.8362  1.1156
   89SAPS   C29 8597   6.132   0.367   9.604 -0.9437 -0.4520 -0.0624
   89SAPS   H9R 8598   6.104   0.272   9.556 -1.6542 -0.4665  0.3823
   89SAPS  C210 8599   6.120   0.492   9.519  0.1345  0.5798 -0.3477
   89SAPS  H10R 8600   6.188   0.569   9.560  0.2686 -0.1315  0.7918
   89SAPS  H10S 8601   6.015   0.527   9.530 -0.2099  0.2540 -2.3914
   89SAPS  C211 8602   6.154   0.467   9.375 -0.0711 -0.2531  0.4911
   89SAPS  H11R 8603   6.256   0.485   9.341 -0.5172  1.6579  0.0962
   89SAPS  C212 8604   6.077   0.409   9.281  0.4543  0.6076 -0.5653
   89SAPS  H12R 8605   6.124   0.391   9.183  3.6576 -2.6412  1.4540
   89SAPS  C213 8606   5.932   0.362   9.294 -0.4911  0.0861 -0.0277
   89SAPS  H13R 8607   5.879   0.410   9.208 -1.3025 -2.9871 -1.2930
   89SAPS  H13S 8608   5.886   0.392   9.390  0.7419 -0.6214  0.7904
   89SAPS  C214 8609   5.928   0.214   9.277  0.3748  0.5488  0.0439
   89SAPS  H14R 8610   5.900   0.172   9.375 -1.1594 -1.6529 -1.3053
   89SAPS  C215 8611   5.936   0.134   9.169 -0.4216  0.5369  0.4032
   89SAPS  H15R 8612   5.939   0.024   9.176  1.4584  0.5799  0.4503
   89SAPS  C216 8613   5.951   0.181   9.024  0.0294 -0.8216  0.0274
   89SAPS  H16R 8614   6.031   0.258   9.019  0.5854 -1.3428  0.9295
   89SAPS  H16S 8615   5.853   0.217   8.986 -0.6100 -1.1906  1.3087
   89SAPS  C217 8616   5.987   0.079   8.918 -0.3815  0.2661  0.3825
   89SAPS  H17R 8617   5.912  -0.003   8.919  1.1301 -1.1774 -1.5706
   89SAPS  H17S 8618   6.084   0.032   8.944 -0.2516 -1.3763 -2.7551
   89SAPS  C218 8619   5.993   0.134   8.776  0.4456 -0.1927 -0.4903
   89SAPS  H18R 8620   6.050   0.229   8.774 -0.3784  0.3716  1.8112
   89SAPS  H18S 8621   5.890   0.159   8.741  0.2582 -0.2057  0.0441
   89SAPS  C219 8622   6.046   0.033   8.678 -0.2911  0.2833  0.2452
   89SAPS  H19R 8623   5.982  -0.057   8.691 -1.9203  1.3787 -0.0069
   89SAPS  H19S 8624   6.154   0.018   8.699  0.6059  3.1569 -1.9035
   89SAPS  C220 8625   6.038   0.085   8.537  0.6351  0.5466 -0.3906
   89SAPS  H20R 8626   5.932   0.104   8.511  0.3939 -0.7329 -0.3541
   89SAPS  H20S 8627   6.078   0.023   8.454 -0.8257 -0.4240 -0.3724
   89SAPS  H20T 8628   6.093   0.182   8.535 -0.9986  1.5123  0.5606
   89SAPS   C33 8629   6.664   0.938   9.942 -0.1768 -0.9039  0.1894
   89SAPS   H3X 8630   6.666   0.828   9.951 -1.2367 -1.0417 -1.1287
   89SAPS   H3Y 8631   6.760   0.981   9.980 -0.7950  1.0134 -0.3532
   89SAPS   C34 8632   6.659   0.971   9.797 -0.2600 -0.2353 -0.0380
   89SAPS   H4X 8633   6.623   1.076   9.794  0.6015  0.0592 -0.2934
   89SAPS   H4Y 8634   6.587   0.904   9.746 -0.6065 -2.0913  2.7834
   89SAPS   C35 8635   6.786   0.949   9.715  0.1206  0.0635 -0.4408
   89SAPS   H5X 8636   6.791   0.839   9.703  0.7686  0.3457 -3.0709
   89SAPS   H5Y 8637   6.880   0.986   9.761 -0.3367 -0.4751  0.9750
   89SAPS   C36 8638   6.793   1.018   9.580  0.2682 -0.1527  0.5669
   89SAPS   H6X 8639   6.756   1.119   9.608 -0.2215  0.0098 -0.6356
   89SAPS   H6Y 8640   6.729   0.974   9.500  0.5687  0.3568  0.0404
   89SAPS   C37 8641   6.932   1.008   9.522 -0.1359  0.7749  0.5302
   89SAPS   H7X 8642   6.964   0.902   9.527 -1.0427  0.4908  0.2881
   89SAPS   H7Y 8643   7.002   1.069   9.583  1.0390 -1.2073  1.2297
   89SAPS   C38 8644   6.929   1.062   9.381  0.7672  0.2004  0.1879
   89SAPS   H8X 8645   6.876   1.160   9.391  0.2742 -0.2132  1.7032
   89SAPS   H8Y 8646   6.874   0.986   9.322  1.1699  0.2518 -0.2557
   89SAPS   C39 8647   7.058   1.073   9.318 -0.5848 -0.0274  0.3892
   89SAPS   H9X 8648   7.091   0.971   9.288  1.3754  1.1187 -1.5161
   89SAPS   H9Y 8649   7.130   1.107   9.395  1.1547 -2.8043  0.0935
   89SAPS  C310 8650   7.064   1.173   9.198 -0.4968  0.2926 -0.1599
   89SAPS  H10X 8651   7.048   1.281   9.221 -2.1500 -0.2777  1.4710
   89SAPS  H10Y 8652   6.978   1.154   9.131 -0.5386 -0.9001  0.2279
   89SAPS  C311 8653   7.197   1.154   9.124 -0.5302 -0.1676 -0.6417
   89SAPS  H11X 8654   7.213   1.048   9.095 -2.3267 -1.1186  1.7152
   89SAPS  H11Y 8655   7.280   1.183   9.192 -0.1210  1.4698 -1.8027
   89SAPS  C312 8656   7.204   1.236   8.998 -0.0319 -0.9074 -0.3782
   89SAPS  H12X 8657   7.198   1.342   9.030 -1.4300 -0.5637 -1.6964
   89SAPS  H12Y 8658   7.113   1.224   8.935  0.5592  0.0013 -1.4411
   89SAPS  C313 8659   7.321   1.212   8.901 -0.1317 -0.2977 -0.3890
   89SAPS  H13X 8660   7.295   1.124   8.838  1.1080 -1.5966  0.8819
   89SAPS  H13Y 8661   7.408   1.178   8.961  1.5422  1.0803 -1.9733
   89SAPS  C314 8662   7.373   1.336   8.828 -0.5018  0.4878 -0.0619
   89SAPS  H14X 8663   7.476   1.323   8.788 -1.7118 -3.1510 -2.2054
   89SAPS  H14Y 8664   7.374   1.405   8.915 -1.0093  2.0569 -1.2786
   89SAPS  C315 8665   7.279   1.394   8.720 -0.2303  0.1582 -0.5067
   89SAPS  H15X 8666   7.297   1.504   8.718  1.2725 -0.0117  2.3417
   89SAPS  H15Y 8667   7.177   1.383   8.763  0.0332 -0.1489  0.0439
   89SAPS  C316 8668   7.293   1.335   8.576  0.0684 -0.4198 -0.3019
   89SAPS  H16X 8669   7.285   1.225   8.576 -0.0395 -0.4138 -1.2954
   89SAPS  H16Y 8670   7.391   1.360   8.528  0.4133 -0.2332  0.4824
   89SAPS  C317 8671   7.174   1.386   8.487 -0.5669  0.1934 -0.0148
   89SAPS  H17X 8672   7.208   1.490   8.467  0.7857 -0.6663 -2.3647
   89SAPS  H17Y 8673   7.077   1.401   8.539 -0.2355 -0.3076  0.7562
   89SAPS  C318 8674   7.127   1.306   8.367  0.3351  0.3508 -0.4296
   89SAPS  H18X 8675   7.205   1.281   8.292 -1.3401  1.8970 -2.7966
   89SAPS  H18Y 8676   7.044   1.356   8.311 -0.8655 -0.1744  0.8644
   89SAPS  H18Z 8677   7.086   1.211   8.406  1.8844 -1.6831 -3.5361
   90SAPS     N 8678   1.992   0.889  10.712 -0.3969 -0.0459  0.1393
   90SAPS   HN1 8679   2.087   0.927  10.730  0.7232 -2.4207 -0.5941
   90SAPS   HN2 8680   1.960   0.870  10.615 -0.1537 -0.0733  0.0647
   90SAPS   HN3 8681   1.944   0.980  10.732  2.4734  1.3815  0.7157
   90SAPS   C12 8682   1.944   0.795  10.808  0.3427 -0.0789  0.0199
   90SAPS  H12A 8683   2.018   0.716  10.809 -0.2593 -0.6704  3.6398
   90SAPS   C13 8684   1.948   0.852  10.956 -0.1842 -0.1014  0.4879
   90SAPS  O13A 8685   2.012   0.958  10.974 -0.6729 -0.2691 -0.3051
   90SAPS  O13B 8686   1.927   0.765  11.041  0.0580  0.0859  0.0498
   90SAPS   C11 8687   1.800   0.748  10.775  0.5118 -0.2626  0.0298
   90SAPS  H11A 8688   1.749   0.846  10.779  1.7689  0.4517 -0.9036
   90SAPS  H11B 8689   1.743   0.697  10.856  1.2510  0.0209  0.7412
   90SAPS     P 8690   1.831   0.532  10.615 -0.5697 -0.0172 -0.0048
   90SAPS   O13 8691   1.976   0.516  10.640 -0.5990 -0.1329  0.1313
   90SAPS   O14 8692   1.742   0.439  10.691  0.0559  0.0394 -0.0702
   90SAPS   O12 8693   1.792   0.685  10.650 -0.1728  0.7650 -0.4874
   90SAPS   O11 8694   1.783   0.528  10.465 -0.3393  0.0580 -0.0123
   90SAPS    C1 8695   1.658   0.464  10.437 -0.2665 -0.2767 -0.4285
   90SAPS    HA 8696   1.579   0.486  10.511  0.8551 -1.8588  1.2722
   90SAPS    HB 8697   1.632   0.513  10.340 -0.1748 -1.6319 -1.1514
   90SAPS    C2 8698   1.663   0.306  10.424 -0.0028  0.1206 -0.1690
   90SAPS    HS 8699   1.719   0.268  10.512 -1.9484 -2.7932 -0.1440
   90SAPS   O21 8700   1.737   0.275  10.308 -0.0020  0.0194  0.2381
   90SAPS   C21 8701   1.798   0.156  10.312  0.3413  0.6043 -0.2212
   90SAPS   O22 8702   1.752   0.057  10.372 -0.4219 -0.0689  0.3545
   90SAPS   C22 8703   1.916   0.159  10.214 -0.6814 -0.2651  0.0914
   90SAPS   H2R 8704   1.901   0.233  10.133 -1.9333 -2.5947 -1.8813
   90SAPS   H2S 8705   1.996   0.200  10.279 -3.9179  1.3887  3.2256
   90SAPS    C3 8706   1.528   0.235  10.420  1.1316 -0.2192 -0.2074
   90SAPS    HX 8707   1.473   0.249  10.515 -0.5616 -1.0232 -1.0378
   90SAPS    HY 8708   1.523   0.125  10.406 -0.8762 -0.1634 -0.0356
   90SAPS   O31 8709   1.455   0.300  10.312  0.2880  0.4533  0.1286
   90SAPS   C31 8710   1.470   0.250  10.185  0.8390  0.4000  0.3474
   90SAPS   O32 8711   1.538   0.150  10.159  0.7493 -0.2663 -0.1094
   90SAPS   C32 8712   1.391   0.343  10.086  0.0851  0.2005  0.3164
   90SAPS   H2X 8713   1.436   0.444  10.087 -1.9808  1.1736 -1.2751
   90SAPS   H2Y 8714   1.284   0.344  10.118  0.0707 -0.4995  0.3131
   90SAPS   C23 8715   1.960   0.019  10.172  0.2318 -0.6990  0.0790
   90SAPS   H3R 8716   1.956  -0.056  10.255  0.5831  0.3732  1.0737
   90SAPS   H3S 8717   2.060   0.033  10.126 -0.4427 -0.1196 -1.2291
   90SAPS   C24 8718   1.873  -0.034  10.054  0.9707  0.6675 -0.6925
   90SAPS   H4R 8719   1.851   0.053   9.987 -0.9553 -0.4726 -1.5935
   90SAPS   H4S 8720   1.777  -0.066  10.100 -0.2372  1.4344 -2.6156
   90SAPS   C25 8721   1.922  -0.155   9.975  0.5149  0.0215 -0.7339
   90SAPS   H5R 8722   1.932  -0.249  10.031  0.6198  0.2850 -0.3052
   90SAPS   C26 8723   1.960  -0.163   9.848 -0.2664  0.5283  0.3875
   90SAPS   H6R 8724   1.999  -0.260   9.814  0.5622  1.2050 -0.6452
   90SAPS   C27 8725   1.973  -0.047   9.755 -0.4688 -0.0598  0.0494
   90SAPS   H7R 8726   1.924   0.042   9.801  1.5057 -0.5235  3.2430
   90SAPS   H7S 8727   1.914  -0.078   9.667  0.4690  0.1276 -0.6496
   90SAPS   C28 8728   2.118  -0.003   9.734 -0.1664  0.6152 -0.2505
   90SAPS   H8R 8729   2.176   0.033   9.821 -0.2946  0.3969 -0.0739
   90SAPS   C29 8730   2.184  -0.009   9.612  0.2562  0.1635  0.0377
   90SAPS   H9R 8731   2.286   0.029   9.602  0.8796 -1.7679 -1.2380
   90SAPS  C210 8732   2.123  -0.061   9.483  0.4762 -0.5754 -0.0902
   90SAPS  H10R 8733   2.160   0.004   9.401 -0.0598 -0.4694 -0.2484
   90SAPS  H10S 8734   2.013  -0.047   9.476  0.2728 -2.2877 -0.4983
   90SAPS  C211 8735   2.143  -0.210   9.471  0.3903  0.2448 -0.5565
   90SAPS  H11R 8736   2.138  -0.264   9.567 -1.4013  1.9956  0.3462
   90SAPS  C212 8737   2.154  -0.283   9.359 -0.2981 -0.6562 -0.4354
   90SAPS  H12R 8738   2.167  -0.392   9.363 -0.6514 -0.6374  1.4040
   90SAPS  C213 8739   2.155  -0.224   9.222  0.1707 -0.2735  0.0926
   90SAPS  H13R 8740   2.076  -0.146   9.215  0.1918 -0.3679 -1.5669
   90SAPS  H13S 8741   2.115  -0.304   9.156 -0.1015 -0.6299  0.6872
   90SAPS  C214 8742   2.291  -0.172   9.174 -1.1842 -0.2894 -0.4468
   90SAPS  H14R 8743   2.360  -0.169   9.260  0.5962 -1.9044 -1.7880
   90SAPS  C215 8744   2.335  -0.139   9.047 -0.5291 -0.4886 -0.8030
   90SAPS  H15R 8745   2.441  -0.115   9.032  0.1400 -2.5089  0.4637
   90SAPS  C216 8746   2.259  -0.149   8.920  0.2862 -0.1067  0.2383
   90SAPS  H16R 8747   2.274  -0.057   8.860 -0.1436  1.2620  2.1815
   90SAPS  H16S 8748   2.151  -0.174   8.926  0.3118 -0.7941 -1.8509
   90SAPS  C217 8749   2.329  -0.261   8.844 -0.3011 -0.4492 -0.1412
   90SAPS  H17R 8750   2.436  -0.230   8.837 -0.0640 -0.9519  1.1407
   90SAPS  H17S 8751   2.293  -0.268   8.739  0.0806  0.5876 -0.3550
   90SAPS  C218 8752   2.306  -0.398   8.903 -0.2732  0.1396  0.2179
   90SAPS  H18R 8753   2.202  -0.417   8.936 -0.2193 -0.2547  0.1587
   90SAPS  H18S 8754   2.364  -0.403   8.997  2.7854 -1.2202 -1.6902
   90SAPS  C219 8755   2.361  -0.511   8.822 -1.0570  0.0802  1.3407
   90SAPS  H19R 8756   2.299  -0.552   8.739  0.5072 -1.6847  1.0083
   90SAPS  H19S 8757   2.360  -0.595   8.894 -0.6327 -1.3634 -0.2994
   90SAPS  C220 8758   2.512  -0.509   8.757 -0.9825  0.2699  0.2220
   90SAPS  H20R 8759   2.585  -0.512   8.841 -0.8423  0.9497  0.1221
   90SAPS  H20S 8760   2.527  -0.418   8.695  0.0037 -1.3529 -1.9972
   90SAPS  H20T 8761   2.528  -0.604   8.701  0.6582  0.6090  0.1151
   90SAPS   C33 8762   1.404   0.287   9.946 -0.8497  0.3254 -1.1320
   90SAPS   H3X 8763   1.388   0.178   9.956  0.3286  0.1276 -1.2816
   90SAPS   H3Y 8764   1.507   0.291   9.905 -1.0092  2.6654 -1.3557
   90SAPS   C34 8765   1.314   0.349   9.845  0.0637 -0.1400 -0.6288
   90SAPS   H4X 8766   1.335   0.457   9.831 -0.7008  0.0745 -0.1924
   90SAPS   H4Y 8767   1.207   0.346   9.876 -0.0603 -1.6956 -1.1447
   90SAPS   C35 8768   1.326   0.282   9.713  0.7823  0.2968  1.1116
   90SAPS   H5X 8769   1.291   0.176   9.715 -1.9201  1.0595 -1.2312
   90SAPS   H5Y 8770   1.434   0.278   9.692  0.2261 -0.6729 -1.7313
   90SAPS   C36 8771   1.242   0.337   9.601  0.4452 -0.3859 -0.0663
   90SAPS   H6X 8772   1.266   0.440   9.567 -0.4961 -0.1785 -0.1225
   90SAPS   H6Y 8773   1.136   0.343   9.632  1.4619  2.3192  3.2013
   90SAPS   C37 8774   1.263   0.256   9.468  0.1260 -0.2333  0.9905
   90SAPS   H7X 8775   1.237   0.151   9.492 -2.7210  0.9486  3.3625
   90SAPS   H7Y 8776   1.369   0.263   9.434 -0.6642 -0.6379 -1.6768
   90SAPS   C38 8777   1.183   0.308   9.349  0.7141 -0.1435  0.4028
   90SAPS   H8X 8778   1.215   0.411   9.322  1.5454 -1.2830 -3.2648
   90SAPS   H8Y 8779   1.075   0.313   9.373  0.3063 -0.1614 -1.3970
   90SAPS   C39 8780   1.195   0.215   9.226 -0.3742  0.1867  0.0130
   90SAPS   H9X 8781   1.143   0.117   9.236  0.7687 -0.4387 -0.1172
   90SAPS   H9Y 8782   1.301   0.195   9.198 -0.2185  0.7692  0.1890
   90SAPS  C310 8783   1.143   0.276   9.104 -0.2712 -0.3738 -0.4429
   90SAPS  H10X 8784   1.205   0.363   9.073 -0.3303 -0.1439  0.0867
   90SAPS  H10Y 8785   1.046   0.323   9.131 -0.1907 -0.5937  0.2318
   90SAPS  C311 8786   1.127   0.169   8.986 -0.9458 -0.1309 -0.1296
   90SAPS  H11X 8787   1.119   0.072   9.039 -2.4375  0.5798  0.9752
   90SAPS  H11Y 8788   1.223   0.166   8.930 -0.7904 -2.4065  0.2220
   90SAPS  C312 8789   1.009   0.210   8.899  0.4214 -1.0031 -0.2192
   90SAPS  H12X 8790   1.016   0.312   8.854  1.7610 -0.9859  0.0116
   90SAPS  H12Y 8791   0.932   0.216   8.978  1.2848 -0.9792  0.6366
   90SAPS  C313 8792   0.973   0.099   8.791 -0.0569 -0.1699 -0.4664
   90SAPS  H13X 8793   0.975  -0.003   8.835 -0.4049  0.4600  1.0376
   90SAPS  H13Y 8794   1.052   0.096   8.713  0.8243 -0.2791  0.4329
   90SAPS  C314 8795   0.835   0.133   8.724 -0.4496 -0.0397  0.4347
   90SAPS  H14X 8796   0.761   0.147   8.805 -2.4912  0.0490 -1.4139
   90SAPS  H14Y 8797   0.808   0.040   8.670  0.5609 -0.5661  0.8199
   90SAPS  C315 8798   0.840   0.260   8.639 -0.0413  0.2562 -1.3066
   90SAPS  H15X 8799   0.917   0.253   8.559  3.9694  0.4644  2.3421
   90SAPS  H15Y 8800   0.870   0.340   8.710  0.6538 -1.3137  0.1997
   90SAPS  C316 8801   0.701   0.295   8.577  0.8957 -0.3164  0.0102
   90SAPS  H16X 8802   0.696   0.401   8.543  1.7795 -0.7886 -1.6373
   90SAPS  H16Y 8803   0.629   0.266   8.656  1.6149 -1.1034  0.3916
   90SAPS  C317 8804   0.664   0.199   8.461 -0.9870 -0.0596 -0.5470
   90SAPS  H17X 8805   0.709   0.100   8.483  0.8356  0.4620 -1.8880
   90SAPS  H17Y 8806   0.703   0.239   8.366  1.8289  1.9438  1.3737
   90SAPS  C318 8807   0.513   0.179   8.448 -0.5907  0.0867 -0.0983
   90SAPS  H18X 8808   0.496   0.097   8.375 -0.9443  1.4741 -1.5986
   90SAPS  H18Y 8809   0.445   0.258   8.410 -0.3349  0.4592  0.1996
   90SAPS  H18Z 8810   0.467   0.159   8.547  0.3981  2.4689  0.8962
   91SAPS     N 8811   6.236   5.036   5.763  0.8153  0.1516  0.1028
   91SAPS   HN1 8812   6.204   5.023   5.665 -0.8021  1.8566  0.3682
   91SAPS   HN2 8813   6.152   5.054   5.822 -0.8969  0.2292 -2.2667
   91SAPS   HN3 8814   6.302   5.116   5.768  0.4893  0.6970 -3.1744
   91SAPS   C12 8815   6.308   4.912   5.807 -0.2683  0.3773  0.6211
   91SAPS  H12A 8816   6.238   4.832   5.793 -0.2457  0.0969  1.9890
   91SAPS   C13 8817   6.428   4.879   5.722  0.0384  0.5725 -0.4141
   91SAPS  O13A 8818   6.439   4.936   5.608  0.3328  0.1455 -0.4697
   91SAPS  O13B 8819   6.505   4.786   5.759  0.5035  0.0378 -0.1535
   91SAPS   C11 8820   6.350   4.934   5.953 -0.4652  0.3125  0.3103
   91SAPS  H11A 8821   6.410   5.028   5.956  0.2707 -0.1879  2.1891
   91SAPS  H11B 8822   6.426   4.857   5.976 -2.6214 -1.4154  1.8446
   91SAPS     P 8823   6.189   4.801   6.105 -0.0682 -0.0417  0.0128
   91SAPS   O13 8824   6.048   4.828   6.148 -0.0255  0.2720 -0.5525
   91SAPS   O14 8825   6.213   4.687   6.010  0.3255  0.3621  0.5076
   91SAPS   O12 8826   6.242   4.934   6.033  0.3277 -0.6210 -0.4289
   91SAPS   O11 8827   6.283   4.787   6.232 -0.9447  0.4214 -0.1791
   91SAPS    C1 8828   6.334   4.899   6.303  0.8222  0.3684  0.6081
   91SAPS    HA 8829   6.436   4.870   6.335  1.0070 -1.6942 -1.7000
   91SAPS    HB 8830   6.346   4.988   6.237 -1.4253  1.4852  1.6536
   91SAPS    C2 8831   6.262   4.941   6.432 -0.7123 -0.1726  0.3504
   91SAPS    HS 8832   6.323   5.027   6.467 -0.1925 -0.0013 -0.9229
   91SAPS   O21 8833   6.269   4.841   6.527 -0.0239  0.4364  0.2563
   91SAPS   C21 8834   6.378   4.812   6.598 -0.3629 -0.1417  0.4081
   91SAPS   O22 8835   6.485   4.868   6.596 -0.4999 -0.4791 -0.3054
   91SAPS   C22 8836   6.350   4.699   6.697 -0.0650  0.3504  0.5771
   91SAPS   H2R 8837   6.258   4.712   6.759 -1.1542 -2.0636 -0.4981
   91SAPS   H2S 8838   6.338   4.601   6.646  2.6604 -0.8724  2.1750
   91SAPS    C3 8839   6.117   4.987   6.407 -0.0984 -0.3906  0.3074
   91SAPS    HX 8840   6.047   4.914   6.361  0.8248 -1.6342  0.8318
   91SAPS    HY 8841   6.135   5.069   6.335 -0.2843 -2.2754 -1.9769
   91SAPS   O31 8842   6.056   5.038   6.534 -0.0098  0.0174  0.3504
   91SAPS   C31 8843   6.014   4.952   6.620  0.1653 -0.1115 -0.8204
   91SAPS   O32 8844   5.989   4.831   6.602 -0.5310 -0.1186  0.1355
   91SAPS   C32 8845   6.003   5.013   6.756  0.3757 -0.4834 -0.1408
   91SAPS   H2X 8846   5.966   4.938   6.829 -1.4506  1.3049  0.7986
   91SAPS   H2Y 8847   5.934   5.099   6.750  0.4597 -0.2887  1.4572
   91SAPS   C23 8848   6.470   4.686   6.793 -0.1037  0.5900 -0.5909
   91SAPS   H3R 8849   6.564   4.691   6.735  0.4940 -1.5887  0.1538
   91SAPS   H3S 8850   6.462   4.581   6.827  0.0546  0.4956 -0.8400
   91SAPS   C24 8851   6.464   4.790   6.903  0.6207 -0.1434  0.4301
   91SAPS   H4R 8852   6.359   4.802   6.938 -0.7783 -3.2635 -2.2905
   91SAPS   H4S 8853   6.489   4.890   6.863  1.4799 -0.6484 -0.3168
   91SAPS   C25 8854   6.559   4.750   7.014  0.2170 -0.1216  0.0832
   91SAPS   H5R 8855   6.666   4.752   6.988  0.1803 -1.2448 -0.1719
   91SAPS   C26 8856   6.528   4.732   7.145 -0.4060  0.8639  0.6625
   91SAPS   H6R 8857   6.610   4.695   7.208 -0.7216 -1.2039 -0.0904
   91SAPS   C27 8858   6.398   4.732   7.215  0.3193  0.2301 -0.5688
   91SAPS   H7R 8859   6.321   4.767   7.144 -0.6440 -1.6595 -0.4806
   91SAPS   H7S 8860   6.393   4.806   7.297  1.3846 -1.5340  1.1517
   91SAPS   C28 8861   6.360   4.595   7.260  1.0589 -0.2169 -0.8294
   91SAPS   H8R 8862   6.351   4.522   7.177 -2.8634  0.7320 -1.3003
   91SAPS   C29 8863   6.306   4.553   7.376 -0.3405 -0.1515  0.4366
   91SAPS   H9R 8864   6.270   4.450   7.392 -1.5556  0.1680 -0.1304
   91SAPS  C210 8865   6.276   4.645   7.495  0.3308  0.0517  0.2358
   91SAPS  H10R 8866   6.197   4.606   7.563  0.7068 -0.2314  0.5042
   91SAPS  H10S 8867   6.243   4.750   7.475  0.8862  0.0301 -0.8114
   91SAPS  C211 8868   6.402   4.671   7.577  0.1928  0.5964  0.7718
   91SAPS  H11R 8869   6.485   4.706   7.513  1.1963 -3.3043 -0.1515
   91SAPS  C212 8870   6.423   4.643   7.713 -0.1333  0.6049 -0.0741
   91SAPS  H12R 8871   6.514   4.690   7.752 -1.9281  2.2742  2.2599
   91SAPS  C213 8872   6.312   4.589   7.802 -0.2590 -0.4190  0.6590
   91SAPS  H13R 8873   6.263   4.510   7.741 -1.7816  2.3284 -1.7908
   91SAPS  H13S 8874   6.233   4.666   7.794  2.0368  2.2669  2.7679
   91SAPS  C214 8875   6.347   4.555   7.944 -0.0872 -0.2112 -0.1912
   91SAPS  H14R 8876   6.388   4.454   7.953 -1.6729 -0.6309  2.7809
   91SAPS  C215 8877   6.347   4.638   8.050 -0.2286 -0.2024 -0.0851
   91SAPS  H15R 8878   6.354   4.592   8.150 -0.7254 -0.9182 -0.3805
   91SAPS  C216 8879   6.300   4.778   8.045 -0.5135  0.0806  0.2838
   91SAPS  H16R 8880   6.200   4.782   8.093 -0.6006  1.9209 -0.0246
   91SAPS  H16S 8881   6.279   4.812   7.942 -0.8133  1.5855  0.8292
   91SAPS  C217 8882   6.399   4.878   8.108 -0.6712 -0.7120 -0.1694
   91SAPS  H17R 8883   6.370   4.984   8.094  1.7467  0.0187  0.1007
   91SAPS  H17S 8884   6.502   4.853   8.072 -0.8497  1.9021 -2.6651
   91SAPS  C218 8885   6.389   4.867   8.263  0.0771  0.0604 -0.3136
   91SAPS  H18R 8886   6.393   4.762   8.300  0.0030  0.2275  0.1655
   91SAPS  H18S 8887   6.294   4.916   8.289 -0.8356  0.1268 -3.5410
   91SAPS  C219 8888   6.507   4.936   8.345  0.1071  0.4427  0.9008
   91SAPS  H19R 8889   6.506   5.042   8.311 -2.1271 -0.3588 -1.7745
   91SAPS  H19S 8890   6.603   4.897   8.303 -0.3591 -0.8708  1.0310
   91SAPS  C220 8891   6.493   4.922   8.494 -0.7881  1.1406 -0.2601
   91SAPS  H20R 8892   6.469   4.818   8.524  1.5324  1.2590  2.2520
   91SAPS  H20S 8893   6.426   4.999   8.537 -0.0149  2.3337 -1.1755
   91SAPS  H20T 8894   6.597   4.943   8.529 -1.0380  2.0288 -0.0398
   91SAPS   C33 8895   6.133   5.083   6.800  0.0740 -0.2172 -0.9455
   91SAPS   H3X 8896   6.153   5.170   6.734 -0.8624  0.2541 -0.6237
   91SAPS   H3Y 8897   6.211   5.005   6.795 -0.5304 -1.0390  1.6864
   91SAPS   C34 8898   6.118   5.126   6.943 -0.5894 -0.4891 -0.1760
   91SAPS   H4X 8899   6.059   5.049   6.997 -1.2102  1.6818  2.3772
   91SAPS   H4Y 8900   6.052   5.215   6.951  1.5700  1.0146  1.6212
   91SAPS   C35 8901   6.248   5.146   7.018  0.7222  0.5580  0.0590
   91SAPS   H5X 8902   6.312   5.231   6.985  0.7770  1.2902  2.0017
   91SAPS   H5Y 8903   6.313   5.056   7.007  0.0776  0.1812 -0.7521
   91SAPS   C36 8904   6.226   5.160   7.166  0.2409 -0.0973 -0.1906
   91SAPS   H6X 8905   6.138   5.099   7.195  0.2983 -0.7191 -1.2889
   91SAPS   H6Y 8906   6.188   5.262   7.188  1.6372  0.2039  0.9199
   91SAPS   C37 8907   6.351   5.127   7.257  0.2843 -0.2182  0.4028
   91SAPS   H7X 8908   6.406   5.224   7.264 -3.0280  1.9433 -2.1480
   91SAPS   H7Y 8909   6.414   5.059   7.195 -0.7505 -0.6652 -0.1717
   91SAPS   C38 8910   6.306   5.074   7.394  0.1250  0.3648 -0.5171
   91SAPS   H8X 8911   6.264   4.972   7.387  0.5669  0.1289  0.2557
   91SAPS   H8Y 8912   6.222   5.142   7.423  0.3141  0.2294  0.3755
   91SAPS   C39 8913   6.410   5.063   7.504 -0.4859 -0.4613  0.5420
   91SAPS   H9X 8914   6.463   5.160   7.512 -1.1183  0.0258 -0.9427
   91SAPS   H9Y 8915   6.486   4.986   7.482  2.1973  1.6832  1.9863
   91SAPS  C310 8916   6.341   5.025   7.637 -0.3093 -0.4100  0.6282
   91SAPS  H10X 8917   6.277   4.936   7.618 -2.8156  1.4963 -0.1672
   91SAPS  H10Y 8918   6.277   5.111   7.666  0.5611  1.0902 -1.7191
   91SAPS  C311 8919   6.435   5.005   7.759 -0.0831  0.6922  0.6961
   91SAPS  H11X 8920   6.480   4.908   7.726 -2.3850 -0.8194  1.8452
   91SAPS  H11Y 8921   6.370   4.989   7.849 -1.5681  0.3959 -0.4072
   91SAPS  C312 8922   6.535   5.107   7.784  0.3214 -0.1391 -0.4963
   91SAPS  H12X 8923   6.602   5.119   7.696  0.8768 -0.3054 -0.1068
   91SAPS  H12Y 8924   6.604   5.076   7.866  0.0803 -1.0172 -0.6206
   91SAPS  C313 8925   6.466   5.234   7.840 -0.4194 -0.4706  0.0128
   91SAPS  H13X 8926   6.384   5.203   7.908  0.3069 -1.8548  0.2746
   91SAPS  H13Y 8927   6.416   5.305   7.771 -1.7704  1.0690  2.4897
   91SAPS  C314 8928   6.560   5.324   7.915  1.0706  0.1769 -0.8165
   91SAPS  H14X 8929   6.626   5.374   7.840 -1.7775  0.7185 -3.0334
   91SAPS  H14Y 8930   6.628   5.271   7.986  0.6671 -0.3323 -0.8060
   91SAPS  C315 8931   6.485   5.426   7.993 -0.8082 -0.9869 -0.2306
   91SAPS  H15X 8932   6.416   5.371   8.061 -1.1457  1.1311  1.2120
   91SAPS  H15Y 8933   6.419   5.484   7.925  0.8711 -0.9610 -1.8662
   91SAPS  C316 8934   6.575   5.522   8.079  0.9012 -0.5429  0.0924
   91SAPS  H16X 8935   6.662   5.551   8.016 -1.2610  3.1788 -1.3307
   91SAPS  H16Y 8936   6.616   5.478   8.173 -0.4065 -1.8517  0.0666
   91SAPS  C317 8937   6.510   5.660   8.101 -0.5671 -0.5164 -0.2463
   91SAPS  H17X 8938   6.409   5.644   8.142  0.0113 -1.9619  0.6241
   91SAPS  H17Y 8939   6.500   5.716   8.005 -0.0391  0.7341  0.4106
   91SAPS  C318 8940   6.590   5.746   8.199  0.4661 -0.1300 -0.5512
   91SAPS  H18X 8941   6.539   5.843   8.212 -1.5051 -1.4162  1.6953
   91SAPS  H18Y 8942   6.689   5.763   8.150  0.1855  1.0940 -0.6977
   91SAPS  H18Z 8943   6.590   5.707   8.303 -1.3413  0.3691 -0.3529
   92SAPS     N 8944   6.538   2.711   6.506  0.4853  0.2532  0.3307
   92SAPS   HN1 8945   6.620   2.769   6.481  1.5789 -1.0754  0.7421
   92SAPS   HN2 8946   6.487   2.741   6.592 -1.2795 -0.5884 -0.3965
   92SAPS   HN3 8947   6.577   2.614   6.512 -0.4233 -0.1262  0.0933
   92SAPS   C12 8948   6.446   2.726   6.382 -0.3393 -0.3513 -0.8743
   92SAPS  H12A 8949   6.455   2.830   6.354  2.1528 -0.4614 -0.5474
   92SAPS   C13 8950   6.489   2.647   6.257  0.5033  0.3664 -0.6525
   92SAPS  O13A 8951   6.579   2.558   6.267  0.4090  0.1332 -0.5742
   92SAPS  O13B 8952   6.461   2.692   6.143  0.1669  0.0271 -0.3939
   92SAPS   C11 8953   6.302   2.693   6.426  0.1466  0.0553  0.5651
   92SAPS  H11A 8954   6.305   2.586   6.456  1.8947  0.4008  1.7176
   92SAPS  H11B 8955   6.232   2.693   6.340 -0.1519  1.3249  0.7972
   92SAPS     P 8956   6.196   2.922   6.517  0.4078  0.0151  0.3317
   92SAPS   O13 8957   6.295   3.002   6.442  0.4013 -0.1094 -0.5636
   92SAPS   O14 8958   6.067   2.912   6.451 -0.0785 -0.2352 -0.4046
   92SAPS   O12 8959   6.263   2.771   6.546  0.1186  0.2328  0.0177
   92SAPS   O11 8960   6.176   2.974   6.653  0.7843 -0.2559 -0.2250
   92SAPS    C1 8961   6.186   2.891   6.766 -0.4510  1.1291  0.0342
   92SAPS    HA 8962   6.277   2.828   6.762 -1.6503 -0.6805  0.8227
   92SAPS    HB 8963   6.207   2.959   6.852 -0.4310 -0.7121  1.5243
   92SAPS    C2 8964   6.062   2.798   6.792  0.7800  1.3186  0.0026
   92SAPS    HS 8965   6.033   2.753   6.694 -0.4352  0.6548  0.6554
   92SAPS   O21 8966   5.952   2.881   6.826  0.1152  0.0490 -0.0178
   92SAPS   C21 8967   5.835   2.812   6.830  0.2431 -0.7943 -0.0767
   92SAPS   O22 8968   5.820   2.706   6.773  0.1611 -0.0278 -0.2206
   92SAPS   C22 8969   5.731   2.900   6.899 -0.3053 -0.5908 -0.3627
   92SAPS   H2R 8970   5.768   2.997   6.939 -3.1982  0.2526  0.4166
   92SAPS   H2S 8971   5.659   2.930   6.820 -0.1123  2.4911  0.5440
   92SAPS    C3 8972   6.073   2.677   6.895  0.3159 -0.5373  0.0615
   92SAPS    HX 8973   5.985   2.610   6.881 -0.7583  0.9827 -0.5318
   92SAPS    HY 8974   6.079   2.712   7.000 -2.1989 -2.0067  0.7435
   92SAPS   O31 8975   6.193   2.586   6.877  0.1673 -0.0005 -0.1208
   92SAPS   C31 8976   6.199   2.509   6.778 -0.3637  0.1035 -0.6335
   92SAPS   O32 8977   6.124   2.505   6.686  0.0100 -1.0403  0.1129
   92SAPS   C32 8978   6.327   2.422   6.793  0.8265  0.7669 -0.0444
   92SAPS   H2X 8979   6.393   2.443   6.706 -0.3555 -1.2157 -1.4621
   92SAPS   H2Y 8980   6.291   2.317   6.785 -2.0966  1.6812  0.3399
   92SAPS   C23 8981   5.642   2.844   7.015 -0.2590  0.7532  0.0120
   92SAPS   H3R 8982   5.592   2.748   6.992 -0.5279  0.9003 -0.0182
   92SAPS   H3S 8983   5.559   2.919   7.017 -0.8024  0.1591 -0.1579
   92SAPS   C24 8984   5.712   2.826   7.152 -0.0665 -0.2299 -1.0041
   92SAPS   H4R 8985   5.800   2.761   7.131 -0.2776 -0.7213 -0.3659
   92SAPS   H4S 8986   5.646   2.764   7.217  1.2632 -0.4496  0.1730
   92SAPS   C25 8987   5.754   2.952   7.225 -0.6646  0.3971  0.0284
   92SAPS   H5R 8988   5.816   3.025   7.171  0.7061 -0.9740 -0.2816
   92SAPS   C26 8989   5.746   2.972   7.358  0.0259 -0.2392  0.5630
   92SAPS   H6R 8990   5.777   3.073   7.392  0.3546 -0.1950  0.1301
   92SAPS   C27 8991   5.665   2.883   7.451 -0.0054  0.4943 -0.3520
   92SAPS   H7R 8992   5.574   2.853   7.394 -0.1797  0.6807 -0.1708
   92SAPS   H7S 8993   5.629   2.957   7.526  0.3945  0.3229  0.0096
   92SAPS   C28 8994   5.731   2.773   7.521 -0.8419  0.3162 -0.4064
   92SAPS   H8R 8995   5.721   2.674   7.473  0.1266 -0.3516  0.7420
   92SAPS   C29 8996   5.803   2.780   7.635  0.0382 -0.1004  0.2128
   92SAPS   H9R 8997   5.846   2.687   7.673  1.3924  1.2080  1.9619
   92SAPS  C210 8998   5.836   2.904   7.710  0.2950  0.3827 -0.6066
   92SAPS  H10R 8999   5.736   2.949   7.726 -0.6087 -2.0010  0.8001
   92SAPS  H10S 9000   5.901   2.968   7.646  0.3098  0.7626 -0.2129
   92SAPS  C211 9001   5.913   2.876   7.841  0.4092  0.3451 -0.1683
   92SAPS  H11R 9002   6.023   2.869   7.832  0.3353 -2.1791  0.4566
   92SAPS  C212 9003   5.855   2.888   7.962  0.0594  0.1825 -0.0456
   92SAPS  H12R 9004   5.919   2.866   8.049  1.1984  1.0439 -0.6584
   92SAPS  C213 9005   5.704   2.929   7.991 -0.5948  0.7672 -0.5496
   92SAPS  H13R 9006   5.641   2.954   7.903  0.7354  0.0970 -1.7152
   92SAPS  H13S 9007   5.693   3.020   8.053  0.8717  1.1491 -0.8374
   92SAPS  C214 9008   5.646   2.812   8.062  0.0139 -1.0246  0.0175
   92SAPS  H14R 9009   5.581   2.752   7.996  0.2319 -0.8548 -0.3541
   92SAPS  C215 9010   5.668   2.768   8.187 -0.4159 -0.6814  0.6553
   92SAPS  H15R 9011   5.620   2.676   8.223 -0.4840 -0.4220  1.2209
   92SAPS  C216 9012   5.765   2.829   8.282 -0.0924 -0.3575 -0.2889
   92SAPS  H16R 9013   5.720   2.848   8.382 -0.4408  0.1959 -0.5476
   92SAPS  H16S 9014   5.800   2.928   8.244  0.8659 -1.6902 -3.0114
   92SAPS  C217 9015   5.888   2.747   8.318 -0.0706  0.3870 -0.0213
   92SAPS  H17R 9016   5.952   2.799   8.393  1.2055  0.9890 -1.4941
   92SAPS  H17S 9017   5.953   2.731   8.229  0.6744 -0.9162  0.7349
   92SAPS  C218 9018   5.849   2.611   8.384 -0.6987  0.4454 -0.3556
   92SAPS  H18R 9019   5.796   2.554   8.305 -0.7950 -1.8895  1.3541
   92SAPS  H18S 9020   5.777   2.621   8.468 -1.5209 -0.4116 -0.9389
   92SAPS  C219 9021   5.976   2.533   8.435 -0.7142 -0.0888  0.4112
   92SAPS  H19R 9022   6.060   2.569   8.373  0.0787 -2.3938  0.1081
   92SAPS  H19S 9023   5.954   2.425   8.419  1.2004 -0.1439 -2.1102
   92SAPS  C220 9024   6.016   2.567   8.578 -0.0780  0.0863  0.2311
   92SAPS  H20R 9025   6.099   2.504   8.618 -0.9328  1.5699  4.6770
   92SAPS  H20S 9026   5.939   2.545   8.655  0.5828  3.4774  1.9784
   92SAPS  H20T 9027   6.039   2.675   8.593 -4.1063  1.3265 -1.7687
   92SAPS   C33 9028   6.409   2.429   6.925 -0.2134 -0.4818  0.5331
   92SAPS   H3X 9029   6.454   2.530   6.925 -0.1554 -0.4998 -0.5397
   92SAPS   H3Y 9030   6.491   2.354   6.918  0.0913  0.1394 -3.6062
   92SAPS   C34 9031   6.323   2.396   7.050 -0.5698 -0.1373 -0.3916
   92SAPS   H4X 9032   6.287   2.291   7.058  0.6130 -0.5129  0.1372
   92SAPS   H4Y 9033   6.229   2.455   7.059  0.1469  0.9437  0.1306
   92SAPS   C35 9034   6.408   2.440   7.174  0.0064 -0.2117  1.1213
   92SAPS   H5X 9035   6.342   2.454   7.262  0.0455  2.0705  0.8169
   92SAPS   H5Y 9036   6.452   2.541   7.157  0.2418 -0.7480 -1.6030
   92SAPS   C36 9037   6.527   2.353   7.225  0.1374 -0.4618 -0.1703
   92SAPS   H6X 9038   6.606   2.360   7.148 -0.1619 -0.1352 -0.4482
   92SAPS   H6Y 9039   6.491   2.249   7.242 -2.8901  0.5377 -0.0814
   92SAPS   C37 9040   6.581   2.395   7.363  0.3673  0.6496 -0.1150
   92SAPS   H7X 9041   6.612   2.500   7.346 -0.1583  1.2247  2.2274
   92SAPS   H7Y 9042   6.670   2.331   7.379 -1.3408 -1.4755  1.2988
   92SAPS   C38 9043   6.472   2.377   7.480  0.4309 -0.1684  0.8813
   92SAPS   H8X 9044   6.425   2.279   7.458 -3.6141  1.4450  1.8546
   92SAPS   H8Y 9045   6.391   2.453   7.483  0.1237 -0.3776 -1.5434
   92SAPS   C39 9046   6.541   2.383   7.617 -0.1341  0.0995 -0.2219
   92SAPS   H9X 9047   6.561   2.489   7.646 -0.9521 -0.1333  1.1764
   92SAPS   H9Y 9048   6.644   2.342   7.610  0.0477  0.5863 -0.4404
   92SAPS  C310 9049   6.481   2.310   7.740 -0.2317  0.8215 -0.8869
   92SAPS  H10X 9050   6.475   2.204   7.707  1.7186  0.3889  0.0775
   92SAPS  H10Y 9051   6.376   2.343   7.753 -0.0755  0.8665  0.3214
   92SAPS  C311 9052   6.569   2.311   7.867  0.1797 -0.0314  0.3487
   92SAPS  H11X 9053   6.588   2.415   7.900  0.7832  0.9033 -2.7764
   92SAPS  H11Y 9054   6.657   2.244   7.856 -0.6032 -1.3236  1.7592
   92SAPS  C312 9055   6.497   2.240   7.988  0.0913 -0.2141  0.3419
   92SAPS  H12X 9056   6.484   2.136   7.952  1.5598  0.3525 -1.9414
   92SAPS  H12Y 9057   6.396   2.287   7.982  1.0037  1.5450 -2.1726
   92SAPS  C313 9058   6.575   2.260   8.113  0.9123 -0.0535  0.3366
   92SAPS  H13X 9059   6.587   2.370   8.104 -0.2775  0.0658  0.0688
   92SAPS  H13Y 9060   6.672   2.207   8.107  0.0843 -1.6423  0.8363
   92SAPS  C314 9061   6.497   2.220   8.236 -0.3762 -0.0644  0.2490
   92SAPS  H14X 9062   6.421   2.300   8.246 -0.8082 -0.2987 -1.1242
   92SAPS  H14Y 9063   6.558   2.228   8.329 -0.2342 -0.8965  0.2309
   92SAPS  C315 9064   6.452   2.077   8.223 -0.1046 -0.0816 -0.2658
   92SAPS  H15X 9065   6.537   2.005   8.216  0.0599  0.1719 -0.9207
   92SAPS  H15Y 9066   6.395   2.061   8.129  0.9760  1.1876 -1.1632
   92SAPS  C316 9067   6.352   2.031   8.330  0.4214 -0.1167  0.0677
   92SAPS  H16X 9068   6.262   2.086   8.297 -1.2841 -2.5312  0.5753
   92SAPS  H16Y 9069   6.391   2.070   8.427  0.5823  0.5025 -0.2472
   92SAPS  C317 9070   6.328   1.877   8.317 -0.6256  0.4286  0.2720
   92SAPS  H17X 9071   6.283   1.851   8.415 -0.3233 -2.3207 -0.2710
   92SAPS  H17Y 9072   6.422   1.820   8.333 -0.0182  1.7399  1.4395
   92SAPS  C318 9073   6.256   1.827   8.199 -0.3716  0.5657  1.3211
   92SAPS  H18X 9074   6.153   1.863   8.219 -0.3907 -0.5169  3.3073
   92SAPS  H18Y 9075   6.264   1.716   8.193  0.8763  0.6965  0.5027
   92SAPS  H18Z 9076   6.283   1.862   8.097 -0.5388  0.5232  1.2622
   93SAPS     N 9077   0.050   2.521   6.236 -0.5136  1.0469 -0.4776
   93SAPS   HN1 9078   0.046   2.447   6.309  0.9863 -2.2776 -3.5960
   93SAPS   HN2 9079  -0.035   2.580   6.247 -0.1315  1.2989  1.2868
   93SAPS   HN3 9080   0.044   2.482   6.140 -1.6229  0.4650 -0.1773
   93SAPS   C12 9081   0.171   2.592   6.260 -0.1341  0.0523  0.5419
   93SAPS  H12A 9082   0.247   2.516   6.260 -1.4362 -1.3690  4.0042
   93SAPS   C13 9083   0.204   2.702   6.166 -0.1295 -1.2146 -0.3996
   93SAPS  O13A 9084   0.105   2.741   6.101  0.2937  0.2472 -0.0862
   93SAPS  O13B 9085   0.316   2.757   6.151 -0.3693  0.0595  0.1304
   93SAPS   C11 9086   0.163   2.641   6.400 -0.0414  0.1936  0.0577
   93SAPS  H11A 9087   0.264   2.682   6.419  0.5492 -0.9296 -0.6051
   93SAPS  H11B 9088   0.150   2.559   6.474  0.3181  1.7697  1.8957
   93SAPS     P 9089   0.066   2.868   6.491 -0.5729 -0.3811 -0.1234
   93SAPS   O13 9090   0.168   2.951   6.428 -0.4209  0.2747  0.0242
   93SAPS   O14 9091  -0.067   2.927   6.510 -0.5554  0.3635 -0.7002
   93SAPS   O12 9092   0.053   2.736   6.407 -0.0805  0.4137 -0.0277
   93SAPS   O11 9093   0.123   2.824   6.632  0.2298 -0.6367  0.5003
   93SAPS    C1 9094   0.053   2.735   6.719 -0.2441 -0.3085 -0.1145
   93SAPS    HA 9095  -0.041   2.697   6.674 -0.0497 -2.5749  1.3308
   93SAPS    HB 9096   0.120   2.650   6.743 -0.2564 -0.2686  0.0635
   93SAPS    C2 9097   0.024   2.798   6.859  0.6302 -0.2987 -0.2043
   93SAPS    HS 9098  -0.040   2.735   6.924  0.6162 -0.9696 -0.8623
   93SAPS   O21 9099  -0.046   2.919   6.831 -0.2311 -0.3505  0.1212
   93SAPS   C21 9100  -0.170   2.901   6.801 -0.6824 -0.6922 -0.5252
   93SAPS   O22 9101  -0.227   2.795   6.791 -0.9858 -0.3954  0.0390
   93SAPS   C22 9102  -0.237   3.036   6.761 -0.1687  0.1001  0.3845
   93SAPS   H2R 9103  -0.175   3.103   6.698 -0.1318  0.2884  0.6206
   93SAPS   H2S 9104  -0.331   3.025   6.701 -0.2772 -0.4388  0.6504
   93SAPS    C3 9105   0.164   2.832   6.927  0.8689  0.0241  0.4604
   93SAPS    HX 9106   0.213   2.908   6.862  1.2446 -2.0819 -1.7634
   93SAPS    HY 9107   0.228   2.742   6.920 -0.8229 -1.2208  0.8779
   93SAPS   O31 9108   0.151   2.886   7.061  0.7189 -0.3000  0.0159
   93SAPS   C31 9109   0.103   2.792   7.146  0.2867  0.7244 -0.1666
   93SAPS   O32 9110   0.085   2.677   7.117  0.3251  0.0916 -0.5159
   93SAPS   C32 9111   0.083   2.853   7.283  0.7189 -0.4718 -0.4757
   93SAPS   H2X 9112   0.017   2.943   7.276  0.7788 -0.1540  2.6041
   93SAPS   H2Y 9113   0.183   2.883   7.320  0.2249  0.9519 -0.2568
   93SAPS   C23 9114  -0.284   3.115   6.885 -0.0937  0.7432 -0.0113
   93SAPS   H3R 9115  -0.196   3.160   6.937 -1.3859  0.8795  2.1135
   93SAPS   H3S 9116  -0.339   3.054   6.960  0.8121 -1.3327 -0.9887
   93SAPS   C24 9117  -0.389   3.237   6.849 -0.0976  0.2018  0.0275
   93SAPS   H4R 9118  -0.424   3.284   6.944  1.3453 -3.0433  2.2399
   93SAPS   H4S 9119  -0.471   3.192   6.789  0.4450  0.2417 -0.7462
   93SAPS   C25 9120  -0.326   3.343   6.763  0.7711  0.2705 -0.1221
   93SAPS   H5R 9121  -0.320   3.329   6.654 -0.3542 -1.7645  0.0641
   93SAPS   C26 9122  -0.276   3.459   6.804  0.0865  0.3246  0.2568
   93SAPS   H6R 9123  -0.254   3.535   6.728  3.2577 -0.3481  0.4272
   93SAPS   C27 9124  -0.273   3.512   6.943 -0.2169  0.1452  0.2538
   93SAPS   H7R 9125  -0.304   3.431   7.013 -1.2007 -0.0108 -0.3428
   93SAPS   H7S 9126  -0.349   3.592   6.958 -0.3079  0.0828  0.1260
   93SAPS   C28 9127  -0.135   3.563   6.983 -0.1182 -0.8533  0.0283
   93SAPS   H8R 9128  -0.076   3.612   6.904  1.5304 -4.8175 -1.3813
   93SAPS   C29 9129  -0.097   3.578   7.107  0.3534 -0.1764  0.0385
   93SAPS   H9R 9130   0.003   3.622   7.118  1.2537 -1.7364 -1.4981
   93SAPS  C210 9131  -0.178   3.547   7.232 -0.3846  0.5993 -0.7006
   93SAPS  H10R 9132  -0.226   3.447   7.226 -0.7167  0.7386 -0.3958
   93SAPS  H10S 9133  -0.265   3.616   7.233 -0.2803  0.7209  0.1759
   93SAPS  C211 9134  -0.103   3.566   7.361 -0.2577 -0.1278 -0.1829
   93SAPS  H11R 9135  -0.008   3.620   7.352  0.1769 -0.7402  0.6833
   93SAPS  C212 9136  -0.146   3.530   7.481  0.1922 -0.1149 -0.0423
   93SAPS  H12R 9137  -0.089   3.570   7.566 -1.3167 -0.0553  0.9739
   93SAPS  C213 9138  -0.280   3.473   7.522 -0.3825 -0.2406 -0.4034
   93SAPS  H13R 9139  -0.312   3.399   7.445 -0.3546 -1.6745  0.9338
   93SAPS  H13S 9140  -0.355   3.555   7.515  0.5282  0.8899  2.4979
   93SAPS  C214 9141  -0.276   3.421   7.663 -0.3334 -0.0374  0.5110
   93SAPS  H14R 9142  -0.253   3.499   7.737  0.5756  1.5257 -1.3741
   93SAPS  C215 9143  -0.275   3.290   7.695  0.1640  0.3848  0.2180
   93SAPS  H15R 9144  -0.247   3.264   7.798  1.2259 -0.0021 -0.1605
   93SAPS  C216 9145  -0.298   3.173   7.600 -0.0831 -0.0448 -0.1741
   93SAPS  H16R 9146  -0.201   3.129   7.569  0.0301  1.1702 -1.5781
   93SAPS  H16S 9147  -0.349   3.212   7.510 -0.5093  1.0674  0.5337
   93SAPS  C217 9148  -0.394   3.068   7.664 -0.5130 -0.4182  0.0344
   93SAPS  H17R 9149  -0.436   3.001   7.586 -0.3062  0.2761 -0.6737
   93SAPS  H17S 9150  -0.483   3.128   7.693 -1.2548 -1.6894  0.4571
   93SAPS  C218 9151  -0.350   2.998   7.794  0.5753  0.0964 -0.2491
   93SAPS  H18R 9152  -0.424   2.926   7.835  1.0194  0.0509  0.4738
   93SAPS  H18S 9153  -0.337   3.080   7.867 -0.2801  1.4963 -1.6196
   93SAPS  C219 9154  -0.228   2.912   7.779  0.2144 -0.0340 -0.7124
   93SAPS  H19R 9155  -0.212   2.853   7.872 -0.5436  0.2102 -0.4278
   93SAPS  H19S 9156  -0.143   2.980   7.756  1.1735 -0.4686  1.3880
   93SAPS  C220 9157  -0.237   2.805   7.671 -0.3657  0.6154  0.3518
   93SAPS  H20R 9158  -0.136   2.762   7.665  0.1196  1.7887 -0.0505
   93SAPS  H20S 9159  -0.270   2.843   7.572 -0.1843  0.9309  0.4099
   93SAPS  H20T 9160  -0.308   2.724   7.697  0.7838 -0.3476  0.4782
   93SAPS   C33 9161   0.022   2.755   7.380 -0.2890  0.0403  0.1239
   93SAPS   H3X 9162  -0.085   2.742   7.351  0.3569  0.1573 -2.4427
   93SAPS   H3Y 9163   0.024   2.817   7.472 -0.4366  0.5421 -0.2083
   93SAPS   C34 9164   0.095   2.623   7.409  0.3209  0.3991  0.3116
   93SAPS   H4X 9165   0.204   2.642   7.404  0.1277  1.6269  0.4591
   93SAPS   H4Y 9166   0.070   2.554   7.326  0.5207  0.4553  0.2027
   93SAPS   C35 9167   0.066   2.552   7.549 -0.2535  0.9206  0.0613
   93SAPS   H5X 9168   0.096   2.446   7.537  1.0476  1.1360  1.2449
   93SAPS   H5Y 9169  -0.040   2.573   7.573 -0.4212  0.4377 -0.2509
   93SAPS   C36 9170   0.153   2.612   7.665 -0.4654 -0.3224 -0.0787
   93SAPS   H6X 9171   0.146   2.721   7.649 -0.2903 -0.3326 -0.2145
   93SAPS   H6Y 9172   0.255   2.570   7.656 -0.6237 -1.3115  2.1255
   93SAPS   C37 9173   0.108   2.577   7.805  0.6130  0.3284 -0.5046
   93SAPS   H7X 9174   0.122   2.468   7.825 -0.1529 -0.5297 -4.2378
   93SAPS   H7Y 9175  -0.003   2.585   7.810  0.4897 -1.4515 -0.0199
   93SAPS   C38 9176   0.179   2.650   7.914  0.9377  0.1192 -0.6449
   93SAPS   H8X 9177   0.137   2.752   7.926  0.5629 -0.2782  1.7453
   93SAPS   H8Y 9178   0.289   2.644   7.901  1.0303 -1.1129  0.5304
   93SAPS   C39 9179   0.168   2.583   8.057  0.2614 -0.1721  0.0049
   93SAPS   H9X 9180   0.240   2.501   8.080 -1.1036 -0.7667  2.2785
   93SAPS   H9Y 9181   0.075   2.524   8.071  1.6272 -2.2498  0.7019
   93SAPS  C310 9182   0.180   2.678   8.180  0.5750 -0.1438 -0.7598
   93SAPS  H10X 9183   0.154   2.637   8.280  0.5817  1.1461 -0.2169
   93SAPS  H10Y 9184   0.110   2.763   8.163  0.1453 -0.2153  0.6271
   93SAPS  C311 9185   0.315   2.745   8.194 -0.2643  0.2394  0.1561
   93SAPS  H11X 9186   0.345   2.780   8.093  3.0338 -1.1099  0.6239
   93SAPS  H11Y 9187   0.371   2.662   8.240 -2.8018 -0.0971  2.7594
   93SAPS  C312 9188   0.315   2.842   8.311 -0.3224  0.5516  0.3742
   93SAPS  H12X 9189   0.280   2.790   8.402  0.2259 -0.6787 -0.1144
   93SAPS  H12Y 9190   0.241   2.924   8.299  0.2001  1.2563  1.8462
   93SAPS  C313 9191   0.453   2.895   8.327 -0.0258 -0.3522 -0.5684
   93SAPS  H13X 9192   0.498   2.923   8.229  0.7004  2.3268  0.5053
   93SAPS  H13Y 9193   0.510   2.810   8.370 -3.1434 -2.9154 -1.2866
   93SAPS  C314 9194   0.472   3.013   8.423 -0.1688  0.8335  0.1868
   93SAPS  H14X 9195   0.578   3.048   8.427  0.6796 -1.6699  0.8348
   93SAPS  H14Y 9196   0.451   2.971   8.524 -1.8664  1.3246  0.0595
   93SAPS  C315 9197   0.376   3.131   8.414 -0.1227 -0.3572 -0.0820
   93SAPS  H15X 9198   0.379   3.194   8.506 -3.3272 -0.8542  0.4200
   93SAPS  H15Y 9199   0.269   3.102   8.420  0.1384 -1.1641  0.9167
   93SAPS  C316 9200   0.409   3.202   8.285  0.4570 -1.1411  0.5592
   93SAPS  H16X 9201   0.361   3.132   8.214  0.5619  0.1308 -0.7913
   93SAPS  H16Y 9202   0.518   3.208   8.264  0.1035 -1.2053 -1.3855
   93SAPS  C317 9203   0.361   3.348   8.273  0.5651  0.5213 -0.0985
   93SAPS  H17X 9204   0.407   3.410   8.353 -0.4124 -0.7956  1.5215
   93SAPS  H17Y 9205   0.253   3.353   8.299  0.6024  1.7274 -0.1359
   93SAPS  C318 9206   0.378   3.401   8.133  0.3739 -0.4792  0.5574
   93SAPS  H18X 9207   0.356   3.510   8.130 -0.5631 -0.6664  0.4084
   93SAPS  H18Y 9208   0.317   3.353   8.053  0.0283  0.4699  0.2454
   93SAPS  H18Z 9209   0.486   3.390   8.109  0.4806  0.1124  0.7687
   94SAPS     N 9210   5.858   4.575   5.676 -0.2912  0.3068 -0.1103
   94SAPS   HN1 9211   5.900   4.480   5.673  0.0844  0.4305  0.8561
   94SAPS   HN2 9212   5.893   4.608   5.768  0.2874 -0.1411 -0.1649
   94SAPS   HN3 9213   5.754   4.572   5.674 -0.4374  3.8300 -1.3984
   94SAPS   C12 9214   5.925   4.661   5.579 -0.2359 -0.1578  0.2136
   94SAPS  H12A 9215   6.032   4.649   5.587 -0.0269  0.7769 -1.0809
   94SAPS   C13 9216   5.879   4.610   5.430 -1.0674 -0.2010 -0.7566
   94SAPS  O13A 9217   5.762   4.571   5.430 -0.2491  0.0084  0.6189
   94SAPS  O13B 9218   5.944   4.661   5.333 -0.0949 -0.1239 -0.6827
   94SAPS   C11 9219   5.888   4.814   5.596  0.0675  0.3030  0.6116
   94SAPS  H11A 9220   5.778   4.821   5.583  0.4421 -0.5101 -3.7682
   94SAPS  H11B 9221   5.938   4.874   5.517 -1.6949 -0.0169 -0.7639
   94SAPS     P 9222   5.863   4.983   5.793  0.4243 -0.1852  0.0832
   94SAPS   O13 9223   5.771   5.057   5.700 -0.0028 -0.2007 -0.3268
   94SAPS   O14 9224   5.805   4.931   5.914  0.4017  0.1837  0.4014
   94SAPS   O12 9225   5.936   4.859   5.721 -0.4012 -0.1849 -0.0495
   94SAPS   O11 9226   5.981   5.078   5.845  0.1503 -0.4327 -0.0237
   94SAPS    C1 9227   5.947   5.217   5.866  0.4738  0.5091  0.4608
   94SAPS    HA 9228   5.983   5.274   5.778  0.2128  0.5071  0.3505
   94SAPS    HB 9229   5.839   5.238   5.880  0.5686  2.7167 -1.8843
   94SAPS    C2 9230   6.022   5.274   5.990 -0.0237  0.4830  0.1793
   94SAPS    HS 9231   6.003   5.383   5.995  2.0578  0.9624 -1.5197
   94SAPS   O21 9232   6.161   5.237   5.991 -0.4651 -0.1948 -0.0263
   94SAPS   C21 9233   6.246   5.337   6.032 -0.4245 -0.8852  0.8957
   94SAPS   O22 9234   6.218   5.454   6.055  0.3306  0.2958 -0.5453
   94SAPS   C22 9235   6.383   5.277   6.064 -0.9189  0.4681 -0.3971
   94SAPS   H2R 9236   6.353   5.173   6.089  0.5999  0.1546  0.1512
   94SAPS   H2S 9237   6.450   5.285   5.976 -1.0130 -0.3187 -0.5486
   94SAPS    C3 9238   5.965   5.206   6.122 -0.1574  0.2944  0.8342
   94SAPS    HX 9239   5.983   5.099   6.102  0.3552 -0.3245  4.3342
   94SAPS    HY 9240   5.857   5.232   6.125 -0.3607 -0.3554 -0.5729
   94SAPS   O31 9241   6.032   5.244   6.247 -0.4237 -0.1034 -0.1950
   94SAPS   C31 9242   6.000   5.369   6.294  0.7776 -0.1405 -0.1367
   94SAPS   O32 9243   5.918   5.445   6.237  0.1301  0.1791  0.1214
   94SAPS   C32 9244   6.066   5.392   6.432 -0.4754  0.0990 -0.4670
   94SAPS   H2X 9245   6.142   5.471   6.417 -0.5257  0.0647 -0.8990
   94SAPS   H2Y 9246   6.121   5.300   6.460 -0.6315  0.0833 -0.2017
   94SAPS   C23 9247   6.465   5.350   6.175 -0.3840  0.7867 -0.6046
   94SAPS   H3R 9248   6.405   5.349   6.269  2.6280 -1.5117  1.4159
   94SAPS   H3S 9249   6.491   5.456   6.153  0.3040  0.6442 -0.4855
   94SAPS   C24 9250   6.593   5.278   6.212 -0.2096 -0.4763 -0.0012
   94SAPS   H4R 9251   6.667   5.343   6.264 -1.3741  1.6094 -0.8991
   94SAPS   H4S 9252   6.632   5.238   6.115 -1.6731 -0.1779 -0.7216
   94SAPS   C25 9253   6.575   5.170   6.318  0.7317  0.3981 -0.3789
   94SAPS   H5R 9254   6.574   5.080   6.255  0.1111  2.2442 -3.1035
   94SAPS   C26 9255   6.559   5.171   6.453  0.2599  0.3537 -0.0523
   94SAPS   H6R 9256   6.543   5.079   6.510 -2.1029  0.2138 -0.8565
   94SAPS   C27 9257   6.540   5.293   6.535 -0.3010 -0.7193  0.8822
   94SAPS   H7R 9258   6.566   5.377   6.467  3.7291 -3.3814 -1.0577
   94SAPS   H7S 9259   6.620   5.297   6.612  0.8970  0.6799 -0.3986
   94SAPS   C28 9260   6.408   5.302   6.605  0.2969  0.2953 -0.4950
   94SAPS   H8R 9261   6.331   5.224   6.595  1.1109 -0.9172  2.2160
   94SAPS   C29 9262   6.390   5.396   6.708 -0.1781 -0.5080  0.6372
   94SAPS   H9R 9263   6.302   5.387   6.773 -1.1942 -1.2512 -0.8061
   94SAPS  C210 9264   6.492   5.503   6.743  0.0488 -0.7102 -0.0901
   94SAPS  H10R 9265   6.441   5.601   6.740 -2.5409 -1.8545  3.0568
   94SAPS  H10S 9266   6.569   5.514   6.664 -1.8876  2.1781 -1.6279
   94SAPS  C211 9267   6.554   5.482   6.880 -0.6726  0.6078  0.6589
   94SAPS  H11R 9268   6.537   5.384   6.926 -1.1493 -0.3605 -1.4814
   94SAPS  C212 9269   6.626   5.581   6.935 -0.2911 -0.2085 -0.4003
   94SAPS  H12R 9270   6.676   5.546   7.027 -0.2261  0.6400 -0.1059
   94SAPS  C213 9271   6.665   5.720   6.885  0.3810  0.3955  0.8990
   94SAPS  H13R 9272   6.600   5.798   6.930 -3.5348 -1.5634 -1.1428
   94SAPS  H13S 9273   6.636   5.741   6.780  0.8101  1.4158  0.9769
   94SAPS  C214 9274   6.819   5.742   6.883 -0.3456 -0.1524 -0.8859
   94SAPS  H14R 9275   6.870   5.710   6.790 -3.4806 -0.9019 -2.4487
   94SAPS  C215 9276   6.899   5.796   6.979 -0.1982 -0.1880 -0.5641
   94SAPS  H15R 9277   7.008   5.794   6.960 -0.0329  1.1901  0.1888
   94SAPS  C216 9278   6.862   5.848   7.118 -0.1401 -0.4054  0.0176
   94SAPS  H16R 9279   6.923   5.792   7.192  2.5909  2.3136 -0.0865
   94SAPS  H16S 9280   6.753   5.831   7.133 -0.5696  1.2868 -1.0704
   94SAPS  C217 9281   6.891   5.998   7.122  0.2134 -0.6941 -1.0697
   94SAPS  H17R 9282   6.832   6.063   7.054  0.3622  1.2861  0.6561
   94SAPS  H17S 9283   7.001   6.003   7.108  0.2472  0.7616 -0.4290
   94SAPS  C218 9284   6.870   6.054   7.260  0.1963  0.5283 -0.2504
   94SAPS  H18R 9285   6.934   6.000   7.333 -2.0123 -2.6108 -0.5584
   94SAPS  H18S 9286   6.765   6.028   7.286  0.6432  0.5185  1.6888
   94SAPS  C219 9287   6.898   6.200   7.259  0.1725 -0.1480 -0.1644
   94SAPS  H19R 9288   6.826   6.245   7.187 -0.5769 -0.0718  0.6297
   94SAPS  H19S 9289   6.995   6.216   7.207 -1.2007  0.8016 -2.5112
   94SAPS  C220 9290   6.897   6.256   7.400 -0.0797 -1.3457 -0.3061
   94SAPS  H20R 9291   6.977   6.208   7.461  2.8910  1.8497 -1.5162
   94SAPS  H20S 9292   6.793   6.250   7.439  0.4249 -0.3301  1.2344
   94SAPS  H20T 9293   6.925   6.363   7.406 -1.7611 -0.8148 -1.5170
   94SAPS   C33 9294   5.952   5.441   6.531 -0.2085  0.4817  0.2432
   94SAPS   H3X 9295   5.880   5.358   6.548 -0.5659  0.8272  0.4470
   94SAPS   H3Y 9296   5.897   5.526   6.485 -1.6649 -1.2272 -1.2412
   94SAPS   C34 9297   5.999   5.482   6.674  0.5261  0.3162  0.2587
   94SAPS   H4X 9298   6.084   5.553   6.659 -0.3955  1.4813  0.4506
   94SAPS   H4Y 9299   6.029   5.398   6.740  0.1016  0.3462  0.4945
   94SAPS   C35 9300   5.892   5.557   6.753  0.1599 -0.1243 -0.0495
   94SAPS   H5X 9301   5.795   5.504   6.754  0.3135 -0.3948  0.7111
   94SAPS   H5Y 9302   5.864   5.639   6.684 -2.2896  0.0606  1.1473
   94SAPS   C36 9303   5.924   5.599   6.898 -0.2451  0.0653 -0.5386
   94SAPS   H6X 9304   5.939   5.507   6.959  0.7702 -0.5509 -1.7024
   94SAPS   H6Y 9305   5.836   5.648   6.945 -0.8607 -2.9431  1.6449
   94SAPS   C37 9306   6.048   5.689   6.909  0.0438 -0.0168 -0.5258
   94SAPS   H7X 9307   6.022   5.787   6.865 -1.0510  0.4059  1.0253
   94SAPS   H7Y 9308   6.136   5.653   6.851 -0.0983 -1.7236  0.2695
   94SAPS   C38 9309   6.098   5.695   7.053 -0.0010  0.6244  1.1663
   94SAPS   H8X 9310   6.008   5.709   7.117 -2.2548  0.7890 -1.9328
   94SAPS   H8Y 9311   6.168   5.780   7.063 -1.5227  2.4764 -2.8463
   94SAPS   C39 9312   6.178   5.574   7.095 -0.2896  0.0426 -0.4032
   94SAPS   H9X 9313   6.263   5.555   7.026 -0.4828  0.0602 -0.6434
   94SAPS   H9Y 9314   6.120   5.480   7.092 -1.4257  0.7216  0.1284
   94SAPS  C310 9315   6.239   5.573   7.231  0.8078  0.8633 -0.5787
   94SAPS  H10X 9316   6.242   5.477   7.287  0.5464  2.1339  1.6921
   94SAPS  H10Y 9317   6.175   5.644   7.289  1.6096  1.7940 -0.8226
   94SAPS  C311 9318   6.379   5.633   7.240  0.1219 -0.2065  0.3191
   94SAPS  H11X 9319   6.391   5.726   7.180  0.1313 -0.3545  0.0936
   94SAPS  H11Y 9320   6.444   5.551   7.203 -1.8394 -1.4767 -0.3395
   94SAPS  C312 9321   6.400   5.671   7.392 -0.5362  0.7823 -0.6134
   94SAPS  H12X 9322   6.389   5.577   7.449  1.7798  1.3900  0.9252
   94SAPS  H12Y 9323   6.324   5.742   7.431 -0.1987  0.6930  0.2311
   94SAPS  C313 9324   6.549   5.721   7.423  0.7703 -0.4183  0.0359
   94SAPS  H13X 9325   6.568   5.817   7.371 -0.9923 -0.6638 -1.1002
   94SAPS  H13Y 9326   6.627   5.649   7.389  0.9841 -0.7873  1.2756
   94SAPS  C314 9327   6.561   5.759   7.572 -0.6386 -1.1677  0.1967
   94SAPS  H14X 9328   6.563   5.668   7.635  3.4012 -0.4858  1.1602
   94SAPS  H14Y 9329   6.467   5.807   7.605 -0.4402 -2.1392  2.2552
   94SAPS  C315 9330   6.675   5.862   7.599  0.1109 -0.3866  0.2634
   94SAPS  H15X 9331   6.682   5.862   7.710  0.7712  2.3951  0.2619
   94SAPS  H15Y 9332   6.650   5.965   7.565  1.3825 -0.9481 -2.4922
   94SAPS  C316 9333   6.809   5.832   7.539 -0.2515  0.0636 -0.5233
   94SAPS  H16X 9334   6.822   5.844   7.429 -0.9005  0.6332 -0.5359
   94SAPS  H16Y 9335   6.833   5.724   7.551 -0.5474 -0.3079 -2.9639
   94SAPS  C317 9336   6.916   5.908   7.614 -0.2203 -0.4411  0.1314
   94SAPS  H17X 9337   6.908   5.892   7.724 -1.6822 -1.6692 -0.1390
   94SAPS  H17Y 9338   6.911   6.014   7.583 -0.5546 -0.4597  0.1179
   94SAPS  C318 9339   7.057   5.860   7.566 -0.3241 -0.1714  0.5583
   94SAPS  H18X 9340   7.078   5.751   7.560 -1.2649 -0.2724 -1.5219
   94SAPS  H18Y 9341   7.147   5.900   7.617 -0.0704 -0.1274  0.0773
   94SAPS  H18Z 9342   7.080   5.902   7.466  1.7684 -0.6679  0.8167
   95SAPS     N 9343   3.113   3.801   6.361  0.3563  0.1818  0.5101
   95SAPS   HN1 9344   3.174   3.806   6.277  1.7220  0.5964  1.5179
   95SAPS   HN2 9345   3.173   3.773   6.441  0.4317 -1.8401 -0.2356
   95SAPS   HN3 9346   3.046   3.723   6.343  1.1665  0.0254 -1.9407
   95SAPS   C12 9347   3.053   3.928   6.392  0.2786 -0.3709 -0.2118
   95SAPS  H12A 9348   3.037   3.939   6.499  1.5382 -2.1792  0.1894
   95SAPS   C13 9349   3.138   4.053   6.361  0.0125 -0.8241 -0.0091
   95SAPS  O13A 9350   3.263   4.044   6.334  0.4143  0.4650 -0.1161
   95SAPS  O13B 9351   3.086   4.162   6.376  0.1291 -0.3415  0.3232
   95SAPS   C11 9352   2.911   3.938   6.317 -0.0865  0.5204 -0.0155
   95SAPS  H11A 9353   2.910   3.934   6.206 -0.5522  1.2386 -0.0433
   95SAPS  H11B 9354   2.870   4.038   6.344  0.9715  1.4552 -1.6990
   95SAPS     P 9355   2.791   3.699   6.310  0.0405 -0.2486 -0.2378
   95SAPS   O13 9356   2.710   3.725   6.189 -0.1596 -0.1399  0.1894
   95SAPS   O14 9357   2.916   3.622   6.289 -0.6098 -0.0355 -0.4780
   95SAPS   O12 9358   2.819   3.843   6.375 -0.5830 -0.4000  0.1763
   95SAPS   O11 9359   2.709   3.629   6.434 -0.2940 -0.2398 -0.5462
   95SAPS    C1 9360   2.741   3.673   6.569 -0.3284  0.4375  0.8337
   95SAPS    HA 9361   2.843   3.716   6.577 -0.7051  1.4344  0.2926
   95SAPS    HB 9362   2.668   3.741   6.617 -2.8874 -0.4180 -1.7046
   95SAPS    C2 9363   2.741   3.544   6.659 -1.0635 -0.3683 -0.6534
   95SAPS    HS 9364   2.772   3.573   6.761 -1.7148  0.9830 -0.8257
   95SAPS   O21 9365   2.832   3.450   6.598 -0.0856  0.1110  0.6365
   95SAPS   C21 9366   2.961   3.479   6.600 -1.1547  1.0000 -0.3020
   95SAPS   O22 9367   3.006   3.578   6.651  0.1576  0.5299  0.5209
   95SAPS   C22 9368   3.038   3.364   6.530  0.2775  0.1200  0.4880
   95SAPS   H2R 9369   2.982   3.269   6.538  1.1821 -0.5382 -0.9001
   95SAPS   H2S 9370   3.049   3.388   6.422 -0.0803  0.6156  0.5600
   95SAPS    C3 9371   2.601   3.495   6.676 -0.1333  0.1386 -0.3689
   95SAPS    HX 9372   2.571   3.450   6.579  1.2956  2.1318 -1.7815
   95SAPS    HY 9373   2.530   3.581   6.678 -0.2261  0.0601 -0.2332
   95SAPS   O31 9374   2.584   3.395   6.775 -0.2620 -0.6120  0.6640
   95SAPS   C31 9375   2.526   3.439   6.893  0.5513 -1.0848  0.0456
   95SAPS   O32 9376   2.522   3.559   6.923  0.2244  0.1748 -0.1705
   95SAPS   C32 9377   2.484   3.323   6.981  0.3130  0.7608 -0.1981
   95SAPS   H2X 9378   2.552   3.236   6.968 -1.2936 -0.3600 -1.2680
   95SAPS   H2Y 9379   2.380   3.295   6.952 -0.1945  2.1930  0.2139
   95SAPS   C23 9380   3.185   3.341   6.578 -0.5250 -0.7688  0.2923
   95SAPS   H3R 9381   3.241   3.437   6.571 -0.4623 -1.0063 -3.3964
   95SAPS   H3S 9382   3.228   3.268   6.506 -0.2431 -0.6609  0.3518
   95SAPS   C24 9383   3.197   3.294   6.732 -0.2660  0.1044 -0.1725
   95SAPS   H4R 9384   3.170   3.186   6.738 -0.4094  0.0453 -1.6889
   95SAPS   H4S 9385   3.119   3.351   6.788  0.3927  0.6149  0.2231
   95SAPS   C25 9386   3.341   3.306   6.782 -0.0570 -0.1274 -0.7576
   95SAPS   H5R 9387   3.408   3.229   6.739 -1.0022 -1.4316  0.0715
   95SAPS   C26 9388   3.391   3.386   6.876  0.0684 -0.0161 -0.2168
   95SAPS   H6R 9389   3.500   3.393   6.892  0.0879 -1.1258  0.1897
   95SAPS   C27 9390   3.306   3.488   6.957 -0.0669 -0.2101 -0.1177
   95SAPS   H7R 9391   3.321   3.457   7.062  1.3249 -1.2491 -0.5977
   95SAPS   H7S 9392   3.198   3.491   6.930 -0.4253  0.4283  1.3404
   95SAPS   C28 9393   3.370   3.617   6.918 -0.6674  0.3908  0.1256
   95SAPS   H8R 9394   3.396   3.632   6.813  0.5595  3.0928  0.7758
   95SAPS   C29 9395   3.380   3.722   7.005 -0.8520  0.5755 -0.0779
   95SAPS   H9R 9396   3.424   3.819   6.976 -0.4370  0.7526  1.1469
   95SAPS  C210 9397   3.347   3.711   7.157 -0.6922 -0.6922 -0.1676
   95SAPS  H10R 9398   3.418   3.643   7.209 -0.2784 -0.9065 -1.0028
   95SAPS  H10S 9399   3.242   3.675   7.166 -0.6142 -0.8231  0.2253
   95SAPS  C211 9400   3.333   3.847   7.214  0.5220  0.6420 -0.0212
   95SAPS  H11R 9401   3.270   3.915   7.155 -0.9527  0.3169  1.1587
   95SAPS  C212 9402   3.395   3.894   7.323  0.0071 -0.5894  0.3913
   95SAPS  H12R 9403   3.371   3.994   7.361 -0.3136 -1.6093  2.9691
   95SAPS  C213 9404   3.484   3.815   7.416 -0.2668  0.3967  0.1459
   95SAPS  H13R 9405   3.516   3.711   7.393 -0.5029 -0.0359  1.6919
   95SAPS  H13S 9406   3.432   3.797   7.512 -0.6866 -1.9625 -0.4759
   95SAPS  C214 9407   3.604   3.894   7.441  0.1952  0.1438 -0.0812
   95SAPS  H14R 9408   3.672   3.909   7.356  1.5096  0.1128  0.9376
   95SAPS  C215 9409   3.645   3.958   7.556 -0.4632 -0.0904 -0.5645
   95SAPS  H15R 9410   3.742   4.004   7.535  0.4899 -0.6913  2.2988
   95SAPS  C216 9411   3.581   3.970   7.694  0.3181  0.2527 -0.1305
   95SAPS  H16R 9412   3.493   3.903   7.693 -0.5082  1.2731  1.4383
   95SAPS  H16S 9413   3.556   4.076   7.718  1.9487  0.7897 -0.7346
   95SAPS  C217 9414   3.673   3.907   7.801 -0.4549 -0.2657  0.1644
   95SAPS  H17R 9415   3.779   3.921   7.771 -0.2612  0.3618  1.0910
   95SAPS  H17S 9416   3.657   3.797   7.798  3.7777 -0.9626  0.6689
   95SAPS  C218 9417   3.637   3.967   7.939  0.1041  0.4471 -0.4708
   95SAPS  H18R 9418   3.538   3.927   7.969 -0.8867  1.4366 -2.3326
   95SAPS  H18S 9419   3.618   4.076   7.928  0.3622  0.4734 -0.6739
   95SAPS  C219 9420   3.738   3.924   8.048 -0.2158  0.0606  0.5260
   95SAPS  H19R 9421   3.837   3.972   8.029  0.7772 -1.9266  0.5685
   95SAPS  H19S 9422   3.751   3.814   8.059  1.6939 -0.1356 -2.8015
   95SAPS  C220 9423   3.697   3.974   8.190 -0.2476  0.2952  1.0254
   95SAPS  H20R 9424   3.700   4.084   8.200  1.3440  0.2389  1.3196
   95SAPS  H20S 9425   3.756   3.922   8.268 -0.5958 -2.3152 -0.3895
   95SAPS  H20T 9426   3.588   3.952   8.194  0.0520 -1.4746  0.1361
   95SAPS   C33 9427   2.491   3.357   7.128  0.6972  0.5226  0.1685
   95SAPS   H3X 9428   2.449   3.458   7.142  0.0795 -0.0752  2.8755
   95SAPS   H3Y 9429   2.594   3.369   7.167  0.5079 -0.7620  1.0886
   95SAPS   C34 9430   2.415   3.255   7.217 -0.5264 -0.3440 -0.8970
   95SAPS   H4X 9431   2.481   3.167   7.235 -0.9923 -0.5583 -0.1960
   95SAPS   H4Y 9432   2.322   3.233   7.162 -2.0594  1.7214  0.7622
   95SAPS   C35 9433   2.373   3.320   7.349  0.1188  0.4143 -0.4945
   95SAPS   H5X 9434   2.319   3.416   7.337  0.5006  0.4403 -2.0423
   95SAPS   H5Y 9435   2.462   3.351   7.407 -0.7847  1.7663  0.2185
   95SAPS   C36 9436   2.296   3.230   7.452 -0.0614 -0.2979  0.0219
   95SAPS   H6X 9437   2.327   3.124   7.441  2.7974  0.5647 -0.7243
   95SAPS   H6Y 9438   2.192   3.221   7.415 -0.2499  2.0399 -0.0677
   95SAPS   C37 9439   2.300   3.279   7.595 -0.2458  0.1909 -0.3927
   95SAPS   H7X 9440   2.311   3.389   7.600  0.2760  0.0720  1.4179
   95SAPS   H7Y 9441   2.398   3.254   7.641 -0.7522  0.3420  0.7810
   95SAPS   C38 9442   2.182   3.223   7.677 -0.1209  0.0104 -0.5267
   95SAPS   H8X 9443   2.166   3.122   7.633  0.5698  0.7578 -2.5847
   95SAPS   H8Y 9444   2.091   3.285   7.666  0.2031  1.1013  2.5753
   95SAPS   C39 9445   2.213   3.204   7.824  0.1886 -0.5013  0.3887
   95SAPS   H9X 9446   2.307   3.152   7.853 -1.1037 -2.0957  1.8155
   95SAPS   H9Y 9447   2.133   3.140   7.868 -0.7718  0.9287  0.7295
   95SAPS  C310 9448   2.211   3.332   7.907 -0.2818 -0.1305 -0.2130
   95SAPS  H10X 9449   2.115   3.388   7.893  0.1235  0.2759 -1.4801
   95SAPS  H10Y 9450   2.291   3.397   7.864  1.6947 -1.1665  1.8247
   95SAPS  C311 9451   2.229   3.298   8.053 -0.3191 -0.1453 -0.4108
   95SAPS  H11X 9452   2.294   3.367   8.112 -0.5894 -0.3603  0.1364
   95SAPS  H11Y 9453   2.279   3.200   8.065  2.0129  0.9336 -0.9073
   95SAPS  C312 9454   2.106   3.272   8.135 -0.9406  0.2435  0.7347
   95SAPS  H12X 9455   2.055   3.193   8.077 -0.7560 -0.0544  0.9780
   95SAPS  H12Y 9456   2.040   3.361   8.138 -1.3877  0.0253 -1.7206
   95SAPS  C313 9457   2.138   3.205   8.265  0.3548  0.0019  0.0566
   95SAPS  H13X 9458   2.199   3.277   8.325  1.0990  1.2855 -2.1745
   95SAPS  H13Y 9459   2.197   3.118   8.228  0.1258  1.2453 -3.4389
   95SAPS  C314 9460   2.015   3.168   8.352 -0.6272  0.0385  0.3390
   95SAPS  H14X 9461   1.972   3.073   8.312 -0.8608  0.2729  0.0392
   95SAPS  H14Y 9462   1.946   3.250   8.325  0.4136  1.0145  0.5867
   95SAPS  C315 9463   2.037   3.168   8.505  0.4726 -0.1469 -0.1795
   95SAPS  H15X 9464   2.078   3.270   8.526  1.8063 -0.8598  0.8138
   95SAPS  H15Y 9465   2.109   3.092   8.543  1.4308  0.0371 -1.5779
   95SAPS  C316 9466   1.915   3.160   8.603 -0.0203  0.2621  0.2914
   95SAPS  H16X 9467   1.857   3.067   8.588  0.1536  0.0875  0.6885
   95SAPS  H16Y 9468   1.855   3.244   8.563  0.1871  0.6658  0.8360
   95SAPS  C317 9469   1.955   3.179   8.746 -0.7836 -0.4913  0.0121
   95SAPS  H17X 9470   2.022   3.268   8.748 -0.8295 -0.4718  0.6574
   95SAPS  H17Y 9471   2.024   3.100   8.781  1.9865  1.8108 -0.0942
   95SAPS  C318 9472   1.847   3.204   8.848 -0.3945 -0.3335 -0.3097
   95SAPS  H18X 9473   1.795   3.111   8.880  0.8035 -1.4760 -1.6023
   95SAPS  H18Y 9474   1.767   3.274   8.814 -1.8572 -1.3539  0.9274
   95SAPS  H18Z 9475   1.878   3.261   8.937  0.0080  2.3373 -2.1069
   96SAPS     N 9476   3.301   4.327   6.382  0.6899 -0.2998 -0.3668
   96SAPS   HN1 9477   3.229   4.258   6.353  1.7614 -1.6362  0.0954
   96SAPS   HN2 9478   3.368   4.296   6.456  0.9050  1.0898  0.0364
   96SAPS   HN3 9479   3.251   4.411   6.416 -1.4829 -1.4778 -0.5067
   96SAPS   C12 9480   3.395   4.345   6.259  0.2720  0.2070 -0.6935
   96SAPS  H12A 9481   3.436   4.246   6.245 -0.8266 -0.5282  1.1576
   96SAPS   C13 9482   3.319   4.378   6.125 -0.8754 -0.2585  0.4731
   96SAPS  O13A 9483   3.198   4.385   6.123  0.1904 -0.6645  0.5831
   96SAPS  O13B 9484   3.394   4.357   6.022 -0.1930 -0.6582 -0.1544
   96SAPS   C11 9485   3.492   4.462   6.279 -0.3199 -0.7680  0.6613
   96SAPS  H11A 9486   3.561   4.462   6.192  0.3252 -0.2402  1.1701
   96SAPS  H11B 9487   3.557   4.437   6.365 -0.0672  0.0300  0.7042
   96SAPS     P 9488   3.371   4.659   6.407  0.1972  0.0454 -0.4076
   96SAPS   O13 9489   3.378   4.807   6.413  0.4663  0.6619 -0.1273
   96SAPS   O14 9490   3.234   4.605   6.415 -0.0900  0.1178 -0.1979
   96SAPS   O12 9491   3.446   4.596   6.281 -0.9153  0.6462 -0.8025
   96SAPS   O11 9492   3.456   4.609   6.539 -0.8274 -0.3558  0.1697
   96SAPS    C1 9493   3.597   4.654   6.559  0.0186 -0.0958 -0.4118
   96SAPS    HA 9494   3.661   4.625   6.472  0.2377 -1.4622  0.1877
   96SAPS    HB 9495   3.593   4.763   6.575  0.3714 -0.0807 -0.4237
   96SAPS    C2 9496   3.654   4.590   6.686  0.7727  0.5786 -0.7586
   96SAPS    HS 9497   3.639   4.480   6.693  1.4839  0.6399  2.5581
   96SAPS   O21 9498   3.589   4.653   6.799  0.3372 -0.3158  0.1802
   96SAPS   C21 9499   3.488   4.588   6.859  0.0103  0.0329 -0.2361
   96SAPS   O22 9500   3.430   4.491   6.815  0.1824  0.5434 -0.1333
   96SAPS   C22 9501   3.438   4.675   6.980  0.3661 -0.0358  0.2125
   96SAPS   H2R 9502   3.533   4.702   7.032 -0.0064  0.2402  0.7530
   96SAPS   H2S 9503   3.388   4.768   6.946  2.7056  1.1514 -0.0961
   96SAPS    C3 9504   3.807   4.610   6.708 -0.4583 -0.0977  0.4648
   96SAPS    HX 9505   3.811   4.711   6.755 -0.4560  0.2336 -0.2467
   96SAPS    HY 9506   3.861   4.627   6.613  1.4536 -0.7283  1.4154
   96SAPS   O31 9507   3.851   4.515   6.801  0.3940 -0.5156  0.0543
   96SAPS   C31 9508   3.954   4.443   6.766 -0.2135 -0.2004 -0.3977
   96SAPS   O32 9509   4.028   4.459   6.670 -0.2855 -0.1921  0.0222
   96SAPS   C32 9510   3.976   4.325   6.868 -0.2796 -0.5838  0.2076
   96SAPS   H2X 9511   4.036   4.247   6.819 -0.0974  0.4539 -1.2461
   96SAPS   H2Y 9512   3.876   4.282   6.892 -0.2451 -0.5543  0.4112
   96SAPS   C23 9513   3.344   4.588   7.065  0.7034 -0.3694  0.3567
   96SAPS   H3R 9514   3.379   4.485   7.084  0.0626 -0.3853  1.4617
   96SAPS   H3S 9515   3.244   4.578   7.017  0.2671  3.5053  0.2519
   96SAPS   C24 9516   3.327   4.644   7.206 -0.6918 -0.3048  1.1133
   96SAPS   H4R 9517   3.423   4.690   7.237 -0.5000  0.1996 -0.2136
   96SAPS   H4S 9518   3.306   4.555   7.270 -1.9333 -0.6128  0.2916
   96SAPS   C25 9519   3.215   4.737   7.215 -0.2412 -0.3104  0.1511
   96SAPS   H5R 9520   3.191   4.781   7.117 -0.5960  1.8608  1.1721
   96SAPS   C26 9521   3.146   4.761   7.325  0.3604  0.2365 -0.0328
   96SAPS   H6R 9522   3.061   4.831   7.323  0.4715  0.3589 -0.8109
   96SAPS   C27 9523   3.165   4.703   7.459  0.1700 -0.3292  0.2972
   96SAPS   H7R 9524   3.218   4.779   7.519  2.2499 -0.1750 -1.6554
   96SAPS   H7S 9525   3.240   4.621   7.458  0.3452 -0.1665  0.0030
   96SAPS   C28 9526   3.038   4.654   7.516 -0.2216 -0.6663  0.0700
   96SAPS   H8R 9527   2.954   4.640   7.447  0.9982  0.4909 -1.6964
   96SAPS   C29 9528   3.021   4.637   7.651 -0.2935 -0.4617  0.0515
   96SAPS   H9R 9529   2.919   4.605   7.677 -0.0855 -1.8902 -0.8310
   96SAPS  C210 9530   3.121   4.656   7.771  0.2301  0.3270 -0.1705
   96SAPS  H10R 9531   3.224   4.659   7.730  0.2559  0.3758 -0.1021
   96SAPS  H10S 9532   3.125   4.559   7.827  0.0525  0.4999  0.1437
   96SAPS  C211 9533   3.078   4.766   7.861  0.1065 -0.0442 -0.6207
   96SAPS  H11R 9534   3.087   4.858   7.802  0.5733  0.9360  0.9543
   96SAPS  C212 9535   3.027   4.768   7.989  0.4793 -0.3876 -0.2374
   96SAPS  H12R 9536   3.005   4.862   8.041  1.6112 -0.2844  0.0655
   96SAPS  C213 9537   3.015   4.648   8.077  0.5235  0.5300  0.0307
   96SAPS  H13R 9538   2.965   4.571   8.014  1.9744 -1.4024  1.1812
   96SAPS  H13S 9539   2.940   4.679   8.153 -0.6330  0.8296 -1.2101
   96SAPS  C214 9540   3.144   4.593   8.132  0.0835  0.2083  0.5517
   96SAPS  H14R 9541   3.221   4.585   8.053 -0.7564 -1.2810 -0.1289
   96SAPS  C215 9542   3.171   4.529   8.251 -0.2514  1.2452  0.8437
   96SAPS  H15R 9543   3.277   4.503   8.262 -0.7108 -0.5212  1.0832
   96SAPS  C216 9544   3.078   4.514   8.365 -0.1443 -0.5932  0.5647
   96SAPS  H16R 9545   3.106   4.412   8.398 -2.3617 -0.6408  2.4150
   96SAPS  H16S 9546   2.972   4.522   8.332  0.2326 -0.4271 -0.6549
   96SAPS  C217 9547   3.104   4.601   8.492 -0.5391 -0.0520  0.7354
   96SAPS  H17R 9548   3.079   4.708   8.479 -1.8940 -0.4272  0.2506
   96SAPS  H17S 9549   3.211   4.586   8.520 -0.6808  2.2028  2.6783
   96SAPS  C218 9550   3.021   4.557   8.609 -0.1805  0.3237  0.6157
   96SAPS  H18R 9551   3.022   4.448   8.629 -0.0590  0.1788 -0.1611
   96SAPS  H18S 9552   2.915   4.581   8.583 -0.0107  2.2474  1.5727
   96SAPS  C219 9553   3.047   4.615   8.748 -0.3824  0.1300 -0.5231
   96SAPS  H19R 9554   2.954   4.594   8.805 -0.4339  0.5989 -0.4280
   96SAPS  H19S 9555   3.040   4.726   8.746 -0.9168  0.1108  0.2657
   96SAPS  C220 9556   3.164   4.551   8.818 -0.6700  0.4494  0.1490
   96SAPS  H20R 9557   3.189   4.447   8.786 -0.1766  0.8734 -0.8563
   96SAPS  H20S 9558   3.160   4.555   8.929 -1.7194  0.2229  0.1233
   96SAPS  H20T 9559   3.251   4.615   8.793 -1.3661  0.6576 -1.7980
   96SAPS   C33 9560   4.060   4.367   6.992  0.5831  0.1725 -0.1939
   96SAPS   H3X 9561   4.027   4.463   7.036  2.9134  1.3555 -0.9348
   96SAPS   H3Y 9562   4.164   4.384   6.956  0.7230 -0.4795 -0.1240
   96SAPS   C34 9563   4.053   4.253   7.100 -0.0943  0.0025  0.2901
   96SAPS   H4X 9564   4.102   4.162   7.060 -2.1346 -1.9263  2.0138
   96SAPS   H4Y 9565   3.946   4.227   7.113  0.4591 -0.8638  3.7608
   96SAPS   C35 9566   4.129   4.283   7.234 -0.2951  0.4426 -0.3034
   96SAPS   H5X 9567   4.214   4.349   7.206  0.2987 -0.8291 -1.5423
   96SAPS   H5Y 9568   4.177   4.190   7.271  1.5176  1.0158 -1.1491
   96SAPS   C36 9569   4.044   4.343   7.356  0.3594 -0.2941  0.1306
   96SAPS   H6X 9570   3.962   4.274   7.384 -0.8462  0.5370 -1.3005
   96SAPS   H6Y 9571   3.995   4.432   7.312  0.3515 -0.4590 -0.2025
   96SAPS   C37 9572   4.134   4.378   7.474 -0.0904  0.4767 -0.2435
   96SAPS   H7X 9573   4.221   4.439   7.441  1.9726 -1.3113  1.6987
   96SAPS   H7Y 9574   4.193   4.291   7.509 -0.6826  0.7068  1.3877
   96SAPS   C38 9575   4.059   4.453   7.596 -0.1277 -0.2045 -0.1668
   96SAPS   H8X 9576   4.002   4.540   7.558  0.5418  0.1791 -0.2957
   96SAPS   H8Y 9577   4.139   4.494   7.662 -2.0019  0.9273  1.4695
   96SAPS   C39 9578   3.984   4.354   7.688  0.0825  0.7690 -0.3195
   96SAPS   H9X 9579   4.015   4.248   7.673 -1.7301 -0.4231  3.6669
   96SAPS   H9Y 9580   3.880   4.351   7.648 -0.8016  2.4533  1.7644
   96SAPS  C310 9581   3.982   4.385   7.835  0.1413 -0.8940 -0.3458
   96SAPS  H10X 9582   3.941   4.486   7.857 -0.5683 -1.0075 -1.1316
   96SAPS  H10Y 9583   4.085   4.381   7.876  0.4060  2.2871 -0.5319
   96SAPS  C311 9584   3.916   4.281   7.923 -0.1385 -0.0064 -0.3201
   96SAPS  H11X 9585   3.936   4.183   7.874  1.1320  0.6099 -1.0682
   96SAPS  H11Y 9586   3.808   4.304   7.934 -0.5708 -2.0964  0.1362
   96SAPS  C312 9587   3.976   4.253   8.063  0.2375  0.3660 -0.4297
   96SAPS  H12X 9588   4.072   4.203   8.040  1.4024  2.3576 -0.0235
   96SAPS  H12Y 9589   3.902   4.179   8.100  0.4391 -0.7371 -2.1431
   96SAPS  C313 9590   3.978   4.372   8.157 -0.7984  0.7188  0.9648
   96SAPS  H13X 9591   3.875   4.410   8.173 -0.3181  0.5768  4.8602
   96SAPS  H13Y 9592   4.035   4.461   8.123  1.0196 -0.8180 -0.0674
   96SAPS  C314 9593   4.026   4.319   8.295 -0.3788  0.5453  0.1672
   96SAPS  H14X 9594   4.063   4.405   8.354  0.5199  1.1053 -1.1703
   96SAPS  H14Y 9595   4.115   4.254   8.277  0.7976  2.5325 -1.4678
   96SAPS  C315 9596   3.914   4.249   8.374 -0.0256 -0.0416  0.3279
   96SAPS  H15X 9597   3.903   4.152   8.321 -0.2826  1.2747 -2.1062
   96SAPS  H15Y 9598   3.817   4.304   8.376  1.7505  3.4492 -2.8971
   96SAPS  C316 9599   3.967   4.227   8.516 -0.2367 -0.0192  0.0169
   96SAPS  H16X 9600   3.995   4.325   8.561 -1.5937  0.5073 -0.2445
   96SAPS  H16Y 9601   4.061   4.169   8.509 -0.6293 -0.7834  0.9539
   96SAPS  C317 9602   3.863   4.160   8.604  0.2987 -0.5244  0.2064
   96SAPS  H17X 9603   3.840   4.060   8.561 -0.7763 -0.0323 -0.3733
   96SAPS  H17Y 9604   3.765   4.213   8.605 -0.0702 -1.1329 -1.6310
   96SAPS  C318 9605   3.905   4.137   8.747  0.7009 -0.0575 -0.3506
   96SAPS  H18X 9606   3.943   4.233   8.786  0.7443  0.6479 -2.0909
   96SAPS  H18Y 9607   3.989   4.064   8.753  1.6128  1.0383  0.2193
   96SAPS  H18Z 9608   3.818   4.104   8.808  0.6706  1.0976  0.2229
   97SAPS     N 9609   4.839   3.675   6.338 -0.0905 -0.5741  0.0526
   97SAPS   HN1 9610   4.767   3.735   6.383 -0.4047 -0.1556 -1.0049
   97SAPS   HN2 9611   4.920   3.657   6.401 -0.0549  0.5070  0.3146
   97SAPS   HN3 9612   4.863   3.724   6.250 -2.9177  1.4778  0.3656
   97SAPS   C12 9613   4.785   3.535   6.327 -0.0860 -0.2204 -0.4712
   97SAPS  H12A 9614   4.743   3.510   6.423  3.6822  1.2192  1.6333
   97SAPS   C13 9615   4.666   3.526   6.223  0.6964 -0.8750 -0.5251
   97SAPS  O13A 9616   4.633   3.631   6.169  0.1313 -0.4279  0.1353
   97SAPS  O13B 9617   4.618   3.414   6.186 -0.2718 -0.4554  0.0493
   97SAPS   C11 9618   4.899   3.444   6.288  0.2111 -0.9468  1.3926
   97SAPS  H11A 9619   4.932   3.467   6.185 -0.6781  0.2157  1.3609
   97SAPS  H11B 9620   4.856   3.341   6.283  1.6860 -1.4791 -0.6013
   97SAPS     P 9621   5.098   3.338   6.401 -0.0065  0.0890  0.3787
   97SAPS   O13 9622   5.069   3.228   6.307  0.7372 -0.6833  0.6816
   97SAPS   O14 9623   5.238   3.395   6.391 -0.4496  0.0895  0.4291
   97SAPS   O12 9624   4.998   3.456   6.380  0.2721  0.5364  0.5381
   97SAPS   O11 9625   5.065   3.283   6.552  0.0743  0.6029 -0.2596
   97SAPS    C1 9626   4.934   3.276   6.601  0.1149  0.1345  0.0404
   97SAPS    HA 9627   4.920   3.360   6.672  0.2114  0.9216 -0.8561
   97SAPS    HB 9628   4.858   3.294   6.522 -1.7657 -0.3400  1.6930
   97SAPS    C2 9629   4.903   3.145   6.675  0.2146  0.0511 -0.0480
   97SAPS    HS 9630   4.819   3.160   6.746 -0.8512 -0.8474 -1.0992
   97SAPS   O21 9631   5.017   3.101   6.750 -0.2144  0.0410 -0.6782
   97SAPS   C21 9632   5.028   3.157   6.875 -0.4431  0.5125 -0.9241
   97SAPS   O22 9633   4.950   3.240   6.920  0.2858  0.4980  0.4906
   97SAPS   C22 9634   5.136   3.096   6.959  0.5733  0.2869 -0.5731
   97SAPS   H2R 9635   5.114   2.988   6.941 -0.3880  0.9994 -4.0257
   97SAPS   H2S 9636   5.232   3.126   6.912  0.0847 -0.1729 -1.8910
   97SAPS    C3 9637   4.851   3.036   6.569 -1.4486 -0.4416  0.5317
   97SAPS    HX 9638   4.928   3.017   6.492  2.0306  1.8259  3.2733
   97SAPS    HY 9639   4.758   3.062   6.516 -2.1167 -0.5900  1.6126
   97SAPS   O31 9640   4.840   2.910   6.635 -0.4988  0.4673 -0.0918
   97SAPS   C31 9641   4.731   2.888   6.701 -0.5191 -0.2435 -0.0543
   97SAPS   O32 9642   4.642   2.968   6.725 -0.3302  0.0171 -0.3884
   97SAPS   C32 9643   4.723   2.735   6.739 -0.7496  0.6866  0.2568
   97SAPS   H2X 9644   4.811   2.705   6.799  0.3969  0.1662 -1.6359
   97SAPS   H2Y 9645   4.724   2.680   6.642  0.6725  0.3836  0.4364
   97SAPS   C23 9646   5.136   3.130   7.110  0.5335 -0.4171  0.7608
   97SAPS   H3R 9647   5.126   3.239   7.125 -1.7524 -0.4444 -0.3600
   97SAPS   H3S 9648   5.236   3.114   7.155  1.1224  1.2492  0.0548
   97SAPS   C24 9649   5.042   3.044   7.199 -0.1712 -0.0656 -0.0136
   97SAPS   H4R 9650   5.092   2.945   7.206 -0.2128 -0.0885 -0.0444
   97SAPS   H4S 9651   4.939   3.037   7.157 -0.4136 -0.2265  0.6001
   97SAPS   C25 9652   5.030   3.098   7.337  0.8388 -0.2103  0.0381
   97SAPS   H5R 9653   4.980   3.194   7.353  2.5787  0.8152 -0.6065
   97SAPS   C26 9654   5.055   3.046   7.459 -0.0056  0.3122 -0.6303
   97SAPS   H6R 9655   5.033   3.108   7.546 -2.8097 -0.5394 -0.6888
   97SAPS   C27 9656   5.104   2.900   7.493  0.0069 -0.1614 -0.2474
   97SAPS   H7R 9657   5.104   2.832   7.405 -0.6531 -1.2755  0.5989
   97SAPS   H7S 9658   5.039   2.852   7.570  1.2093 -1.5524 -0.0811
   97SAPS   C28 9659   5.249   2.898   7.546  0.4325  0.2624  0.7922
   97SAPS   H8R 9660   5.314   2.834   7.484  0.8773 -0.0123  1.5353
   97SAPS   C29 9661   5.298   2.950   7.661 -0.1856  0.4149 -0.2823
   97SAPS   H9R 9662   5.403   2.929   7.687 -0.4596 -3.0205 -1.6161
   97SAPS  C210 9663   5.218   3.020   7.767 -0.3919  0.7049 -0.0297
   97SAPS  H10R 9664   5.145   3.097   7.733 -0.6752  0.3474 -0.2369
   97SAPS  H10S 9665   5.289   3.091   7.814  0.0815 -0.5490  1.1635
   97SAPS  C211 9666   5.161   2.929   7.879 -0.3334 -0.1951  0.5059
   97SAPS  H11R 9667   5.088   2.853   7.848  1.9011 -2.5014  0.7225
   97SAPS  C212 9668   5.207   2.925   8.010  0.1102 -0.1459 -0.2740
   97SAPS  H12R 9669   5.159   2.860   8.084 -1.2750  0.4809 -0.6065
   97SAPS  C213 9670   5.322   3.005   8.073  0.6268  0.4614  0.4501
   97SAPS  H13R 9671   5.296   3.113   8.075 -0.0394  0.3195 -0.1906
   97SAPS  H13S 9672   5.412   2.997   8.008 -0.0195  5.8960 -1.3722
   97SAPS  C214 9673   5.363   2.964   8.216  0.4201 -0.3634  0.0484
   97SAPS  H14R 9674   5.402   2.862   8.233  0.1255 -0.4254  0.3340
   97SAPS  C215 9675   5.346   3.032   8.328 -0.3277  0.3658 -0.5919
   97SAPS  H15R 9676   5.389   2.999   8.423  0.4652  1.3506 -0.5956
   97SAPS  C216 9677   5.289   3.169   8.347  0.1014 -0.2760  0.1788
   97SAPS  H16R 9678   5.243   3.213   8.256 -0.6027 -1.0078  0.1716
   97SAPS  H16S 9679   5.368   3.241   8.377 -0.7836  0.1667  1.5181
   97SAPS  C217 9680   5.177   3.166   8.453 -0.2268  0.0263  0.1423
   97SAPS  H17R 9681   5.113   3.088   8.405 -0.0296  0.3142 -0.5782
   97SAPS  H17S 9682   5.119   3.260   8.440 -1.1468 -0.6242 -0.5821
   97SAPS  C218 9683   5.215   3.142   8.598 -0.9020 -0.1969 -0.1429
   97SAPS  H18R 9684   5.256   3.232   8.649 -0.8507 -1.5766  2.3192
   97SAPS  H18S 9685   5.289   3.058   8.598 -1.4239 -0.6582 -0.2387
   97SAPS  C219 9686   5.103   3.089   8.688 -0.0610 -0.3368  0.1509
   97SAPS  H19R 9687   5.029   3.168   8.663 -0.0440 -0.3750 -0.0230
   97SAPS  H19S 9688   5.132   3.100   8.795 -0.9182  2.0169  0.1643
   97SAPS  C220 9689   5.049   2.946   8.672  1.1682 -0.0379  0.3701
   97SAPS  H20R 9690   4.978   2.919   8.753 -0.0314  1.1563 -0.2583
   97SAPS  H20S 9691   5.135   2.879   8.689  2.5205  0.7869 -2.7417
   97SAPS  H20T 9692   4.989   2.928   8.579  0.5138 -0.1724  0.8126
   97SAPS   C33 9693   4.599   2.709   6.831 -0.8179 -0.3062  0.0994
   97SAPS   H3X 9694   4.511   2.737   6.769 -0.9013  0.2482  0.4541
   97SAPS   H3Y 9695   4.607   2.768   6.926  1.1864 -0.1705 -0.1378
   97SAPS   C34 9696   4.596   2.555   6.877 -0.2470 -0.1921 -0.2400
   97SAPS   H4X 9697   4.584   2.500   6.782 -0.2775  1.2447 -1.0870
   97SAPS   H4Y 9698   4.509   2.536   6.943 -0.0425  2.9307  1.0475
   97SAPS   C35 9699   4.731   2.510   6.945 -0.4332 -0.3440  0.5965
   97SAPS   H5X 9700   4.813   2.504   6.870  0.3927  0.7950  1.3827
   97SAPS   H5Y 9701   4.702   2.405   6.967 -1.8663 -0.1335 -0.2012
   97SAPS   C36 9702   4.772   2.599   7.065  0.3900 -0.7501  0.0968
   97SAPS   H6X 9703   4.675   2.627   7.110 -0.5216 -1.6105 -1.2982
   97SAPS   H6Y 9704   4.833   2.690   7.047  0.7853 -1.2773 -1.2990
   97SAPS   C37 9705   4.856   2.514   7.155  0.3094  0.6283 -1.0324
   97SAPS   H7X 9706   4.944   2.474   7.101  0.0064 -3.6415  1.4160
   97SAPS   H7Y 9707   4.790   2.428   7.180  0.3087  0.0551 -2.9436
   97SAPS   C38 9708   4.896   2.587   7.281 -0.1306  0.4490 -0.6832
   97SAPS   H8X 9709   4.805   2.626   7.333  1.7445  1.9214  1.6304
   97SAPS   H8Y 9710   4.959   2.675   7.255  1.7355 -0.6956 -0.1536
   97SAPS   C39 9711   4.978   2.493   7.375  0.0030  0.1405  0.1865
   97SAPS   H9X 9712   5.072   2.458   7.328 -1.5406  0.1694 -3.0731
   97SAPS   H9Y 9713   4.912   2.407   7.399 -0.0508 -0.0041 -0.4827
   97SAPS  C310 9714   4.997   2.558   7.512  0.2306  0.8993 -0.5840
   97SAPS  H10X 9715   4.917   2.625   7.550  2.0401  2.1148  1.2014
   97SAPS  H10Y 9716   5.076   2.635   7.500 -0.0027  1.3075  0.4099
   97SAPS  C311 9717   5.036   2.458   7.620  0.0926  0.0291 -0.4710
   97SAPS  H11X 9718   5.111   2.388   7.579  0.2930  0.5428 -0.9895
   97SAPS  H11Y 9719   4.948   2.397   7.651 -0.2527  1.0317  0.5573
   97SAPS  C312 9720   5.086   2.526   7.748 -0.5981  0.3205 -0.0749
   97SAPS  H12X 9721   5.006   2.594   7.785 -0.7764 -0.5177  1.1093
   97SAPS  H12Y 9722   5.180   2.582   7.732 -0.3408  0.9522  3.3318
   97SAPS  C313 9723   5.121   2.416   7.852  0.1164 -1.1663  0.4622
   97SAPS  H13X 9724   5.152   2.483   7.936  0.0872  0.2662 -0.6509
   97SAPS  H13Y 9725   5.207   2.356   7.815  0.3273 -0.7074  0.2024
   97SAPS  C314 9726   5.013   2.335   7.923  0.1980  0.2807  0.1669
   97SAPS  H14X 9727   4.941   2.302   7.845  1.5298  1.2093 -1.4864
   97SAPS  H14Y 9728   4.954   2.391   7.998  1.7622  1.4823  0.5225
   97SAPS  C315 9729   5.080   2.209   7.983 -0.1004 -0.1091 -0.1422
   97SAPS  H15X 9730   5.143   2.239   8.069 -2.2197 -0.0403  1.4180
   97SAPS  H15Y 9731   5.142   2.157   7.907 -1.6595 -0.1529 -1.4137
   97SAPS  C316 9732   4.975   2.101   8.038 -0.6283 -0.7597 -0.1712
   97SAPS  H16X 9733   4.905   2.074   7.957 -0.0449 -0.0354 -0.9280
   97SAPS  H16Y 9734   4.923   2.142   8.127 -2.9168  0.7306 -2.1497
   97SAPS  C317 9735   5.044   1.965   8.078 -0.0618  0.2741  0.4494
   97SAPS  H17X 9736   5.093   1.917   7.990 -0.3082  0.0458  0.4354
   97SAPS  H17Y 9737   4.962   1.893   8.101 -0.4228  0.0180 -1.4964
   97SAPS  C318 9738   5.133   1.967   8.197 -0.6453 -0.2467 -0.4029
   97SAPS  H18X 9739   5.215   1.893   8.196  0.9923  1.5025 -4.3917
   97SAPS  H18Y 9740   5.075   1.964   8.292  1.6312 -0.1634  1.0105
   97SAPS  H18Z 9741   5.189   2.063   8.200 -1.9520  0.4943  1.8371
   98SAPS     N 9742   2.190   3.137   6.421  0.4227  0.2803 -0.4967
   98SAPS   HN1 9743   2.267   3.078   6.384  1.9477  1.1068  1.2473
   98SAPS   HN2 9744   2.214   3.222   6.476 -0.3100  0.2823 -0.1763
   98SAPS   HN3 9745   2.134   3.082   6.489 -1.2822 -1.3061 -3.1165
   98SAPS   C12 9746   2.105   3.192   6.314  0.5654  0.1627 -0.0895
   98SAPS  H12A 9747   2.041   3.113   6.277  0.0712 -0.0917  1.2728
   98SAPS   C13 9748   2.008   3.296   6.362  0.1494  0.0996  0.2089
   98SAPS  O13A 9749   1.989   3.317   6.487 -0.4045 -0.2239 -0.8749
   98SAPS  O13B 9750   1.910   3.321   6.281 -0.3840 -0.1291 -0.5859
   98SAPS   C11 9751   2.199   3.237   6.199 -0.2794  0.0314 -0.6553
   98SAPS  H11A 9752   2.274   3.309   6.237  0.0788 -0.8617  0.3463
   98SAPS  H11B 9753   2.141   3.293   6.123  0.4057  1.1275 -0.3765
   98SAPS     P 9754   2.411   3.085   6.124 -0.0750 -0.4078  0.0353
   98SAPS   O13 9755   2.417   2.956   6.048 -0.0120 -0.5072 -0.0570
   98SAPS   O14 9756   2.488   3.204   6.076 -0.2717 -0.3261 -0.4257
   98SAPS   O12 9757   2.260   3.119   6.132 -0.1436  0.0342 -0.5375
   98SAPS   O11 9758   2.442   3.067   6.280 -0.6288  0.4657  0.1066
   98SAPS    C1 9759   2.517   2.957   6.315  0.2793 -0.0379  0.1029
   98SAPS    HA 9760   2.471   2.857   6.302 -2.8077  1.3601 -0.0929
   98SAPS    HB 9761   2.612   2.963   6.257 -0.9636  0.1977 -1.9509
   98SAPS    C2 9762   2.546   2.968   6.469 -0.2408 -0.0745 -0.2829
   98SAPS    HS 9763   2.617   2.887   6.495 -0.3275 -0.7204 -1.9815
   98SAPS   O21 9764   2.419   2.932   6.540 -0.0733 -0.1423 -0.1023
   98SAPS   C21 9765   2.430   2.881   6.660 -0.1663 -0.1732  0.3891
   98SAPS   O22 9766   2.530   2.840   6.710  0.6930  0.0353 -0.4993
   98SAPS   C22 9767   2.293   2.890   6.724  0.1868 -0.0478 -0.5831
   98SAPS   H2R 9768   2.220   2.886   6.641 -1.0606  0.0792  0.4902
   98SAPS   H2S 9769   2.274   2.795   6.779  0.5022  0.0077 -0.3744
   98SAPS    C3 9770   2.600   3.109   6.511 -0.3463 -0.9577  0.2979
   98SAPS    HX 9771   2.523   3.185   6.489  0.6962  0.4488  1.4489
   98SAPS    HY 9772   2.685   3.126   6.440 -1.0258  1.5264  0.0640
   98SAPS   O31 9773   2.631   3.114   6.652  0.1321 -0.3601  0.5236
   98SAPS   C31 9774   2.750   3.078   6.679 -0.5205 -1.0597  0.1822
   98SAPS   O32 9775   2.838   3.044   6.598  0.1304  0.0895  0.2250
   98SAPS   C32 9776   2.779   3.075   6.829 -0.4615  0.3137 -0.3565
   98SAPS   H2X 9777   2.826   2.979   6.857 -0.1050  0.1286 -1.5812
   98SAPS   H2Y 9778   2.681   3.078   6.882  1.1573 -1.1117  2.8520
   98SAPS   C23 9779   2.276   3.011   6.821 -0.2486  0.7911 -0.5079
   98SAPS   H3R 9780   2.294   3.111   6.776 -0.2447  0.3464 -1.5010
   98SAPS   H3S 9781   2.353   2.998   6.900 -2.7114 -0.5029  1.7848
   98SAPS   C24 9782   2.135   3.021   6.877 -0.2732 -0.1147  0.6728
   98SAPS   H4R 9783   2.071   3.066   6.799 -1.9810 -0.2941  1.9461
   98SAPS   H4S 9784   2.136   3.103   6.952 -0.3697  1.2380 -0.7916
   98SAPS   C25 9785   2.062   2.909   6.938  0.5243 -0.3141 -0.1610
   98SAPS   H5R 9786   1.989   2.858   6.873 -0.2490 -0.0337  0.4847
   98SAPS   C26 9787   2.072   2.869   7.063 -0.0940  0.0220  0.0803
   98SAPS   H6R 9788   1.999   2.797   7.103  3.7714 -3.5374  1.1636
   98SAPS   C27 9789   2.149   2.925   7.171  0.1539 -0.4859  0.2496
   98SAPS   H7R 9790   2.218   3.002   7.132  0.7917  0.4919  3.1375
   98SAPS   H7S 9791   2.216   2.846   7.213  2.0483  0.9066 -0.1198
   98SAPS   C28 9792   2.070   2.985   7.285 -0.3489 -0.4025 -0.4223
   98SAPS   H8R 9793   2.011   3.074   7.261  1.6799  1.4506  1.2654
   98SAPS   C29 9794   2.059   2.929   7.408  1.0307 -0.2119  0.2375
   98SAPS   H9R 9795   1.994   2.983   7.478 -0.1621 -0.8733 -0.3468
   98SAPS  C210 9796   2.128   2.810   7.472  0.0272  0.8998  0.1283
   98SAPS  H10R 9797   2.159   2.739   7.393  0.0580 -0.4779  1.3435
   98SAPS  H10S 9798   2.056   2.750   7.532  2.8659 -1.3705  1.3515
   98SAPS  C211 9799   2.246   2.859   7.550  0.3692 -0.1615 -0.2613
   98SAPS  H11R 9800   2.310   2.930   7.496 -0.3428  2.4393  2.1688
   98SAPS  C212 9801   2.295   2.834   7.671  0.4975 -0.0936 -0.4220
   98SAPS  H12R 9802   2.390   2.882   7.699  0.8696 -1.0895  0.0678
   98SAPS  C213 9803   2.222   2.753   7.773  0.1262 -0.3921  0.5184
   98SAPS  H13R 9804   2.116   2.735   7.747  0.0868 -2.4595  2.0454
   98SAPS  H13S 9805   2.222   2.810   7.868 -0.6155  0.1256  0.2071
   98SAPS  C214 9806   2.299   2.623   7.799  0.3007  0.3867  0.4438
   98SAPS  H14R 9807   2.307   2.553   7.714  1.7839 -1.5177  2.1090
   98SAPS  C215 9808   2.381   2.587   7.898  0.2855  0.4343 -0.0178
   98SAPS  H15R 9809   2.426   2.487   7.908 -0.3967  0.3282  2.5034
   98SAPS  C216 9810   2.419   2.666   8.024  0.3941  1.0131  0.5021
   98SAPS  H16R 9811   2.399   2.775   8.031 -0.7283  0.8743 -0.3707
   98SAPS  H16S 9812   2.528   2.657   8.041  0.6671 -0.5118 -1.8341
   98SAPS  C217 9813   2.331   2.596   8.134  0.7182  0.5304  0.0054
   98SAPS  H17R 9814   2.369   2.495   8.161 -1.3188 -0.4546 -0.6261
   98SAPS  H17S 9815   2.225   2.585   8.101  0.9546 -1.1532 -0.2426
   98SAPS  C218 9816   2.316   2.677   8.264 -0.5374 -0.2656 -0.3560
   98SAPS  H18R 9817   2.408   2.738   8.278  0.0199 -0.0906 -4.1876
   98SAPS  H18S 9818   2.290   2.615   8.353 -0.8773 -0.1580 -0.3821
   98SAPS  C219 9819   2.196   2.783   8.258  0.2866  0.2990  0.2120
   98SAPS  H19R 9820   2.102   2.736   8.221  0.0234  0.3518  0.7942
   98SAPS  H19S 9821   2.220   2.877   8.205 -0.1566 -0.5719 -1.5566
   98SAPS  C220 9822   2.170   2.815   8.406 -0.3157  0.2231 -0.2449
   98SAPS  H20R 9823   2.157   2.734   8.481  1.3859  0.7396  0.6515
   98SAPS  H20S 9824   2.079   2.878   8.414 -0.8957 -0.2174 -3.0515
   98SAPS  H20T 9825   2.248   2.884   8.446 -1.5125  0.7552  1.2335
   98SAPS   C33 9826   2.869   3.189   6.877  0.1167 -0.4611  0.5375
   98SAPS   H3X 9827   2.841   3.291   6.845 -1.3407 -1.2499 -0.7782
   98SAPS   H3Y 9828   2.971   3.173   6.835  0.5242 -0.3687  1.4782
   98SAPS   C34 9829   2.881   3.185   7.028  0.3783  0.6427 -0.0233
   98SAPS   H4X 9830   2.896   3.081   7.066  3.7909  1.0869 -0.0388
   98SAPS   H4Y 9831   2.794   3.221   7.088 -0.3110  2.1670 -1.9057
   98SAPS   C35 9832   3.003   3.258   7.081 -0.8569 -0.0289  0.5911
   98SAPS   H5X 9833   3.004   3.359   7.035 -1.5910  0.8873  2.5234
   98SAPS   H5Y 9834   3.091   3.208   7.036 -1.3513  0.5924 -1.1293
   98SAPS   C36 9835   3.010   3.263   7.235 -0.1038  0.0745  0.4907
   98SAPS   H6X 9836   3.009   3.156   7.267 -1.0827  0.2460  1.0493
   98SAPS   H6Y 9837   2.914   3.306   7.271 -1.6603 -1.5032 -1.6393
   98SAPS   C37 9838   3.135   3.336   7.284  0.5790  0.0911 -0.1429
   98SAPS   H7X 9839   3.124   3.439   7.244  1.8125  0.6917  1.0287
   98SAPS   H7Y 9840   3.219   3.280   7.240  0.9490  0.1873  0.4369
   98SAPS   C38 9841   3.136   3.343   7.440  0.5968 -0.2318 -0.3984
   98SAPS   H8X 9842   3.124   3.249   7.499 -1.3443  0.9883  1.1909
   98SAPS   H8Y 9843   3.048   3.402   7.471  1.1596 -0.3149  1.4319
   98SAPS   C39 9844   3.260   3.405   7.499 -0.0358 -0.0289 -0.3233
   98SAPS   H9X 9845   3.284   3.499   7.444  0.3830 -1.0271 -1.8650
   98SAPS   H9Y 9846   3.355   3.347   7.491  1.0679  1.5197  1.2272
   98SAPS  C310 9847   3.231   3.429   7.655  0.1303 -0.0944  0.2618
   98SAPS  H10X 9848   3.122   3.444   7.666  0.0062  0.2698 -1.2988
   98SAPS  H10Y 9849   3.280   3.525   7.682 -0.7967  0.6012 -0.4996
   98SAPS  C311 9850   3.288   3.310   7.734  0.3617 -0.4520 -0.7958
   98SAPS  H11X 9851   3.399   3.309   7.730  0.3633 -1.7192 -0.7815
   98SAPS  H11Y 9852   3.256   3.218   7.681 -2.8760 -0.5855  1.2703
   98SAPS  C312 9853   3.250   3.304   7.882 -0.7412 -0.0166 -0.3398
   98SAPS  H12X 9854   3.140   3.290   7.890 -0.9862  1.9622  0.0831
   98SAPS  H12Y 9855   3.280   3.401   7.927 -2.1782  1.3779 -2.2693
   98SAPS  C313 9856   3.305   3.173   7.944  0.0590 -0.8552  0.3594
   98SAPS  H13X 9857   3.415   3.179   7.959 -0.3010  1.1738  2.5621
   98SAPS  H13Y 9858   3.291   3.096   7.865 -1.9609 -0.9748  0.8087
   98SAPS  C314 9859   3.222   3.134   8.075  0.1465  0.0615  0.8847
   98SAPS  H14X 9860   3.282   3.050   8.116 -2.6768 -2.9480 -0.8669
   98SAPS  H14Y 9861   3.122   3.100   8.041 -0.2072 -0.3896  2.3337
   98SAPS  C315 9862   3.218   3.247   8.170 -0.3621  0.3951  0.2511
   98SAPS  H15X 9863   3.117   3.283   8.199 -1.1609 -1.1697 -0.5052
   98SAPS  H15Y 9864   3.274   3.337   8.137  0.0741 -0.3250 -1.0092
   98SAPS  C316 9865   3.286   3.209   8.298  0.7051 -0.1698 -0.2809
   98SAPS  H16X 9866   3.395   3.214   8.278  0.2227  1.2625 -2.7391
   98SAPS  H16Y 9867   3.284   3.101   8.324 -0.9016 -0.0131  0.3066
   98SAPS  C317 9868   3.248   3.302   8.408  0.5608 -0.3960 -0.5242
   98SAPS  H17X 9869   3.145   3.281   8.442  0.8247 -0.4904  0.2148
   98SAPS  H17Y 9870   3.263   3.405   8.367 -0.8886 -0.8366 -2.2133
   98SAPS  C318 9871   3.336   3.305   8.536  0.2416 -0.1482  0.2587
   98SAPS  H18X 9872   3.442   3.326   8.511  0.3188 -0.8224  0.0291
   98SAPS  H18Y 9873   3.346   3.213   8.596  1.5966 -0.3724 -0.2971
   98SAPS  H18Z 9874   3.293   3.382   8.605 -1.3612 -2.6279  2.1007
   99SAPS     N 9875   1.851   0.668   6.343  0.4967  0.3805 -0.5748
   99SAPS   HN1 9876   1.859   0.769   6.365 -3.6249  0.7873 -0.5220
   99SAPS   HN2 9877   1.806   0.609   6.417  1.8461  1.2775  0.9949
   99SAPS   HN3 9878   1.949   0.637   6.327  0.5978 -0.0338  0.7960
   99SAPS   C12 9879   1.780   0.635   6.219  1.0080 -0.6505  0.4690
   99SAPS  H12A 9880   1.707   0.712   6.199 -1.4271 -3.1232 -0.6569
   99SAPS   C13 9881   1.866   0.649   6.096  0.5296 -0.2935 -0.0034
   99SAPS  O13A 9882   1.953   0.739   6.099  0.6078  0.0315 -0.0142
   99SAPS  O13B 9883   1.814   0.628   5.985 -0.2903  0.0913 -0.5030
   99SAPS   C11 9884   1.715   0.496   6.218  0.1649 -0.2533 -0.1098
   99SAPS  H11A 9885   1.791   0.418   6.241  1.4949  0.7086 -1.0958
   99SAPS  H11B 9886   1.681   0.459   6.119  0.8321 -2.6084  0.5076
   99SAPS     P 9887   1.459   0.471   6.291  0.2487 -0.1742 -0.2861
   99SAPS   O13 9888   1.393   0.604   6.290 -0.6377  0.3583 -0.0616
   99SAPS   O14 9889   1.436   0.379   6.181  0.0330 -0.1606 -0.6063
   99SAPS   O12 9890   1.609   0.493   6.311  0.5690 -0.0420 -0.5952
   99SAPS   O11 9891   1.418   0.389   6.421 -0.1036 -0.3117  0.4037
   99SAPS    C1 9892   1.418   0.440   6.553 -0.0011  0.1258  0.3587
   99SAPS    HA 9893   1.492   0.520   6.575 -1.1537  1.1221  0.6504
   99SAPS    HB 9894   1.325   0.488   6.590  0.9288  0.9521  1.6383
   99SAPS    C2 9895   1.472   0.329   6.651  0.0105  0.2796  0.9807
   99SAPS    HS 9896   1.580   0.319   6.624 -0.4043  2.1313 -1.5756
   99SAPS   O21 9897   1.390   0.210   6.628 -0.1130 -0.1814  0.1404
   99SAPS   C21 9898   1.446   0.104   6.576 -0.6668 -0.2823  0.4112
   99SAPS   O22 9899   1.565   0.086   6.544  0.0246  0.3252 -0.0809
   99SAPS   C22 9900   1.341  -0.006   6.553 -0.0488  0.2135 -0.2840
   99SAPS   H2R 9901   1.249   0.000   6.616 -0.1134  0.5168 -0.4074
   99SAPS   H2S 9902   1.295   0.012   6.454 -0.7737 -2.9617 -0.5985
   99SAPS    C3 9903   1.467   0.374   6.798  0.6819 -0.0431  0.7719
   99SAPS    HX 9904   1.359   0.359   6.821  0.4610 -0.8028 -0.6978
   99SAPS    HY 9905   1.483   0.484   6.799 -2.3572  0.5320 -2.1742
   99SAPS   O31 9906   1.542   0.297   6.886  0.0950  0.4104 -0.1564
   99SAPS   C31 9907   1.667   0.351   6.892  0.2996 -0.2883  1.2520
   99SAPS   O32 9908   1.706   0.441   6.824 -0.3928  0.0239 -0.1523
   99SAPS   C32 9909   1.751   0.270   6.990 -0.9566  1.0676  0.1190
   99SAPS   H2X 9910   1.757   0.167   6.949  2.1509  0.1551  2.7123
   99SAPS   H2Y 9911   1.702   0.265   7.090 -0.5022  1.6760  0.3720
   99SAPS   C23 9912   1.399  -0.151   6.564 -0.1744 -0.3716 -0.2476
   99SAPS   H3R 9913   1.464  -0.173   6.476 -0.1670 -1.7843  0.0953
   99SAPS   H3S 9914   1.314  -0.221   6.548 -1.9959  0.9623  3.1161
   99SAPS   C24 9915   1.451  -0.173   6.710  0.2818  0.9962 -0.4656
   99SAPS   H4R 9916   1.529  -0.104   6.748  1.5244 -1.6113  1.8848
   99SAPS   H4S 9917   1.504  -0.270   6.710 -0.8027  0.3826  0.5491
   99SAPS   C25 9918   1.334  -0.183   6.798 -0.1634 -0.2468  0.9122
   99SAPS   H5R 9919   1.280  -0.277   6.780  0.0387 -0.1303 -0.3194
   99SAPS   C26 9920   1.281  -0.099   6.890  0.0307  0.1181 -0.1528
   99SAPS   H6R 9921   1.182  -0.113   6.936 -0.8071  0.0516 -1.9291
   99SAPS   C27 9922   1.349   0.034   6.930  0.1821  0.1162  0.3439
   99SAPS   H7R 9923   1.280   0.118   6.952  1.6032  1.0740  1.2557
   99SAPS   H7S 9924   1.415   0.060   6.845 -1.6613 -0.4839 -1.3011
   99SAPS   C28 9925   1.427   0.013   7.060 -0.1833 -0.6551  0.9060
   99SAPS   H8R 9926   1.521  -0.044   7.059  0.2650  0.0840  0.3654
   99SAPS   C29 9927   1.405   0.055   7.184  0.5544 -0.5343 -0.0973
   99SAPS   H9R 9928   1.479   0.029   7.261  1.7070 -1.7866 -1.6113
   99SAPS  C210 9929   1.278   0.125   7.233  0.3153 -0.2859 -0.7811
   99SAPS  H10R 9930   1.239   0.201   7.161  0.1369 -0.0656 -0.4504
   99SAPS  H10S 9931   1.307   0.186   7.321  0.1241  0.1966 -1.0503
   99SAPS  C211 9932   1.163   0.047   7.287 -0.4929  0.6708 -0.0888
   99SAPS  H11R 9933   1.073   0.058   7.224  0.3644  2.7134 -1.0130
   99SAPS  C212 9934   1.164  -0.025   7.406 -0.9962 -0.1080 -0.2151
   99SAPS  H12R 9935   1.066  -0.070   7.430 -0.1957 -2.9088 -1.9346
   99SAPS  C213 9936   1.275  -0.031   7.512  0.5982 -0.2224  0.9230
   99SAPS  H13R 9937   1.334   0.063   7.513  0.9652 -0.4531  2.3835
   99SAPS  H13S 9938   1.353  -0.104   7.481 -0.8244 -0.0281 -3.5593
   99SAPS  C214 9939   1.225  -0.069   7.646 -0.1218  0.1820 -0.2001
   99SAPS  H14R 9940   1.151  -0.150   7.633 -1.1536  0.9284  0.9487
   99SAPS  C215 9941   1.252  -0.032   7.772 -0.5534 -0.5665  0.6690
   99SAPS  H15R 9942   1.181  -0.071   7.846 -0.2782  1.1104  1.8678
   99SAPS  C216 9943   1.352   0.074   7.812  0.6090  0.6093  0.1834
   99SAPS  H16R 9944   1.404   0.098   7.717 -1.4359 -1.8308 -1.6264
   99SAPS  H16S 9945   1.414   0.030   7.894  0.0307  1.8404  1.3000
   99SAPS  C217 9946   1.291   0.208   7.865  0.9092 -0.1694  0.0154
   99SAPS  H17R 9947   1.201   0.193   7.929  1.0599  0.8593  0.4869
   99SAPS  H17S 9948   1.254   0.260   7.774 -3.7286 -0.3839  1.6114
   99SAPS  C218 9949   1.392   0.285   7.947 -0.1358 -0.2328 -0.2512
   99SAPS  H18R 9950   1.480   0.295   7.879  0.6452  0.9716  0.9129
   99SAPS  H18S 9951   1.422   0.233   8.041  1.1359  1.0727  0.0945
   99SAPS  C219 9952   1.337   0.426   7.987  0.7606 -0.3397  0.2171
   99SAPS  H19R 9953   1.240   0.412   8.039  0.4391 -0.5216 -0.4280
   99SAPS  H19S 9954   1.308   0.489   7.900 -0.5054 -0.9214  0.2022
   99SAPS  C220 9955   1.422   0.507   8.088  0.1059  0.6138 -0.1473
   99SAPS  H20R 9956   1.457   0.428   8.158 -1.0469 -0.3020 -0.6054
   99SAPS  H20S 9957   1.370   0.588   8.144 -0.1475  2.6437 -3.1706
   99SAPS  H20T 9958   1.508   0.549   8.032  0.9189 -1.3559 -0.4142
   99SAPS   C33 9959   1.895   0.328   7.005  0.1895 -0.1116  0.3021
   99SAPS   H3X 9960   1.897   0.438   7.016  0.3158 -0.1509  0.6708
   99SAPS   H3Y 9961   1.948   0.304   6.910  0.2755 -2.2676  0.8788
   99SAPS   C34 9962   1.970   0.252   7.115  0.5044 -0.6687 -0.6186
   99SAPS   H4X 9963   1.982   0.145   7.087 -2.1898 -0.3579 -3.2699
   99SAPS   H4Y 9964   1.901   0.252   7.202  0.6315 -0.0106 -0.5165
   99SAPS   C35 9965   2.107   0.308   7.151 -0.3247  0.2035 -0.3953
   99SAPS   H5X 9966   2.099   0.417   7.165 -0.8870  0.0082  0.8630
   99SAPS   H5Y 9967   2.177   0.301   7.065 -0.1699 -1.7223 -0.1461
   99SAPS   C36 9968   2.171   0.232   7.273 -0.0373 -0.3489  0.0411
   99SAPS   H6X 9969   2.184   0.124   7.251 -2.1163 -0.6015 -0.0148
   99SAPS   H6Y 9970   2.085   0.248   7.342  1.0354 -1.0774  1.5902
   99SAPS   C37 9971   2.296   0.312   7.319 -0.7939  0.4142  0.3256
   99SAPS   H7X 9972   2.267   0.420   7.313 -0.7768  0.3700 -0.6394
   99SAPS   H7Y 9973   2.377   0.289   7.246 -1.2312  0.8604 -0.3082
   99SAPS   C38 9974   2.352   0.284   7.462  0.5561  0.6840 -0.1331
   99SAPS   H8X 9975   2.449   0.338   7.461  1.5982 -1.0875  1.7632
   99SAPS   H8Y 9976   2.360   0.174   7.476  1.8736  0.5416 -1.8356
   99SAPS   C39 9977   2.268   0.351   7.573  0.1169 -0.6045 -0.4231
   99SAPS   H9X 9978   2.203   0.274   7.620 -0.3996 -0.9234 -1.6409
   99SAPS   H9Y 9979   2.206   0.427   7.522  0.0670 -1.0340 -1.0103
   99SAPS  C310 9980   2.355   0.442   7.672 -0.5354 -0.1453 -0.3388
   99SAPS  H10X 9981   2.276   0.504   7.721  0.4961  1.9393 -1.2305
   99SAPS  H10Y 9982   2.422   0.497   7.603 -2.3675 -1.5018 -3.3087
   99SAPS  C311 9983   2.427   0.376   7.789  0.2271 -0.6703 -0.4813
   99SAPS  H11X 9984   2.499   0.299   7.755 -1.2367 -2.8787  1.2952
   99SAPS  H11Y 9985   2.353   0.315   7.845  1.6058 -1.8104  0.1386
   99SAPS  C312 9986   2.510   0.478   7.876 -0.7332  0.0673 -0.4414
   99SAPS  H12X 9987   2.565   0.418   7.951 -1.3573 -1.3165 -1.0709
   99SAPS  H12Y 9988   2.454   0.559   7.928 -2.4146 -1.5385  0.3172
   99SAPS  C313 9989   2.606   0.567   7.794 -0.3008  0.6877 -0.2822
   99SAPS  H13X 9990   2.531   0.616   7.728 -1.3991 -2.4202 -1.4390
   99SAPS  H13Y 9991   2.668   0.513   7.720  0.8608  0.0170  1.1434
   99SAPS  C314 9992   2.677   0.675   7.882  0.3184 -0.1030  0.1671
   99SAPS  H14X 9993   2.602   0.729   7.942  3.3193  3.0364  1.2174
   99SAPS  H14Y 9994   2.725   0.739   7.805  0.5539  0.0174  0.4136
   99SAPS  C315 9995   2.795   0.616   7.971  0.1451 -0.5731  0.1470
   99SAPS  H15X 9996   2.881   0.579   7.911 -0.7419 -1.1966 -0.7579
   99SAPS  H15Y 9997   2.751   0.535   8.032 -3.1849 -0.2053 -1.6225
   99SAPS  C316 9998   2.850   0.721   8.063  0.2211 -0.0622 -0.2367
   99SAPS  H16X 9999   2.887   0.806   8.003 -0.3512 -0.4191 -1.1125
   99SAPS  H16Y10000   2.931   0.679   8.125  0.2030 -2.2568 -1.6234
   99SAPS  C31710001   2.744   0.784   8.158 -0.0721 -0.2424 -0.9974
   99SAPS  H17X10002   2.711   0.706   8.229  0.6462  0.7722  0.4877
   99SAPS  H17Y10003   2.654   0.832   8.114 -0.3260  1.6279  1.4468
   99SAPS  C31810004   2.810   0.881   8.255  1.0141  0.4899  0.4053
   99SAPS  H18X10005   2.737   0.912   8.333 -0.0767 -1.0213 -0.0012
   99SAPS  H18Y10006   2.851   0.972   8.206  1.7653 -0.2677 -0.3814
   99SAPS  H18Z10007   2.887   0.824   8.312 -0.5578 -2.5342 -0.4093
  100SAPS     N10008   4.917   3.102   6.110 -0.0120 -0.8074  0.7826
  100SAPS   HN110009   4.991   3.164   6.147 -0.7814  0.4788  0.2338
  100SAPS   HN210010   4.876   3.156   6.031  0.2087 -1.5057  0.1848
  100SAPS   HN310011   4.839   3.090   6.178 -0.9953 -0.4151 -0.2592
  100SAPS   C1210012   4.979   2.970   6.067  0.1035 -0.0278 -0.0210
  100SAPS  H12A10013   4.919   2.924   5.990  1.5406 -2.5765  0.3263
  100SAPS   C1310014   5.119   2.972   6.004  0.4541  0.1931  0.1757
  100SAPS  O13A10015   5.189   3.078   6.002  0.1571  0.5184 -0.4225
  100SAPS  O13B10016   5.160   2.866   5.937  0.0079 -0.5779  0.0532
  100SAPS   C1110017   4.982   2.886   6.199 -0.0894 -0.4646  1.1326
  100SAPS  H11A10018   5.060   2.931   6.263  0.1099  0.7632  0.0418
  100SAPS  H11B10019   5.018   2.784   6.173  0.3943  0.2290 -1.0151
  100SAPS     P10020   4.770   2.745   6.272  0.0022 -0.1379 -0.0901
  100SAPS   O1310021   4.668   2.777   6.375  0.2920  0.2659  0.2198
  100SAPS   O1410022   4.734   2.713   6.134  0.0837  0.1823  0.6460
  100SAPS   O1210023   4.855   2.877   6.265 -0.1273 -0.4244  0.8379
  100SAPS   O1110024   4.880   2.646   6.322 -0.0407 -0.0089 -0.2547
  100SAPS    C110025   4.968   2.682   6.426 -0.1699 -0.2377  0.1840
  100SAPS    HA10026   5.031   2.772   6.411 -0.3094  0.1478  1.8646
  100SAPS    HB10027   4.913   2.701   6.521  0.6473  2.3523  0.1804
  100SAPS    C210028   5.044   2.554   6.464 -0.4520 -0.0881 -0.1736
  100SAPS    HS10029   5.096   2.511   6.375 -1.1033 -1.4893  0.1129
  100SAPS   O2110030   4.940   2.455   6.495  0.2765  0.0466  0.0899
  100SAPS   C2110031   4.994   2.344   6.528 -0.2875  0.4265  0.2884
  100SAPS   O2210032   5.104   2.308   6.489  0.2630 -0.2174  0.3132
  100SAPS   C2210033   4.900   2.262   6.616 -0.7152  0.0932  0.2049
  100SAPS   H2R10034   4.802   2.310   6.596  0.2414  1.3578 -1.6410
  100SAPS   H2S10035   4.901   2.158   6.579  0.2201  0.0542  0.3255
  100SAPS    C310036   5.150   2.586   6.575  0.4481 -0.1006  0.2789
  100SAPS    HX10037   5.204   2.681   6.555  3.0497 -1.3906  0.9057
  100SAPS    HY10038   5.226   2.505   6.584 -0.7415 -1.2179  0.2913
  100SAPS   O3110039   5.087   2.605   6.699 -0.4519 -0.6328 -0.0915
  100SAPS   C3110040   5.165   2.651   6.796 -0.0770  0.1546  0.6524
  100SAPS   O3210041   5.288   2.670   6.788 -0.2744 -0.1547 -0.1907
  100SAPS   C3210042   5.086   2.664   6.922 -0.3316  0.6566 -0.8283
  100SAPS   H2X10043   5.028   2.570   6.939  2.9995 -1.1133  1.2775
  100SAPS   H2Y10044   5.009   2.743   6.906  1.2812  2.3789 -0.2550
  100SAPS   C2310045   4.947   2.277   6.762  0.2530  0.1743 -0.0376
  100SAPS   H3R10046   4.853   2.261   6.818 -0.7010 -0.9350 -1.9097
  100SAPS   H3S10047   4.981   2.382   6.779  0.6210  0.0208  0.1630
  100SAPS   C2410048   5.045   2.173   6.806  0.0764 -0.3187 -0.1089
  100SAPS   H4R10049   5.121   2.167   6.725 -0.9563 -2.6880 -0.9398
  100SAPS   H4S10050   5.000   2.072   6.816  2.5613 -1.2825  1.6963
  100SAPS   C2510051   5.127   2.217   6.927  0.1587  1.0918 -0.0928
  100SAPS   H5R10052   5.217   2.275   6.902  1.9811 -0.1784  3.2041
  100SAPS   C2610053   5.096   2.212   7.057  0.3034 -0.5613 -0.5993
  100SAPS   H6R10054   5.167   2.239   7.136 -1.4537  1.4740  0.3426
  100SAPS   C2710055   4.974   2.134   7.100 -0.1831 -0.3401 -0.1919
  100SAPS   H7R10056   4.915   2.095   7.014 -0.0149  0.2406 -0.5744
  100SAPS   H7S10057   4.909   2.203   7.158 -0.3388 -1.3882  0.8985
  100SAPS   C2810058   5.011   2.025   7.194 -0.1419  0.2278  0.1463
  100SAPS   H8R10059   5.094   1.961   7.160  1.5394  0.9265  2.8145
  100SAPS   C2910060   4.964   1.995   7.313 -0.5377  0.3776  0.2344
  100SAPS   H9R10061   4.983   1.894   7.352  0.6139  0.2096 -0.7269
  100SAPS  C21010062   4.858   2.067   7.395  0.9504 -0.0270 -0.5623
  100SAPS  H10R10063   4.756   2.029   7.374  1.9610 -1.5267 -2.9251
  100SAPS  H10S10064   4.845   2.175   7.372 -1.9494 -0.3534 -0.7278
  100SAPS  C21110065   4.873   2.051   7.543  0.0479 -0.5552 -0.6711
  100SAPS  H11R10066   4.790   2.051   7.615  2.7923  1.0827  2.6378
  100SAPS  C21210067   4.981   2.060   7.618  0.1049  0.4572  0.0897
  100SAPS  H12R10068   4.974   2.054   7.728  1.0027 -0.1981  0.1203
  100SAPS  C21310069   5.127   2.082   7.581  0.1543 -0.0486 -0.2766
  100SAPS  H13R10070   5.150   2.180   7.629 -1.1888 -0.8578  2.1136
  100SAPS  H13S10071   5.137   2.097   7.471 -0.6470 -0.0943 -0.3577
  100SAPS  C21410072   5.218   1.982   7.655  0.2068  0.5213 -0.1618
  100SAPS  H14R10073   5.218   1.974   7.764  0.9263 -2.8135 -0.3551
  100SAPS  C21510074   5.305   1.895   7.598 -0.1602  0.1138 -0.0173
  100SAPS  H15R10075   5.379   1.837   7.655  1.8213  1.8282 -0.7511
  100SAPS  C21610076   5.329   1.887   7.449  0.1489  0.1066 -0.2655
  100SAPS  H16R10077   5.230   1.881   7.400 -0.2088 -2.8868  0.7288
  100SAPS  H16S10078   5.378   1.793   7.418 -2.0553 -1.0739 -0.2499
  100SAPS  C21710079   5.400   2.006   7.386  0.2103  0.1987  0.6813
  100SAPS  H17R10080   5.510   1.990   7.395  0.1900  0.8128  2.1485
  100SAPS  H17S10081   5.370   2.101   7.436 -0.3402 -0.2451  1.1913
  100SAPS  C21810082   5.381   2.025   7.228 -0.8263 -0.0410  0.0568
  100SAPS  H18R10083   5.437   2.118   7.207  0.9578 -0.6829  1.7559
  100SAPS  H18S10084   5.275   2.049   7.205 -1.0735 -0.0938  1.1000
  100SAPS  C21910085   5.411   1.910   7.131  0.4025  0.1098  0.3008
  100SAPS  H19R10086   5.346   1.820   7.134 -0.2790  0.6392  1.5785
  100SAPS  H19S10087   5.509   1.863   7.152  0.7717  0.2741 -1.0147
  100SAPS  C22010088   5.434   1.968   6.979  0.2309  0.5851 -1.0899
  100SAPS  H20R10089   5.487   2.065   6.991  0.3081  0.4555 -0.3271
  100SAPS  H20S10090   5.335   1.984   6.931  0.2225 -3.7595 -2.7388
  100SAPS  H20T10091   5.487   1.885   6.928  0.7544  0.4020 -0.2649
  100SAPS   C3310092   5.177   2.686   7.042 -0.1142 -0.3904  0.4956
  100SAPS   H3X10093   5.117   2.748   7.111 -1.5687  0.0793 -1.1418
  100SAPS   H3Y10094   5.264   2.745   7.006 -0.6012 -0.7566 -1.3785
  100SAPS   C3410095   5.238   2.558   7.109 -0.0994  0.4590 -0.2214
  100SAPS   H4X10096   5.317   2.513   7.045 -1.9201 -0.1526 -2.1012
  100SAPS   H4Y10097   5.154   2.486   7.121  0.7764 -0.1861  2.5171
  100SAPS   C3510098   5.312   2.589   7.234  0.6327  0.0862 -0.7971
  100SAPS   H5X10099   5.238   2.629   7.306  1.9088  1.1082 -0.0279
  100SAPS   H5Y10100   5.391   2.663   7.208  0.7300  0.1618 -0.2919
  100SAPS   C3610101   5.383   2.465   7.304  0.7570 -0.5217  0.8439
  100SAPS   H6X10102   5.476   2.441   7.249  0.5808 -0.0797  0.3509
  100SAPS   H6Y10103   5.313   2.379   7.304 -0.7802  0.6964 -0.9097
  100SAPS   C3710104   5.422   2.507   7.450  1.0642  0.6874 -0.4029
  100SAPS   H7X10105   5.326   2.523   7.502  0.3373 -0.5168 -1.3395
  100SAPS   H7Y10106   5.491   2.594   7.455  0.5636  1.0277  0.7136
  100SAPS   C3810107   5.504   2.399   7.519 -0.0063 -0.3064  0.2951
  100SAPS   H8X10108   5.611   2.398   7.491 -0.2072  2.3726 -0.6779
  100SAPS   H8Y10109   5.445   2.312   7.483 -1.1554  1.0584 -1.1834
  100SAPS   C3910110   5.489   2.404   7.671  0.1247 -0.8077  0.2418
  100SAPS   H9X10111   5.497   2.296   7.697 -1.4777 -0.5605  1.8251
  100SAPS   H9Y10112   5.384   2.436   7.690 -0.7623 -2.5573 -1.5335
  100SAPS  C31010113   5.592   2.484   7.751  0.2531 -0.2538  0.5239
  100SAPS  H10X10114   5.595   2.584   7.703  1.7646 -1.0654 -1.1460
  100SAPS  H10Y10115   5.686   2.434   7.717 -0.0112  0.1619 -0.8459
  100SAPS  C31110116   5.560   2.492   7.905 -0.4281 -0.0325 -0.4250
  100SAPS  H11X10117   5.461   2.539   7.924  0.4822  0.7233  2.8696
  100SAPS  H11Y10118   5.633   2.563   7.950 -2.7027  1.2715  1.3457
  100SAPS  C31210119   5.562   2.356   7.971  0.2885  0.1063 -0.5616
  100SAPS  H12X10120   5.661   2.310   7.954 -0.1413 -1.8738  2.0150
  100SAPS  H12Y10121   5.493   2.288   7.916 -0.2736  0.8178 -0.7530
  100SAPS  C31310122   5.538   2.361   8.123  0.2746 -0.0846 -0.2459
  100SAPS  H13X10123   5.480   2.451   8.155 -2.3519 -0.8965 -2.4920
  100SAPS  H13Y10124   5.641   2.384   8.157 -0.5523  0.9200  1.7090
  100SAPS  C31410125   5.493   2.228   8.193  0.3228  0.1184  0.0001
  100SAPS  H14X10126   5.556   2.143   8.160 -0.3579 -0.3891 -0.0162
  100SAPS  H14Y10127   5.391   2.203   8.155  1.3302 -1.0254 -1.9803
  100SAPS  C31510128   5.487   2.236   8.342  0.0216 -0.6833 -0.2132
  100SAPS  H15X10129   5.425   2.156   8.388 -0.3795 -0.8722 -1.0723
  100SAPS  H15Y10130   5.450   2.337   8.369  1.5383  0.1733 -1.2294
  100SAPS  C31610131   5.631   2.221   8.408  0.0785  0.2733 -0.2689
  100SAPS  H16X10132   5.715   2.240   8.338  0.4493 -1.1436 -0.2257
  100SAPS  H16Y10133   5.635   2.112   8.431  0.8315  0.2922 -0.2972
  100SAPS  C31710134   5.647   2.302   8.533 -0.2254 -0.5640 -0.4439
  100SAPS  H17X10135   5.615   2.406   8.512  0.8940 -0.2260 -0.5294
  100SAPS  H17Y10136   5.757   2.311   8.549  0.0863 -0.8226 -2.3917
  100SAPS  C31810137   5.571   2.260   8.656  0.6577 -0.9220 -0.2671
  100SAPS  H18X10138   5.465   2.248   8.625  0.7156  0.3950 -1.0175
  100SAPS  H18Y10139   5.571   2.337   8.736  0.6321  2.1577 -3.1299
  100SAPS  H18Z10140   5.602   2.159   8.691  0.6894 -1.0890 -0.7668
  101OSM      N10141   3.565   2.306  10.678 -0.2414 -0.2610  0.8037
  101OSM    C1510142   3.512   2.164  10.670 -0.8910  0.3795 -0.1385
  101OSM   H15A10143   3.405   2.158  10.656 -1.0424  0.2185  1.0468
  101OSM   H15B10144   3.528   2.114  10.764 -0.3117  0.4297 -0.2111
  101OSM   H15C10145   3.555   2.108  10.589 -1.4367 -1.9989  1.1768
  101OSM    C1410146   3.718   2.303  10.685  0.0818 -0.5343 -0.0997
  101OSM   H14A10147   3.759   2.400  10.708 -1.4665 -0.3780  2.2396
  101OSM   H14B10148   3.749   2.270  10.587  1.6601 -0.2228  0.2771
  101OSM   H14C10149   3.749   2.238  10.766 -1.2153  0.3077  1.1041
  101OSM    C1310150   3.526   2.366  10.550 -0.1638 -0.7855  0.6088
  101OSM   H13A10151   3.559   2.306  10.467 -0.7174 -0.4368  0.1391
  101OSM   H13B10152   3.560   2.466  10.525  0.5393 -0.9669  0.8110
  101OSM   H13C10153   3.419   2.362  10.553 -0.2411  0.6199  0.2330
  101OSM    C1210154   3.530   2.377  10.805  0.1049  0.4527 -0.0220
  101OSM   H12A10155   3.585   2.469  10.817 -0.4206  0.7147  0.3801
  101OSM   H12B10156   3.555   2.314  10.888 -2.7268 -0.3873  0.2311
  101OSM    C1110157   3.383   2.420  10.819 -0.6156 -0.1621 -0.0559
  101OSM   H11A10158   3.361   2.454  10.922 -0.4475 -0.5726  0.1205
  101OSM   H11B10159   3.322   2.328  10.806 -1.1421  0.3517 -1.2806
  101OSM      P10160   3.383   2.668  10.753  0.0425 -0.0397 -0.2608
  101OSM    O1310161   3.278   2.733  10.833  0.1537  0.0550  0.5574
  101OSM    O1410162   3.517   2.672  10.814  0.0795 -0.5763 -0.2224
  101OSM    O1110163   3.397   2.738  10.610 -0.0389 -0.2901  0.8816
  101OSM    O1210164   3.345   2.518  10.717 -0.3895  0.2392 -0.9787
  101OSM    C1S10165   3.307   2.683  10.508 -0.5493  0.2571 -0.7613
  101OSM    H1S10166   3.204   2.709  10.540  0.0747 -0.3526  1.8792
  101OSM    H1T10167   3.318   2.575  10.485 -0.9142  0.4996 -2.1079
  101OSM     NF10168   3.233   2.694  10.272  0.4063  0.4744 -0.4488
  101OSM    HNF10169   3.245   2.612  10.217  2.0395 -0.2457  0.9550
  101OSM    C2S10170   3.335   2.735  10.364 -1.1672 -0.8467 -0.0674
  101OSM    H2S10171   3.333   2.845  10.356 -1.2096 -1.0581 -3.7093
  101OSM    C3S10172   3.478   2.685  10.332  0.4752  0.4184 -0.3997
  101OSM    H3S10173   3.467   2.574  10.337 -2.8463  0.6962 -0.1270
  101OSM     O310174   3.574   2.722  10.419 -0.6707 -0.4199 -0.0853
  101OSM    HO310175   3.525   2.760  10.492  1.2710  1.4043  0.3238
  101OSM    C4S10176   3.507   2.727  10.187  0.0730  0.0075 -0.4953
  101OSM    H4S10177   3.467   2.663  10.107  2.9439 -0.1460 -1.8736
  101OSM    C5S10178   3.571   2.839  10.151 -0.4994 -0.8333 -0.2241
  101OSM    H5S10179   3.615   2.902  10.229 -0.8477 -0.3572 -0.4042
  101OSM    C6S10180   3.594   2.863  10.005 -0.1783  0.4615  0.2887
  101OSM    H6S10181   3.702   2.849   9.986 -0.2324 -0.0745  0.3800
  101OSM    H6T10182   3.569   2.964   9.965 -0.3129  0.0719 -0.6423
  101OSM    C7S10183   3.529   2.766   9.902 -0.2594 -0.8491  0.3913
  101OSM    H7S10184   3.418   2.770   9.912 -0.2705 -0.5704  0.1557
  101OSM    H7T10185   3.579   2.669   9.921  0.3905 -0.1735  2.2067
  101OSM    C8S10186   3.550   2.810   9.762 -0.5780  1.3008 -0.1779
  101OSM    H8S10187   3.656   2.789   9.735 -0.6480  1.3676 -0.5147
  101OSM    H8T10188   3.524   2.917   9.747 -1.1239  1.1276 -0.4629
  101OSM    C9S10189   3.484   2.726   9.657  0.2379 -0.0145  1.3954
  101OSM    H9S10190   3.374   2.713   9.668 -0.1917  2.2468  0.1934
  101OSM    H9T10191   3.523   2.622   9.657  4.0574  1.3206  2.1592
  101OSM   C10S10192   3.517   2.782   9.516  0.1866 -0.4199 -0.7465
  101OSM   H10S10193   3.625   2.800   9.502  0.0128  0.1086 -1.4229
  101OSM   H10T10194   3.466   2.880   9.502 -0.3812 -0.6785 -0.5152
  101OSM   C11S10195   3.462   2.699   9.395 -0.4303  0.2569  0.1524
  101OSM   H11S10196   3.351   2.698   9.403 -0.3255  0.4935  1.7963
  101OSM   H11T10197   3.495   2.593   9.399 -1.6267 -0.1112  0.4892
  101OSM   C12S10198   3.502   2.760   9.259 -0.2821  0.1495 -1.2454
  101OSM   H12S10199   3.613   2.756   9.250 -0.2257 -0.2844 -0.4091
  101OSM   H12T10200   3.468   2.865   9.252  0.8397  0.4949 -1.6354
  101OSM   C13S10201   3.441   2.684   9.144  0.4040 -0.1645 -0.0409
  101OSM   H13S10202   3.491   2.722   9.052 -0.2398  1.3660  0.2169
  101OSM   H13T10203   3.336   2.715   9.129  0.8085  0.9828 -0.5715
  101OSM   C14S10204   3.461   2.532   9.156  0.1995  0.1341 -0.0149
  101OSM   H14S10205   3.400   2.487   9.237 -0.4602  1.4640  0.2345
  101OSM   H14T10206   3.569   2.517   9.177  0.1782 -2.6980 -1.6229
  101OSM   C15S10207   3.414   2.454   9.035  0.1768 -0.0865 -0.4506
  101OSM   H15S10208   3.303   2.450   9.032 -0.0345  0.9904  3.3264
  101OSM   H15T10209   3.443   2.347   9.039 -2.1053 -0.7737 -1.6388
  101OSM   C16S10210   3.474   2.512   8.911  0.1479 -0.5237 -0.3609
  101OSM   H16S10211   3.583   2.495   8.904  0.1544 -0.3707 -0.6040
  101OSM   H16T10212   3.458   2.619   8.886 -2.7080 -1.3217 -2.2301
  101OSM   C17S10213   3.412   2.436   8.788 -0.1178 -0.1615 -0.2495
  101OSM   H17S10214   3.301   2.437   8.786 -0.1521 -2.6572 -2.2343
  101OSM   H17T10215   3.443   2.329   8.790  1.3174  0.2157 -1.5827
  101OSM   C18S10216   3.475   2.491   8.662  0.3539  0.2961  0.1553
  101OSM   H18S10217   3.479   2.602   8.662  2.7747  0.2313  0.1160
  101OSM   H18T10218   3.412   2.471   8.573 -2.3376  2.2348  1.5651
  101OSM   H18U10219   3.578   2.451   8.648  0.4325  0.7243 -0.5311
  101OSM    C1F10220   3.113   2.748  10.245 -0.0707 -0.1811 -0.2891
  101OSM     OF10221   3.078   2.846  10.300 -0.4666  0.5201 -0.5148
  101OSM    C2F10222   3.028   2.675  10.146  0.7609  0.6863  0.3861
  101OSM    H2F10223   3.006   2.572  10.181  2.8833 -1.0609 -3.1307
  101OSM    H2G10224   3.076   2.682  10.046  0.3665 -1.4314  0.0363
  101OSM    C3F10225   2.890   2.746  10.137  0.5091  0.0475 -0.1726
  101OSM    H3F10226   2.893   2.855  10.160 -0.3859 -0.1576  0.9138
  101OSM    H3G10227   2.827   2.704  10.218  1.7377 -1.2326  0.1331
  101OSM    C4F10228   2.824   2.711  10.006 -0.3229 -0.4056  0.5859
  101OSM    H4F10229   2.801   2.608   9.973  1.2828 -0.5470 -0.1177
  101OSM    H4G10230   2.897   2.747   9.930 -1.7007 -0.1586 -0.6539
  101OSM    C5F10231   2.703   2.802   9.980 -0.5653  0.2384 -0.5400
  101OSM    H5F10232   2.715   2.910  10.002 -0.3748  0.5129 -1.9517
  101OSM    H5G10233   2.621   2.758  10.040 -0.3362 -1.0363 -1.1321
  101OSM    C6F10234   2.637   2.796   9.842 -0.7604  0.2965  0.4781
  101OSM    H6F10235   2.632   2.688   9.814 -1.6339  0.9690 -2.1343
  101OSM    H6G10236   2.709   2.853   9.779 -1.4262  0.2114 -0.3621
  101OSM    C7F10237   2.500   2.863   9.835 -0.0459  0.0642 -0.4943
  101OSM    H7F10238   2.510   2.968   9.869  2.3987 -0.7422  1.4646
  101OSM    H7G10239   2.421   2.814   9.897  0.5090 -1.4937 -0.9786
  101OSM    C8F10240   2.461   2.859   9.685 -0.0036  0.4765 -0.6145
  101OSM    H8F10241   2.351   2.860   9.671 -0.3724  0.0509  1.9869
  101OSM    H8G10242   2.494   2.758   9.652  0.4145  0.8648 -1.4007
  101OSM    C9F10243   2.535   2.964   9.597 -0.4380  0.5647 -0.1973
  101OSM    H9F10244   2.628   3.002   9.640 -1.8689 -0.2309  3.7855
  101OSM   C10F10245   2.483   3.002   9.480 -1.2101 -0.0155  0.3124
  101OSM   H10F10246   2.532   3.087   9.429 -2.9509  0.9417  0.2044
  101OSM   C11F10247   2.351   2.958   9.419  0.0972  0.2346 -0.4970
  101OSM   H11F10248   2.319   3.043   9.356  1.2428  0.1297 -1.2355
  101OSM   H11G10249   2.268   2.959   9.492 -0.3375  1.0888 -1.0062
  101OSM   C12F10250   2.351   2.824   9.344  0.5027  0.4115 -0.8617
  101OSM   H12F10251   2.248   2.791   9.318  0.6602 -0.4266 -0.4575
  101OSM   H12G10252   2.395   2.745   9.409  0.0619  1.0623  0.2587
  101OSM   C13F10253   2.438   2.830   9.210  0.0812 -0.6271  0.6022
  101OSM   H13F10254   2.534   2.877   9.241 -1.3342  1.2653  2.2529
  101OSM   H13G10255   2.391   2.890   9.129 -0.0608 -1.3467  0.1410
  101OSM   C14F10256   2.478   2.691   9.156 -1.0114 -0.0079 -0.1856
  101OSM   H14F10257   2.390   2.624   9.158 -2.3507  1.7071 -0.9006
  101OSM   H14G10258   2.554   2.657   9.230 -3.2307 -1.2563  1.5716
  101OSM   C15F10259   2.535   2.696   9.014  0.6788 -0.0607  0.0275
  101OSM   H15F10260   2.605   2.612   8.994 -0.1701 -0.7507 -0.0475
  101OSM   H15G10261   2.589   2.792   8.994 -1.0408  0.9452  0.0991
  101OSM   C16F10262   2.425   2.683   8.909  0.0274 -0.2825 -0.4846
  101OSM   H16F10263   2.365   2.776   8.923  0.9714  0.8754 -3.7723
  101OSM   H16G10264   2.350   2.601   8.920 -2.1082  1.5742 -0.6965
  101OSM   C17F10265   2.488   2.690   8.769  0.3215  0.0655 -0.2209
  101OSM   H17F10266   2.473   2.588   8.727 -0.5854  0.3986 -0.7002
  101OSM   H17G10267   2.595   2.721   8.779 -0.1720  1.7292  0.0104
  101OSM   C18F10268   2.435   2.794   8.673 -0.4804 -0.1522 -1.0469
  101OSM   H18F10269   2.490   2.793   8.576  3.1332  0.8270  0.9112
  101OSM   H18G10270   2.437   2.895   8.720 -2.7281  0.1988 -1.6205
  101OSM   H18H10271   2.327   2.770   8.658 -0.8967  1.6829 -1.1392
  102OSM      N10272   2.870   2.761  10.726 -0.3511 -0.0067  0.1691
  102OSM    C1510273   2.990   2.730  10.817  0.0853 -0.0696  0.6302
  102OSM   H15A10274   3.070   2.798  10.792 -1.5917  2.1086  1.0010
  102OSM   H15B10275   3.030   2.631  10.806 -0.8825 -0.2900 -1.0846
  102OSM   H15C10276   2.953   2.744  10.918 -1.8129 -0.7451  0.0484
  102OSM    C1410277   2.833   2.902  10.749  0.4217 -0.0772 -0.4868
  102OSM   H14A10278   2.905   2.965  10.701  0.3603  0.0459 -0.4179
  102OSM   H14B10279   2.828   2.921  10.855  0.5894 -0.8371 -0.3346
  102OSM   H14C10280   2.736   2.920  10.705  0.7887 -1.0044 -1.7107
  102OSM    C1310281   2.911   2.738  10.582 -0.6665 -0.6142 -0.2541
  102OSM   H13A10282   2.981   2.811  10.545 -0.9036 -0.6045 -0.6904
  102OSM   H13B10283   2.825   2.756  10.519  0.0249 -1.1002 -1.3515
  102OSM   H13C10284   2.953   2.640  10.565  0.8104 -0.0981  0.3726
  102OSM    C1210285   2.764   2.669  10.767  0.2994  0.3379 -0.0539
  102OSM   H12A10286   2.798   2.573  10.730 -0.1489  0.7444 -1.5342
  102OSM   H12B10287   2.677   2.696  10.710 -1.3518  0.3788  2.4421
  102OSM    C1110288   2.721   2.663  10.919 -0.6560 -0.5221  0.2355
  102OSM   H11A10289   2.671   2.754  10.957 -0.3613 -0.1818 -0.1955
  102OSM   H11B10290   2.809   2.646  10.984 -1.6021  0.8540  1.9239
  102OSM      P10291   2.672   2.394  10.928 -0.0723  0.2709 -0.0197
  102OSM    O1310292   2.780   2.378  11.029 -0.0218 -0.3336 -0.3317
  102OSM    O1410293   2.554   2.307  10.936 -0.0104  0.6930 -0.4928
  102OSM    O1110294   2.738   2.375  10.788 -0.6852 -0.5504 -0.0297
  102OSM    O1210295   2.630   2.550  10.937 -0.3926  0.0686  0.2771
  102OSM    C1S10296   2.663   2.389  10.667 -0.1429 -0.5570 -0.7433
  102OSM    H1S10297   2.604   2.484  10.671  2.1259  0.8181  1.7440
  102OSM    H1T10298   2.587   2.308  10.660  0.2366 -0.9127 -0.7605
  102OSM     NF10299   2.669   2.406  10.421  0.2213 -0.1048 -0.0219
  102OSM    HNF10300   2.624   2.326  10.381 -0.5167  1.0261 -1.4985
  102OSM    C2S10301   2.750   2.381  10.541 -0.5106 -0.8399  0.0657
  102OSM    H2S10302   2.834   2.453  10.550 -1.1208 -0.0252 -0.6733
  102OSM    C3S10303   2.815   2.234  10.530 -0.1603  0.0863  0.2971
  102OSM    H3S10304   2.737   2.156  10.547 -1.1646  0.6435 -1.5781
  102OSM     O310305   2.894   2.210  10.649  0.6675  0.1706 -0.1537
  102OSM    HO310306   2.868   2.290  10.696  0.5104  0.8914 -1.4610
  102OSM    C4S10307   2.884   2.221  10.402 -0.1053  0.1793  0.5338
  102OSM    H4S10308   2.958   2.301  10.385 -0.4335  0.8236  2.0319
  102OSM    C5S10309   2.860   2.133  10.301 -0.7272  0.3167 -0.8966
  102OSM    H5S10310   2.785   2.058  10.328  2.5707 -2.1916  1.7681
  102OSM    C6S10311   2.939   2.123  10.172 -0.4306  0.7986 -0.0218
  102OSM    H6S10312   2.958   2.016  10.153 -1.2822  0.7598 -0.6646
  102OSM    H6T10313   3.029   2.188  10.178 -0.6513  1.3474 -2.2144
  102OSM    C7S10314   2.846   2.164  10.057  0.1148  0.1386  0.1626
  102OSM    H7S10315   2.755   2.101  10.050  0.7848 -0.8043 -0.2232
  102OSM    H7T10316   2.891   2.140   9.958 -0.1175  1.2321 -0.2089
  102OSM    C8S10317   2.803   2.310  10.037 -0.2190  0.6152 -0.2838
  102OSM    H8S10318   2.895   2.366  10.011 -0.8004  1.7256  0.0151
  102OSM    H8T10319   2.758   2.333  10.136  0.1678  0.2257 -0.0160
  102OSM    C9S10320   2.691   2.315   9.937  0.2981  0.8120 -0.5605
  102OSM    H9S10321   2.662   2.423   9.937  0.6477  0.9195  1.6471
  102OSM    H9T10322   2.601   2.275   9.988  0.7320  2.2293  1.3780
  102OSM   C10S10323   2.712   2.255   9.793 -0.2356 -0.5689 -0.5617
  102OSM   H10S10324   2.611   2.237   9.750 -0.8482 -0.1657  0.6750
  102OSM   H10T10325   2.772   2.162   9.801  0.7822  0.0608 -0.7850
  102OSM   C11S10326   2.785   2.353   9.697  0.4456  0.4484 -0.5616
  102OSM   H11S10327   2.881   2.308   9.663  1.0595  1.5172 -0.2748
  102OSM   H11T10328   2.811   2.450   9.745 -1.2534  1.1122 -0.9570
  102OSM   C12S10329   2.709   2.391   9.563 -0.7063  0.5986 -0.6977
  102OSM   H12S10330   2.758   2.479   9.516 -2.1496  1.6827 -0.1919
  102OSM   H12T10331   2.611   2.426   9.603  0.3611  1.5302  1.1677
  102OSM   C13S10332   2.694   2.281   9.462 -0.0277 -0.6266 -0.0770
  102OSM   H13S10333   2.639   2.196   9.505  0.5804 -0.4717  1.0179
  102OSM   H13T10334   2.793   2.238   9.435  0.9283  1.0747  0.6213
  102OSM   C14S10335   2.622   2.317   9.336  0.2604 -0.2907  0.3692
  102OSM   H14S10336   2.677   2.401   9.288  0.9621 -1.4500 -0.8962
  102OSM   H14T10337   2.517   2.348   9.355 -0.5323 -2.5606 -0.1773
  102OSM   C15S10338   2.608   2.206   9.231  0.3441 -0.8144 -0.0114
  102OSM   H15S10339   2.572   2.109   9.272  2.4840 -1.8682 -0.5121
  102OSM   H15T10340   2.703   2.174   9.182 -0.5315 -0.5536 -1.9109
  102OSM   C16S10341   2.506   2.242   9.123 -0.0662 -0.1933 -0.5605
  102OSM   H16S10342   2.416   2.284   9.173  0.3521  1.9064 -1.5046
  102OSM   H16T10343   2.461   2.155   9.072 -0.0955 -0.0002 -0.8665
  102OSM   C17S10344   2.551   2.352   9.020  0.8271  0.1338  0.5704
  102OSM   H17S10345   2.607   2.429   9.079  1.1657 -1.8272  2.9024
  102OSM   H17T10346   2.460   2.396   8.974 -0.7837 -1.2250  2.3437
  102OSM   C18S10347   2.640   2.300   8.904 -0.0615 -0.0128 -0.4828
  102OSM   H18S10348   2.721   2.233   8.939  0.0575 -0.3636 -1.4242
  102OSM   H18T10349   2.669   2.391   8.846  0.8980  0.1840  0.3005
  102OSM   H18U10350   2.581   2.245   8.828 -1.5705  0.0448  0.6172
  102OSM    C1F10351   2.633   2.525  10.378 -0.1366 -0.0447 -0.1728
  102OSM     OF10352   2.692   2.625  10.407 -0.1810 -0.3928  0.4931
  102OSM    C2F10353   2.512   2.523  10.289  0.1425 -0.3506  0.3325
  102OSM    H2F10354   2.439   2.442  10.313  0.3608 -0.7941 -0.4549
  102OSM    H2G10355   2.551   2.496  10.188  1.4105 -0.8238  0.9375
  102OSM    C3F10356   2.433   2.662  10.284  0.5326  0.2686  0.7145
  102OSM    H3F10357   2.502   2.748  10.273  0.8851 -0.1839 -0.7726
  102OSM    H3G10358   2.390   2.663  10.386  1.0652  1.9198  0.9335
  102OSM    C4F10359   2.324   2.664  10.182 -0.5281  0.7876 -0.4625
  102OSM    H4F10360   2.243   2.599  10.220 -0.0187  0.7769  0.6302
  102OSM    H4G10361   2.361   2.629  10.084  4.0553  3.3700  0.1708
  102OSM    C5F10362   2.277   2.804  10.164 -0.1349  0.3516  0.2496
  102OSM    H5F10363   2.362   2.875  10.149 -0.7625  0.8992 -0.7553
  102OSM    H5G10364   2.230   2.838  10.258 -3.3144 -3.9105  0.3270
  102OSM    C6F10365   2.191   2.817  10.042 -0.3066  0.4707 -0.7714
  102OSM    H6F10366   2.101   2.753  10.052  0.6060 -0.4633  1.7753
  102OSM    H6G10367   2.236   2.759   9.957 -2.0820 -0.1935 -1.2754
  102OSM    C7F10368   2.151   2.957  10.021  0.8800  0.0671 -0.3135
  102OSM    H7F10369   2.238   3.026  10.026 -1.0391  2.5027  0.3706
  102OSM    H7G10370   2.084   2.974  10.108 -2.0542 -0.2068 -2.4809
  102OSM    C8F10371   2.076   2.989   9.887  0.3593  0.0354 -0.5452
  102OSM    H8F10372   2.156   2.992   9.811  1.5601 -0.3121  0.6805
  102OSM    H8G10373   2.036   3.093   9.883  0.5094  0.1765  1.1423
  102OSM    C9F10374   1.962   2.892   9.862  0.4984 -0.6035  0.7208
  102OSM    H9F10375   1.869   2.938   9.899 -0.1061  2.0768 -3.8051
  102OSM   C10F10376   1.956   2.777   9.792  0.3434  0.1703  0.0193
  102OSM   H10F10377   1.860   2.723   9.793  0.3127  0.2413  1.4688
  102OSM   C11F10378   2.067   2.701   9.730 -0.0272 -0.5156  0.3333
  102OSM   H11F10379   2.110   2.632   9.806 -0.6826  0.1852  1.3600
  102OSM   H11G10380   2.154   2.767   9.710  1.4471 -2.5720 -0.1518
  102OSM   C12F10381   2.033   2.620   9.602  1.2943 -0.1705 -0.4924
  102OSM   H12F10382   1.991   2.687   9.524  0.1811  0.9761  1.0624
  102OSM   H12G10383   1.950   2.548   9.615 -0.3099  1.1337 -3.1350
  102OSM   C13F10384   2.152   2.522   9.564 -0.4900  0.8672  0.1670
  102OSM   H13F10385   2.236   2.593   9.548  0.7918 -0.0767  2.4286
  102OSM   H13G10386   2.138   2.471   9.467  0.6541  1.4881 -0.3295
  102OSM   C14F10387   2.184   2.414   9.669  0.5586  0.1863 -0.7413
  102OSM   H14F10388   2.086   2.370   9.694  0.5235  0.2090 -0.8389
  102OSM   H14G10389   2.222   2.462   9.762 -2.6870  1.1937  0.1324
  102OSM   C15F10390   2.297   2.318   9.616  0.1925 -0.4247  0.0246
  102OSM   H15F10391   2.388   2.380   9.599  0.4765 -1.7447 -3.6947
  102OSM   H15G10392   2.279   2.279   9.514  1.3310 -0.2749 -0.2455
  102OSM   C16F10393   2.317   2.206   9.723  0.4450  0.0331  0.3710
  102OSM   H16F10394   2.214   2.184   9.759  0.6532  2.9280  2.9688
  102OSM   H16G10395   2.374   2.244   9.810  0.8651  0.8178 -0.2395
  102OSM   C17F10396   2.375   2.075   9.667 -0.5552  0.5342  0.7428
  102OSM   H17F10397   2.476   2.091   9.624 -1.9199  0.9897 -2.5074
  102OSM   H17G10398   2.322   2.034   9.578  2.1757 -3.5551  0.8431
  102OSM   C18F10399   2.393   1.960   9.770  0.5554  0.1460  0.1660
  102OSM   H18F10400   2.295   1.908   9.777  0.1394  0.6956 -1.3868
  102OSM   H18G10401   2.416   1.999   9.872 -1.3212  0.5935  0.4255
  102OSM   H18H10402   2.466   1.886   9.730  0.1517  0.0777 -0.4457
  103OSM      N10403   5.110   4.598  11.170  0.8219  0.8852 -0.5425
  103OSM    C1510404   5.243   4.549  11.220  0.0629  0.2211  0.3213
  103OSM   H15A10405   5.324   4.603  11.173 -1.1924  0.0512 -2.1227
  103OSM   H15B10406   5.261   4.446  11.192  0.2632 -0.1202  1.6680
  103OSM   H15C10407   5.249   4.551  11.328 -1.5302  1.9072  0.4006
  103OSM    C1410408   5.008   4.495  11.206 -0.5917  0.3625  0.1955
  103OSM   H14A10409   5.014   4.471  11.311 -2.1629 -0.3163  0.1540
  103OSM   H14B10410   5.024   4.404  11.151  1.1262 -0.1894  1.5623
  103OSM   H14C10411   4.908   4.532  11.186 -0.2797  1.7821  1.1587
  103OSM    C1310412   5.074   4.719  11.241 -0.2367 -0.1380  0.2978
  103OSM   H13A10413   4.984   4.756  11.194 -0.3370 -0.4289  0.2630
  103OSM   H13B10414   5.147   4.797  11.228  1.3790 -1.6103  0.3877
  103OSM   H13C10415   5.062   4.699  11.346 -1.0600  1.8886  0.6120
  103OSM    C1210416   5.112   4.617  11.020 -0.4110  0.2787  0.2971
  103OSM   H12A10417   5.182   4.542  10.984 -0.4380  0.4544 -0.1128
  103OSM   H12B10418   5.177   4.700  10.997  0.8165 -1.4610 -2.8156
  103OSM    C1110419   4.973   4.621  10.941 -0.5156 -0.3807 -1.2592
  103OSM   H11A10420   4.928   4.519  10.937 -0.0033 -0.6112 -1.2857
  103OSM   H11B10421   5.008   4.638  10.837 -1.8724  0.1970 -1.6274
  103OSM      P10422   4.883   4.858  10.929  0.0745  0.0874  0.2377
  103OSM    O1310423   4.775   4.943  10.982  0.1524  0.4572 -0.1484
  103OSM    O1410424   5.022   4.904  10.964 -0.1957  0.2001  0.7480
  103OSM    O1110425   4.873   4.845  10.775  0.1467  0.2303  0.5139
  103OSM    O1210426   4.873   4.712  10.989 -0.1756  0.0321  0.3549
  103OSM    C1S10427   4.778   4.760  10.714  0.1137  0.0980  0.0716
  103OSM    H1S10428   4.681   4.778  10.766 -0.4614  0.7741 -1.1891
  103OSM    H1T10429   4.806   4.652  10.712 -1.2595 -0.2611 -2.2303
  103OSM     NF10430   4.637   4.728  10.512  0.1814  0.1851  0.2164
  103OSM    HNF10431   4.649   4.655  10.445  0.4431  3.1318 -3.0587
  103OSM    C2S10432   4.760   4.800  10.564 -0.1600  1.2288 -0.1942
  103OSM    H2S10433   4.738   4.908  10.567  1.3678  1.6023 -1.9702
  103OSM    C3S10434   4.881   4.780  10.478 -0.0118 -0.2197  0.4327
  103OSM    H3S10435   4.911   4.673  10.473  1.5609  0.1565  1.4012
  103OSM     O310436   4.994   4.846  10.526 -0.2564  0.0792  0.5248
  103OSM    HO310437   4.973   4.875  10.615  0.2601 -0.1045  0.7101
  103OSM    C4S10438   4.849   4.830  10.343 -0.2347  0.3165 -0.1114
  103OSM    H4S10439   4.813   4.934  10.337  1.7806  1.0069 -0.5990
  103OSM    C5S10440   4.847   4.757  10.226  0.0889  0.9076  0.3184
  103OSM    H5S10441   4.852   4.648  10.234  3.2496  1.0345  0.8965
  103OSM    C6S10442   4.801   4.804  10.084  0.2074 -0.3857 -0.3940
  103OSM    H6S10443   4.707   4.751  10.059 -0.5511  0.9459 -0.4446
  103OSM    H6T10444   4.867   4.769  10.001  0.7739  0.1635 -0.1849
  103OSM    C7S10445   4.771   4.957  10.057  0.2499  0.5405 -0.0675
  103OSM    H7S10446   4.875   4.992  10.039  1.1564 -2.2467 -0.6431
  103OSM    H7T10447   4.713   5.002  10.140  0.8687  0.7300  0.2589
  103OSM    C8S10448   4.684   4.971   9.927 -0.4091  0.5875 -0.7291
  103OSM    H8S10449   4.661   5.077   9.901 -2.0537  0.3397 -0.3397
  103OSM    H8T10450   4.584   4.927   9.944 -0.3507  1.2671  1.5300
  103OSM    C9S10451   4.756   4.919   9.800  0.2319  0.8427 -0.3330
  103OSM    H9S10452   4.753   4.808   9.804 -0.5760  0.6440 -4.2464
  103OSM    H9T10453   4.867   4.931   9.797  0.4856 -1.5703 -2.9489
  103OSM   C10S10454   4.680   4.959   9.671  0.5230 -0.1282 -0.0047
  103OSM   H10S10455   4.688   5.067   9.650 -1.0997  0.0441  0.1936
  103OSM   H10T10456   4.570   4.944   9.682  0.2213 -0.6435 -3.1082
  103OSM   C11S10457   4.731   4.875   9.557 -0.2624  0.1714 -0.2433
  103OSM   H11S10458   4.718   4.768   9.585  1.1589 -0.3468 -1.5563
  103OSM   H11T10459   4.836   4.894   9.527  0.7713 -2.7145  1.3654
  103OSM   C12S10460   4.647   4.905   9.430  0.6997 -0.1085 -0.2000
  103OSM   H12S10461   4.629   5.013   9.416 -1.0526 -0.2748  0.6372
  103OSM   H12T10462   4.552   4.848   9.434 -0.6715  2.1489  0.2072
  103OSM   C13S10463   4.717   4.859   9.296  1.0409 -0.3040  0.0902
  103OSM   H13S10464   4.806   4.923   9.279  0.1035  1.4445  1.5680
  103OSM   H13T10465   4.640   4.861   9.216  1.2380 -0.3697 -0.1008
  103OSM   C14S10466   4.758   4.709   9.296  0.1383  0.7521 -0.1542
  103OSM   H14S10467   4.660   4.659   9.308 -0.8123  2.8118  0.7818
  103OSM   H14T10468   4.828   4.705   9.382 -1.3248  1.6891  1.0974
  103OSM   C15S10469   4.819   4.673   9.161 -0.1890  0.2613 -0.9034
  103OSM   H15S10470   4.888   4.757   9.138  0.0513  0.4175  0.3302
  103OSM   H15T10471   4.739   4.678   9.084 -1.2224  1.1749  0.2097
  103OSM   C16S10472   4.889   4.534   9.166 -0.0619  0.1874  0.8123
  103OSM   H16S10473   4.822   4.463   9.220 -1.3189  0.4932 -0.3247
  103OSM   H16T10474   4.976   4.553   9.232  0.6338 -0.0503 -0.0353
  103OSM   C17S10475   4.950   4.482   9.032  0.4336  0.1867 -0.1911
  103OSM   H17S10476   5.007   4.570   8.996 -0.5583  0.2393 -1.7004
  103OSM   H17T10477   4.867   4.466   8.960 -1.7961  0.6411  2.2034
  103OSM   C18S10478   5.033   4.359   9.048  0.0345 -0.1631  0.1309
  103OSM   H18S10479   4.986   4.269   9.092 -2.2553  1.1030  0.3832
  103OSM   H18T10480   5.121   4.388   9.110  0.1241 -0.3330  0.0824
  103OSM   H18U10481   5.075   4.344   8.946 -0.6523  0.2071 -0.2109
  103OSM    C1F10482   4.510   4.747  10.547 -0.1628 -0.7648  0.1843
  103OSM     OF10483   4.486   4.833  10.630  0.5571  0.1033 -0.1935
  103OSM    C2F10484   4.413   4.669  10.469  0.2500 -0.2385 -0.1497
  103OSM    H2F10485   4.375   4.579  10.522  0.4933 -0.7326 -0.7986
  103OSM    H2G10486   4.465   4.616  10.386  2.7167 -0.9186  1.7751
  103OSM    C3F10487   4.293   4.756  10.427 -0.2815 -0.0676  0.6604
  103OSM    H3F10488   4.264   4.813  10.517  1.7106 -0.3331  1.4984
  103OSM    H3G10489   4.206   4.695  10.393  0.2138  0.8908 -2.4961
  103OSM    C4F10490   4.340   4.862  10.324  0.7138  0.7313 -0.1997
  103OSM    H4F10491   4.413   4.921  10.383 -2.1719  2.5563  1.6364
  103OSM    H4G10492   4.257   4.929  10.293  1.0692  1.1048 -0.3490
  103OSM    C5F10493   4.413   4.816  10.198 -0.1982  0.2349 -0.4254
  103OSM    H5F10494   4.510   4.777  10.238 -1.4812 -1.7291  0.8426
  103OSM    H5G10495   4.431   4.909  10.140 -0.5229  0.4970 -0.1005
  103OSM    C6F10496   4.342   4.711  10.101 -0.0031  0.6747 -0.3313
  103OSM    H6F10497   4.325   4.619  10.161  0.3748  0.2280 -0.9011
  103OSM    H6G10498   4.417   4.685  10.023  0.8222 -0.6306  0.8738
  103OSM    C7F10499   4.208   4.766  10.042 -0.4354 -0.1538 -1.0709
  103OSM    H7F10500   4.146   4.805  10.125  1.1750  2.7219 -1.1454
  103OSM    H7G10501   4.169   4.687   9.975  0.0677  0.3143 -1.9322
  103OSM    C8F10502   4.229   4.894   9.956  0.0116 -0.8172  0.7211
  103OSM    H8F10503   4.275   4.979  10.011 -0.8560  1.3143 -1.7196
  103OSM    H8G10504   4.128   4.930   9.929  1.0047  2.7518  1.5148
  103OSM    C9F10505   4.311   4.874   9.827 -0.6449  0.6093 -0.5134
  103OSM    H9F10506   4.414   4.912   9.826 -0.1068 -0.8333 -1.1159
  103OSM   C10F10507   4.265   4.836   9.709 -0.4356  0.2836 -0.1664
  103OSM   H10F10508   4.338   4.824   9.627  1.7952  0.4130  1.7590
  103OSM   C11F10509   4.131   4.789   9.681  0.3473 -0.3561 -0.5530
  103OSM   H11F10510   4.079   4.871   9.627  0.7182  1.9570  2.5085
  103OSM   H11G10511   4.082   4.764   9.777 -0.1061 -0.3840 -0.7906
  103OSM   C12F10512   4.118   4.674   9.576  0.4335  0.1756  0.1059
  103OSM   H12F10513   4.009   4.654   9.567  0.4020  1.3775 -2.7690
  103OSM   H12G10514   4.174   4.588   9.617 -0.1308 -0.9464 -1.4395
  103OSM   C13F10515   4.149   4.720   9.433 -1.0149 -0.1697  0.3969
  103OSM   H13F10516   4.098   4.816   9.410  2.4552  1.6448 -0.1492
  103OSM   H13G10517   4.257   4.745   9.417 -0.8776  0.5049  2.2349
  103OSM   C14F10518   4.100   4.617   9.325 -0.3993 -0.2892  0.0498
  103OSM   H14F10519   3.992   4.596   9.337 -1.4729  3.5739 -2.1178
  103OSM   H14G10520   4.156   4.521   9.328  0.0533 -0.0121  0.6909
  103OSM   C15F10521   4.122   4.680   9.191 -0.1958 -0.2330  0.1701
  103OSM   H15F10522   4.228   4.712   9.185  0.5232 -2.7091 -1.2323
  103OSM   H15G10523   4.055   4.766   9.171 -0.0256 -0.2981 -0.7052
  103OSM   C16F10524   4.112   4.576   9.077 -0.3015  0.4220 -0.1627
  103OSM   H16F10525   4.030   4.501   9.081  0.2297 -0.2452 -1.6982
  103OSM   H16G10526   4.194   4.502   9.075  0.1697  0.9367  0.1345
  103OSM   C17F10527   4.098   4.641   8.940 -0.3261  0.3350  0.5056
  103OSM   H17F10528   4.193   4.683   8.898 -2.5940  2.7464 -2.4750
  103OSM   H17G10529   4.022   4.722   8.942 -0.7522 -0.0551  0.2318
  103OSM   C18F10530   4.051   4.536   8.842 -0.5558  0.3190 -0.2709
  103OSM   H18F10531   4.044   4.588   8.744 -0.0166  0.4979 -0.2139
  103OSM   H18G10532   3.951   4.497   8.872  1.2881 -2.0846  3.0867
  103OSM   H18H10533   4.126   4.456   8.824 -1.2648 -0.7071  1.2260
  104OSM      N10534   1.604   4.565  11.195 -0.3370 -0.4401  0.4211
  104OSM    C1510535   1.671   4.460  11.280  0.0378 -0.3840 -0.5337
  104OSM   H15A10536   1.609   4.468  11.368  0.8820  2.4165 -0.1481
  104OSM   H15B10537   1.774   4.484  11.300  1.0747 -4.8044 -0.0385
  104OSM   H15C10538   1.662   4.366  11.228 -2.2868  1.3469 -3.4633
  104OSM    C1410539   1.464   4.522  11.164 -0.3739  0.3392  0.0052
  104OSM   H14A10540   1.413   4.606  11.120  0.4235  0.9959  0.3230
  104OSM   H14B10541   1.412   4.492  11.254 -0.4786  0.5820  0.0289
  104OSM   H14C10542   1.466   4.443  11.090  2.3794 -1.5351  2.0041
  104OSM    C1310543   1.594   4.696  11.267 -0.4665  0.0042 -0.0757
  104OSM   H13A10544   1.687   4.736  11.303  0.8264 -1.6789 -1.4595
  104OSM   H13B10545   1.525   4.690  11.350 -0.0921  1.8181  0.3978
  104OSM   H13C10546   1.558   4.778  11.206  2.1955  0.2908 -1.3277
  104OSM    C1210547   1.691   4.574  11.065 -0.5244  0.2489 -0.2821
  104OSM   H12A10548   1.722   4.477  11.030  1.9336  0.8569  0.1177
  104OSM   H12B10549   1.785   4.624  11.085 -0.9061  1.0578 -0.4771
  104OSM    C1110550   1.627   4.641  10.938 -0.2522 -0.5769 -0.1366
  104OSM   H11A10551   1.700   4.657  10.856 -0.0238  4.0775  0.8549
  104OSM   H11B10552   1.593   4.744  10.962 -0.4382 -1.0119  1.5875
  104OSM      P10553   1.545   4.448  10.791  0.1166 -0.2918 -0.2712
  104OSM    O1310554   1.664   4.376  10.830  0.5788  0.2293 -0.1151
  104OSM    O1410555   1.419   4.371  10.771  0.3509 -0.0368 -0.2728
  104OSM    O1110556   1.571   4.521  10.656 -0.5661  0.1693 -0.4727
  104OSM    O1210557   1.515   4.561  10.897 -0.4615 -0.2965 -0.6771
  104OSM    C1S10558   1.479   4.628  10.616  0.0898  0.2937 -0.3551
  104OSM    H1S10559   1.494   4.725  10.667  0.4945  0.5406 -0.9320
  104OSM    H1T10560   1.375   4.606  10.647 -0.3908  1.2804 -1.1886
  104OSM     NF10561   1.417   4.767  10.412  0.2034 -0.1232 -0.2326
  104OSM    HNF10562   1.324   4.759  10.375 -0.2214  0.8012  0.6231
  104OSM    C2S10563   1.483   4.644  10.460 -0.1782 -1.0590 -0.2447
  104OSM    H2S10564   1.591   4.662  10.441 -0.0547  1.2038  2.1666
  104OSM    C3S10565   1.445   4.507  10.396  0.7075 -0.6173 -0.4571
  104OSM    H3S10566   1.337   4.499  10.421  0.6910  0.4539 -0.1469
  104OSM     O310567   1.505   4.389  10.444  0.0122 -1.1134  1.0915
  104OSM    HO310568   1.538   4.426  10.526  2.3428  0.0623 -0.3332
  104OSM    C4S10569   1.459   4.517  10.250  0.3947  0.1366 -0.2194
  104OSM    H4S10570   1.365   4.533  10.196 -0.4949 -1.3700  0.8551
  104OSM    C5S10571   1.568   4.503  10.175  0.2339  0.1223  0.1307
  104OSM    H5S10572   1.662   4.480  10.227  0.1073 -3.1021 -0.9796
  104OSM    C6S10573   1.583   4.516  10.026  0.4629  0.1321 -0.0096
  104OSM    H6S10574   1.620   4.420   9.984 -1.3730 -0.6693  0.1445
  104OSM    H6T10575   1.653   4.599  10.003  0.1703  0.4301  0.1691
  104OSM    C7S10576   1.454   4.564   9.963 -0.2231  0.2818  0.7942
  104OSM    H7S10577   1.397   4.637  10.024 -0.8635  0.8424 -0.4544
  104OSM    H7T10578   1.382   4.480   9.957 -1.4559  1.3828 -0.2632
  104OSM    C8S10579   1.486   4.612   9.818 -0.8378 -0.2693 -0.2799
  104OSM    H8S10580   1.509   4.528   9.750  1.8150 -0.0372  0.2700
  104OSM    H8T10581   1.574   4.679   9.815  0.1926 -1.5741  0.1655
  104OSM    C9S10582   1.369   4.684   9.751  0.2022  0.0323 -1.0048
  104OSM    H9S10583   1.330   4.750   9.832 -0.9723 -0.8619 -0.8184
  104OSM    H9T10584   1.299   4.603   9.721  2.4377 -2.0652 -0.6936
  104OSM   C10S10585   1.411   4.773   9.634 -0.0093 -0.8295 -0.6257
  104OSM   H10S10586   1.476   4.717   9.563  0.9446 -2.5634  1.5416
  104OSM   H10T10587   1.483   4.849   9.671 -0.8093 -0.2578 -0.2091
  104OSM   C11S10588   1.288   4.839   9.569  0.3572 -0.4368 -0.0452
  104OSM   H11S10589   1.301   4.949   9.565 -0.7075 -0.2582  1.1473
  104OSM   H11T10590   1.207   4.827   9.644 -0.2211 -2.3426 -0.9403
  104OSM   C12S10591   1.243   4.777   9.438  0.6553  0.9722  0.5431
  104OSM   H12S10592   1.224   4.668   9.444 -1.9585  1.3854  0.0896
  104OSM   H12T10593   1.324   4.784   9.362 -1.6048  0.3595 -1.9991
  104OSM   C13S10594   1.117   4.831   9.372  0.8388 -0.6951  0.4157
  104OSM   H13S10595   1.119   4.942   9.372  1.5418 -0.7036  1.4195
  104OSM   H13T10596   1.038   4.800   9.444 -0.4921  1.1915 -0.1704
  104OSM   C14S10597   1.081   4.770   9.238 -0.5216  0.3217  0.2811
  104OSM   H14S10598   1.011   4.684   9.248 -0.5575  0.5842  2.5201
  104OSM   H14T10599   1.173   4.732   9.187 -1.2763 -1.7058  0.3931
  104OSM   C15S10600   1.019   4.883   9.148  0.3983 -0.6190  0.0540
  104OSM   H15S10601   1.091   4.967   9.136  0.2007 -0.4072  0.3286
  104OSM   H15T10602   0.924   4.921   9.192  2.5438  0.2095  4.2630
  104OSM   C16S10603   0.998   4.843   9.001  0.1130  0.4146 -0.3509
  104OSM   H16S10604   1.073   4.776   8.955  1.1735  1.0806  0.3999
  104OSM   H16T10605   1.003   4.932   8.934  1.8184  2.6655  2.6405
  104OSM   C17S10606   0.862   4.760   8.988  0.0011  0.2806 -0.0665
  104OSM   H17S10607   0.778   4.824   9.020  0.9864  0.5529  2.1248
  104OSM   H17T10608   0.872   4.676   9.061  2.0699  0.3497 -0.2396
  104OSM   C18S10609   0.827   4.705   8.851  0.5135 -0.7418  0.8924
  104OSM   H18S10610   0.924   4.671   8.807  2.8988  1.0634  4.5016
  104OSM   H18T10611   0.782   4.783   8.787  2.7947 -0.1498 -0.0627
  104OSM   H18U10612   0.753   4.623   8.859 -0.4638 -0.1913 -1.8479
  104OSM    C1F10613   1.474   4.884  10.430 -0.3100 -0.1495 -0.5415
  104OSM     OF10614   1.576   4.891  10.500  0.0489  0.4570 -0.4477
  104OSM    C2F10615   1.400   4.998  10.377  0.5388 -0.8544  0.3787
  104OSM    H2F10616   1.358   5.061  10.458  2.6713  0.1445  0.7530
  104OSM    H2G10617   1.313   4.961  10.319  0.6637  0.0389 -0.3908
  104OSM    C3F10618   1.495   5.091  10.304  0.2151 -0.0959 -0.5360
  104OSM    H3F10619   1.586   5.113  10.364  0.8917 -2.6368 -0.5854
  104OSM    H3G10620   1.442   5.185  10.279 -1.0295 -0.8778 -0.8433
  104OSM    C4F10621   1.543   5.039  10.166  0.0342 -0.2666 -0.0194
  104OSM    H4F10622   1.468   5.078  10.094  3.8247  0.7870 -3.5819
  104OSM    H4G10623   1.533   4.929  10.156 -0.2575 -0.0830 -2.1174
  104OSM    C5F10624   1.673   5.107  10.122  0.1318 -0.3587  0.0743
  104OSM    H5F10625   1.760   5.054  10.166 -0.5821 -2.1707 -0.6469
  104OSM    H5G10626   1.678   5.216  10.144  0.0282  0.1293 -2.1802
  104OSM    C6F10627   1.697   5.090   9.970 -1.0106 -0.8308  0.0693
  104OSM    H6F10628   1.609   5.144   9.928  0.8455  0.9709 -1.6146
  104OSM    H6G10629   1.688   4.981   9.949 -2.8869 -0.3816 -1.5523
  104OSM    C7F10630   1.828   5.156   9.923  0.9053 -0.1733 -0.5846
  104OSM    H7F10631   1.913   5.118   9.984  1.6190  1.1529 -0.7411
  104OSM    H7G10632   1.826   5.265   9.942 -1.2276  0.4197 -3.8407
  104OSM    C8F10633   1.856   5.126   9.775 -0.5149 -0.1136  0.1737
  104OSM    H8F10634   1.878   5.017   9.767  1.4149  0.2595  0.3276
  104OSM    H8G10635   1.944   5.184   9.740  0.2034 -1.8128 -0.9418
  104OSM    C9F10636   1.743   5.156   9.687  0.2535  0.2591  0.3173
  104OSM    H9F10637   1.666   5.220   9.733 -1.3529  0.4448 -2.4801
  104OSM   C10F10638   1.716   5.105   9.562 -0.5803  0.6763 -0.2408
  104OSM   H10F10639   1.635   5.145   9.499 -0.1565 -0.3730 -1.4645
  104OSM   C11F10640   1.805   5.017   9.478 -0.4151  0.4112 -0.0414
  104OSM   H11F10641   1.896   4.986   9.534 -0.5282 -1.0703 -0.6539
  104OSM   H11G10642   1.837   5.069   9.385  0.4872  0.4437  0.2796
  104OSM   C12F10643   1.740   4.879   9.428  0.2185  0.7932 -0.6567
  104OSM   H12F10644   1.724   4.825   9.524  1.4580 -0.2510 -1.0232
  104OSM   H12G10645   1.821   4.824   9.375  0.6408 -0.3805  1.1544
  104OSM   C13F10646   1.610   4.884   9.353 -0.0465 -0.2067  0.1340
  104OSM   H13F10647   1.522   4.931   9.402  0.0393  0.8285 -0.6802
  104OSM   H13G10648   1.584   4.777   9.343  1.9760 -0.8300  1.1726
  104OSM   C14F10649   1.624   4.959   9.217  0.1515 -0.7199  1.2830
  104OSM   H14F10650   1.702   4.921   9.148  0.5320 -0.0062  1.3145
  104OSM   H14G10651   1.643   5.069   9.226 -3.4165 -0.1245  2.2448
  104OSM   C15F10652   1.492   4.944   9.134  0.3447  0.1974 -0.3445
  104OSM   H15F10653   1.407   5.002   9.177  1.2940  1.4506 -0.1176
  104OSM   H15G10654   1.461   4.837   9.128  1.6953 -0.2158 -0.0869
  104OSM   C16F10655   1.513   5.000   8.995  0.3741 -0.4221 -0.2415
  104OSM   H16F10656   1.606   4.961   8.948 -0.5489 -1.6164 -1.1037
  104OSM   H16G10657   1.538   5.108   9.001  0.6295 -0.4547 -0.7206
  104OSM   C17F10658   1.401   4.990   8.897  0.5881 -0.2000  0.2994
  104OSM   H17F10659   1.312   5.038   8.944  0.0324  0.3779 -1.3019
  104OSM   H17G10660   1.375   4.883   8.887 -1.8495  0.4771 -0.8893
  104OSM   C18F10661   1.420   5.045   8.759 -0.2852 -0.6213  0.1006
  104OSM   H18F10662   1.339   5.016   8.688  0.3856 -3.3155  0.3800
  104OSM   H18G10663   1.513   4.996   8.723 -0.6759 -0.9012 -0.5431
  104OSM   H18H10664   1.433   5.155   8.749  2.4079 -0.9748 -0.6330
  105OSM      N10665   1.274   3.705  11.151 -0.4453  0.0666  0.4480
  105OSM    C1510666   1.223   3.570  11.199 -0.3085 -1.1390  0.4441
  105OSM   H15A10667   1.215   3.569  11.307 -2.8590 -0.4339  0.2986
  105OSM   H15B10668   1.294   3.495  11.168  2.0166  1.5158 -0.8776
  105OSM   H15C10669   1.124   3.558  11.158  0.9588 -0.6892 -2.8808
  105OSM    C1410670   1.206   3.809  11.231 -0.0692  0.1118  0.3422
  105OSM   H14A10671   1.104   3.816  11.197  0.8256  1.1242 -2.2149
  105OSM   H14B10672   1.250   3.907  11.221  1.7930 -0.7030  0.2478
  105OSM   H14C10673   1.198   3.795  11.338  1.2046 -1.8419  0.2229
  105OSM    C1310674   1.423   3.699  11.172  0.1418 -0.6576  0.8570
  105OSM   H13A10675   1.469   3.610  11.131 -1.3759 -1.8315  1.6109
  105OSM   H13B10676   1.442   3.687  11.278  2.9239 -0.0526  0.4562
  105OSM   H13C10677   1.472   3.784  11.128 -3.4074  1.0252  0.0064
  105OSM    C1210678   1.244   3.721  11.003  0.6518 -0.1579 -0.0119
  105OSM   H12A10679   1.138   3.710  10.986  1.1083 -2.3082 -1.6499
  105OSM   H12B10680   1.287   3.640  10.946  2.2038  1.3690 -1.0623
  105OSM    C1110681   1.300   3.845  10.936  0.4738 -0.4108 -0.4626
  105OSM   H11A10682   1.270   3.931  10.999  0.8607  0.4453 -1.4191
  105OSM   H11B10683   1.248   3.853  10.837 -1.5856 -1.5957  0.4919
  105OSM      P10684   1.524   3.967  10.877  0.3467 -0.2387  0.1683
  105OSM    O1310685   1.454   4.087  10.921 -0.2999  0.8156 -0.3898
  105OSM    O1410686   1.656   3.951  10.938  0.2149  0.3823 -0.3193
  105OSM    O1110687   1.518   3.949  10.719  0.3440 -0.1843 -0.0462
  105OSM    O1210688   1.440   3.844  10.921  0.2666  0.5607  0.4902
  105OSM    C1S10689   1.607   4.028  10.639 -0.3398  0.7047 -0.2101
  105OSM    H1S10690   1.709   3.987  10.654 -0.4628  1.2782  2.3747
  105OSM    H1T10691   1.603   4.134  10.671 -0.4568  0.7010 -0.2150
  105OSM     NF10692   1.641   4.125  10.409 -0.6098  0.2954 -0.0620
  105OSM    HNF10693   1.596   4.211  10.388 -1.4026 -0.2806 -0.8081
  105OSM    C2S10694   1.564   4.030  10.486 -0.1933  0.5889 -0.6511
  105OSM    H2S10695   1.572   3.931  10.435 -1.4991  0.7526 -1.1832
  105OSM    C3S10696   1.410   4.056  10.468  0.1324 -0.4976  0.6173
  105OSM    H3S10697   1.397   4.153  10.520  0.7300  0.7488 -1.4917
  105OSM     O310698   1.311   3.980  10.532 -0.2570  0.5583 -0.0327
  105OSM    HO310699   1.357   3.918  10.589 -0.4320  0.3556 -0.1131
  105OSM    C4S10700   1.379   4.069  10.322 -0.1220  0.4322 -0.2398
  105OSM    H4S10701   1.412   3.977  10.273  1.9006  2.1440 -2.2378
  105OSM    C5S10702   1.322   4.167  10.252 -0.4808 -0.1849 -0.2810
  105OSM    H5S10703   1.281   4.250  10.311  0.8075  0.9668 -0.9673
  105OSM    C6S10704   1.284   4.179  10.105 -0.2767  0.3751  0.0037
  105OSM    H6S10705   1.348   4.247  10.045  0.3648 -0.4514 -0.2558
  105OSM    H6T10706   1.182   4.223  10.099 -1.3102 -2.0566 -0.9853
  105OSM    C7S10707   1.294   4.041  10.034 -0.0495 -0.4222  0.4383
  105OSM    H7S10708   1.241   3.961  10.090  0.1227 -1.7223 -1.1897
  105OSM    H7T10709   1.402   4.015  10.028 -0.2728 -1.0750 -0.9591
  105OSM    C8S10710   1.224   4.042   9.896  0.8036 -1.1222 -0.2291
  105OSM    H8S10711   1.278   4.117   9.834  1.7316 -0.3183  1.5394
  105OSM    H8T10712   1.118   4.073   9.904  0.5726 -1.1120 -2.8612
  105OSM    C9S10713   1.230   3.913   9.803 -0.1030 -0.1283 -0.0951
  105OSM    H9S10714   1.235   3.947   9.697 -0.6540 -2.8025 -1.0035
  105OSM    H9T10715   1.138   3.853   9.817 -0.6757  0.6281 -0.5791
  105OSM   C10S10716   1.352   3.823   9.827 -0.0290 -0.6075  0.0818
  105OSM   H10S10717   1.326   3.780   9.926  0.3208  0.2062  0.5292
  105OSM   H10T10718   1.439   3.891   9.840 -1.2102  0.9101  0.1832
  105OSM   C11S10719   1.375   3.719   9.715  0.3170  0.2011  0.6888
  105OSM   H11S10720   1.276   3.676   9.688  1.5607 -0.5810 -2.9343
  105OSM   H11T10721   1.442   3.639   9.755  1.1304  0.6769  0.2896
  105OSM   C12S10722   1.428   3.788   9.588  0.4073 -0.0346 -0.3744
  105OSM   H12S10723   1.524   3.837   9.616  0.8213 -0.7525 -0.5078
  105OSM   H12T10724   1.352   3.861   9.554  0.1646 -0.4359 -0.6895
  105OSM   C13S10725   1.450   3.688   9.474  0.3386 -0.3727 -0.0762
  105OSM   H13S10726   1.354   3.634   9.457  0.1465 -0.2124  0.4895
  105OSM   H13T10727   1.518   3.616   9.524  0.0924 -1.0788 -0.7442
  105OSM   C14S10728   1.510   3.744   9.340 -0.1306  0.1980 -0.1998
  105OSM   H14S10729   1.504   3.669   9.258 -0.9790  0.6780 -0.5867
  105OSM   H14T10730   1.615   3.776   9.353  0.6876 -2.0528 -1.1150
  105OSM   C15S10731   1.432   3.868   9.288 -0.1361 -0.3212  0.3700
  105OSM   H15S10732   1.486   3.902   9.197 -1.2422  0.1943 -0.1018
  105OSM   H15T10733   1.441   3.946   9.366  3.0055 -0.6280  0.3678
  105OSM   C16S10734   1.288   3.824   9.274  0.3701  0.0367 -0.9287
  105OSM   H16S10735   1.238   3.803   9.371  0.4183  0.2881 -0.8498
  105OSM   H16T10736   1.287   3.729   9.216  2.4889 -0.4241 -0.2395
  105OSM   C17S10737   1.209   3.945   9.214 -0.3615 -0.2249  0.2093
  105OSM   H17S10738   1.227   4.042   9.265 -1.6357  1.0551 -1.7140
  105OSM   H17T10739   1.104   3.919   9.236  0.0971 -3.0581 -0.8276
  105OSM   C18S10740   1.231   3.958   9.068  0.5617 -0.4318 -0.4549
  105OSM   H18S10741   1.144   3.998   9.012 -0.9618 -1.4736  1.1266
  105OSM   H18T10742   1.240   3.856   9.023  1.5819 -0.0804 -1.0806
  105OSM   H18U10743   1.323   4.017   9.049  0.7201 -0.7425 -0.6644
  105OSM    C1F10744   1.766   4.104  10.398  0.4343  1.3124 -0.6337
  105OSM     OF10745   1.818   3.996  10.430  0.4104 -0.0777 -0.1829
  105OSM    C2F10746   1.842   4.218  10.348  0.2937  0.2259  0.3707
  105OSM    H2F10747   1.922   4.248  10.419 -0.3783  0.4635  1.0267
  105OSM    H2G10748   1.775   4.306  10.344 -2.0278 -1.5563 -1.3680
  105OSM    C3F10749   1.900   4.175  10.219  0.2684  0.2541  0.0941
  105OSM    H3F10750   1.964   4.084  10.226  0.3786  0.3650  0.5288
  105OSM    H3G10751   1.973   4.256  10.198 -0.0045  1.0592  2.1803
  105OSM    C4F10752   1.796   4.161  10.105  0.0335 -0.4572  0.4254
  105OSM    H4F10753   1.740   4.257  10.097 -0.2117 -0.7172 -1.1651
  105OSM    H4G10754   1.731   4.074  10.130  1.6094 -1.0861  2.4199
  105OSM    C5F10755   1.853   4.148   9.961 -0.1814 -0.7101 -0.0498
  105OSM    H5F10756   1.900   4.048   9.945 -1.8495 -1.7643  1.4254
  105OSM    H5G10757   1.926   4.228   9.938 -1.2242 -0.2354 -1.7586
  105OSM    C6F10758   1.738   4.169   9.853 -0.1606  0.0234  0.7180
  105OSM    H6F10759   1.657   4.231   9.898  0.3854  0.0305  1.7207
  105OSM    H6G10760   1.685   4.072   9.837 -0.3160  0.2101  0.0989
  105OSM    C7F10761   1.783   4.223   9.718  0.4482  0.4602 -0.3597
  105OSM    H7F10762   1.853   4.153   9.668 -0.0230 -0.2396 -0.0398
  105OSM    H7G10763   1.839   4.316   9.744 -1.2861  1.0588  1.2995
  105OSM    C8F10764   1.658   4.266   9.631 -0.1788 -0.6341 -0.5778
  105OSM    H8F10765   1.694   4.321   9.541 -0.2372  2.2809  1.1369
  105OSM    H8G10766   1.611   4.345   9.693 -2.5300 -2.5820  0.1654
  105OSM    C9F10767   1.555   4.162   9.590 -0.7345  0.4093  0.2038
  105OSM    H9F10768   1.580   4.055   9.598  1.9354  1.0634  0.9514
  105OSM   C10F10769   1.430   4.192   9.550 -0.2695  0.4575  0.6737
  105OSM   H10F10770   1.358   4.112   9.526 -0.5357  0.9111 -0.0641
  105OSM   C11F10771   1.375   4.336   9.536  0.5427  0.1892 -0.3643
  105OSM   H11F10772   1.458   4.410   9.537  1.1373 -0.4139 -2.3093
  105OSM   H11G10773   1.302   4.366   9.614 -0.3403  1.0212 -1.4865
  105OSM   C12F10774   1.301   4.349   9.394 -0.0450 -0.1823  0.3852
  105OSM   H12F10775   1.251   4.449   9.396  0.8425  0.2577  1.0132
  105OSM   H12G10776   1.225   4.269   9.382 -1.1176  0.9096 -0.2970
  105OSM   C13F10777   1.411   4.348   9.275  0.0677  0.0163 -0.8341
  105OSM   H13F10778   1.460   4.249   9.277 -0.9412 -0.4903 -1.2778
  105OSM   H13G10779   1.484   4.432   9.266  1.5449 -1.0156  1.0557
  105OSM   C14F10780   1.340   4.343   9.143  1.0157 -0.0385 -0.2317
  105OSM   H14F10781   1.260   4.266   9.135  1.9861 -1.0940 -0.0493
  105OSM   H14G10782   1.421   4.322   9.069  0.2544  0.9429 -1.3530
  105OSM   C15F10783   1.281   4.476   9.093 -0.2736  0.0845  0.0095
  105OSM   H15F10784   1.345   4.566   9.110  1.0501 -1.0734  1.2199
  105OSM   H15G10785   1.193   4.508   9.153  2.1613  1.7583  2.8299
  105OSM   C16F10786   1.254   4.464   8.933  0.9368  0.3944  0.5391
  105OSM   H16F10787   1.349   4.442   8.880 -0.7920 -2.1455 -1.6305
  105OSM   H16G10788   1.213   4.562   8.902  0.1926  0.0544  0.4417
  105OSM   C17F10789   1.158   4.355   8.885 -0.3707 -0.4729 -0.0885
  105OSM   H17F10790   1.210   4.258   8.900 -1.0408 -0.8517 -0.2154
  105OSM   H17G10791   1.147   4.372   8.776  1.4133  0.0282 -0.2106
  105OSM   C18F10792   1.022   4.339   8.960  0.1445 -0.1287 -0.3270
  105OSM   H18F10793   1.042   4.321   9.068 -1.7289  0.4304  0.1390
  105OSM   H18G10794   0.955   4.257   8.929  2.6966 -1.6122 -2.0309
  105OSM   H18H10795   0.975   4.439   8.947  0.9703  0.1723 -1.0734
  106OSM      N10796   1.887   1.768  10.778  0.6863 -0.2402 -0.6798
  106OSM    C1510797   1.795   1.770  10.654  0.0068  0.0300 -0.4025
  106OSM   H15A10798   1.691   1.768  10.682  0.3020 -1.7734  0.6391
  106OSM   H15B10799   1.818   1.696  10.579 -0.9167  0.4731 -1.1360
  106OSM   H15C10800   1.812   1.867  10.608 -0.4851  0.8600  1.1197
  106OSM    C1410801   1.878   1.899  10.844 -0.1314  0.3359  0.0753
  106OSM   H14A10802   1.879   1.966  10.759 -0.4310 -1.0361 -1.0283
  106OSM   H14B10803   1.957   1.908  10.917  0.2638 -0.6774 -0.2178
  106OSM   H14C10804   1.782   1.913  10.890  0.2197  0.4954  0.7688
  106OSM    C1310805   1.834   1.657  10.872 -0.2207  0.9481 -0.0815
  106OSM   H13A10806   1.845   1.558  10.831 -4.1492  0.5291 -0.2903
  106OSM   H13B10807   1.727   1.667  10.886 -0.2384  0.5602  0.0626
  106OSM   H13C10808   1.882   1.664  10.968 -0.2361 -2.0464  0.1806
  106OSM    C1210809   2.029   1.729  10.747  0.1280  0.3938  0.4644
  106OSM   H12A10810   2.041   1.625  10.721 -1.9088  0.3715 -0.4826
  106OSM   H12B10811   2.087   1.739  10.837  0.8347  0.5282 -0.0013
  106OSM    C1110812   2.104   1.809  10.638 -1.3095  0.8035  0.0483
  106OSM   H11A10813   2.043   1.821  10.547  2.1873 -0.7272 -2.6155
  106OSM   H11B10814   2.194   1.753  10.604 -1.4725  0.4932  0.1324
  106OSM      P10815   2.284   1.950  10.778 -0.0027 -0.1440  0.4017
  106OSM    O1310816   2.306   2.095  10.809  0.0598 -0.4588 -0.0435
  106OSM    O1410817   2.291   1.849  10.892 -0.3608  0.2430  0.0101
  106OSM    O1110818   2.387   1.913  10.673  0.0230 -0.0013 -0.2944
  106OSM    O1210819   2.146   1.934  10.695  0.3491  0.4261  0.5701
  106OSM    C1S10820   2.379   1.951  10.538 -0.7123  1.1381 -0.1544
  106OSM    H1S10821   2.365   2.060  10.523  1.2338  1.8521  2.9134
  106OSM    H1T10822   2.295   1.903  10.484  0.3936 -0.4134 -0.5352
  106OSM     NF10823   2.496   1.954  10.312 -0.1090  0.6202 -0.4925
  106OSM    HNF10824   2.504   1.879  10.246  0.4244  1.5454 -1.4974
  106OSM    C2S10825   2.509   1.915  10.459 -0.1025 -0.1212  0.7925
  106OSM    H2S10826   2.596   1.971  10.501  0.8340  0.1518 -1.4564
  106OSM    C3S10827   2.549   1.764  10.474  0.0938  0.1473 -0.2640
  106OSM    H3S10828   2.460   1.714  10.429 -0.1898 -0.1850  0.6463
  106OSM     O310829   2.549   1.720  10.611  0.3251 -0.4222 -0.1118
  106OSM    HO310830   2.522   1.797  10.662 -0.0590 -0.4590 -0.2557
  106OSM    C4S10831   2.679   1.736  10.405  0.5303  0.2311  0.2428
  106OSM    H4S10832   2.762   1.800  10.438 -0.1069  0.5353  1.2604
  106OSM    C5S10833   2.689   1.649  10.301  0.7126  0.2096  0.2880
  106OSM    H5S10834   2.592   1.606  10.272  0.4806  0.1369  1.1680
  106OSM    C6S10835   2.810   1.618  10.225  0.1777 -0.3778 -0.0342
  106OSM    H6S10836   2.848   1.515  10.244 -1.2162 -0.5520  1.9336
  106OSM    H6T10837   2.893   1.685  10.256 -0.5116  1.1080 -1.3582
  106OSM    C7S10838   2.798   1.638  10.074 -0.4153 -0.9389 -0.5027
  106OSM    H7S10839   2.724   1.572  10.025  0.6813 -1.4218 -1.5221
  106OSM    H7T10840   2.898   1.617  10.031  0.2707  0.0086  0.5914
  106OSM    C8S10841   2.765   1.785  10.035 -0.1228 -0.3105  0.0842
  106OSM    H8S10842   2.850   1.849  10.069  0.0319 -1.5407  2.0606
  106OSM    H8T10843   2.681   1.820  10.099  0.8637 -2.3370  2.5340
  106OSM    C9S10844   2.731   1.802   9.884 -0.2212  0.3619  0.0333
  106OSM    H9S10845   2.694   1.904   9.862  1.7907  0.8949 -0.9690
  106OSM    H9T10846   2.639   1.743   9.860  2.0957 -2.9013 -1.1859
  106OSM   C10S10847   2.830   1.763   9.792  0.0630 -0.1448  0.0382
  106OSM   H10S10848   2.866   1.658   9.798 -1.6966 -0.8694 -1.4207
  106OSM   H10T10849   2.918   1.830   9.785  2.9194 -3.7759 -0.3015
  106OSM   C11S10850   2.770   1.757   9.651  1.0865 -0.0484 -0.3803
  106OSM   H11S10851   2.673   1.703   9.649 -0.6200  2.7589  2.1163
  106OSM   H11T10852   2.845   1.701   9.592  0.0277  0.3746 -2.1817
  106OSM   C12S10853   2.769   1.888   9.570  0.1973  0.2372  0.2135
  106OSM   H12S10854   2.858   1.951   9.593  0.3105 -0.0986  0.7013
  106OSM   H12T10855   2.688   1.950   9.615 -1.5882 -0.5453 -1.8122
  106OSM   C13S10856   2.746   1.863   9.422  0.3521  0.1301  0.2949
  106OSM   H13S10857   2.826   1.792   9.394  0.5176  1.1514 -1.9929
  106OSM   H13T10858   2.763   1.955   9.362  1.0840  0.1836  0.5836
  106OSM   C14S10859   2.607   1.799   9.387 -0.2572  0.0592  0.3688
  106OSM   H14S10860   2.530   1.873   9.416  0.8816  0.9179  1.2343
  106OSM   H14T10861   2.590   1.703   9.441 -3.9903  0.7244  0.5060
  106OSM   C15S10862   2.597   1.790   9.239 -0.2602 -0.1119  0.1328
  106OSM   H15S10863   2.674   1.723   9.195 -2.0237 -1.0863 -1.6035
  106OSM   H15T10864   2.607   1.888   9.187  1.2599 -0.9186 -1.1408
  106OSM   C16S10865   2.464   1.713   9.190 -0.4645 -0.6599  0.1253
  106OSM   H16S10866   2.385   1.790   9.203  0.2608  0.3874 -1.5251
  106OSM   H16T10867   2.439   1.622   9.248  0.6462  0.4157  2.3781
  106OSM   C17S10868   2.460   1.676   9.042 -0.8317  0.1810  0.7160
  106OSM   H17S10869   2.541   1.600   9.039  0.6458  1.6722  1.9283
  106OSM   H17T10870   2.477   1.770   8.985 -1.3105 -0.6942 -0.8868
  106OSM   C18S10871   2.327   1.611   9.000  0.4052  0.2992  0.3054
  106OSM   H18S10872   2.240   1.677   9.022 -0.4314 -1.1643  1.5086
  106OSM   H18T10873   2.302   1.514   9.048 -1.4047  0.8991  0.6446
  106OSM   H18U10874   2.313   1.597   8.891 -0.5623  1.7959  0.2201
  106OSM    C1F10875   2.466   2.076  10.271  0.2711  0.5823  0.3404
  106OSM     OF10876   2.496   2.171  10.340 -0.3404 -0.0303  0.1076
  106OSM    C2F10877   2.412   2.085  10.131  0.0812 -0.3401 -0.4831
  106OSM    H2F10878   2.350   1.997  10.106  1.9440 -1.1613 -2.3279
  106OSM    H2G10879   2.502   2.104  10.069 -1.3179 -0.2529 -2.5092
  106OSM    C3F10880   2.326   2.207  10.109  0.7538  0.0568  0.1654
  106OSM    H3F10881   2.279   2.217  10.009 -2.7033 -0.7469  1.6216
  106OSM    H3G10882   2.394   2.293  10.128  0.0015  0.7347 -0.1613
  106OSM    C4F10883   2.202   2.226  10.205 -0.5735 -0.1047 -0.4768
  106OSM    H4F10884   2.155   2.322  10.174 -0.9929 -0.0760  0.2309
  106OSM    H4G10885   2.230   2.247  10.311 -1.5687  1.1511 -0.4502
  106OSM    C5F10886   2.108   2.104  10.207 -0.3003  0.3108  0.4791
  106OSM    H5F10887   2.019   2.137  10.265 -1.4126  0.0488 -1.0451
  106OSM    H5G10888   2.156   2.020  10.262 -0.9518 -1.7279 -1.9569
  106OSM    C6F10889   2.060   2.056  10.072 -0.8808  0.0490 -0.7980
  106OSM    H6F10890   1.999   1.969  10.103 -2.1286  1.1799  0.0057
  106OSM    H6G10891   2.137   2.024   9.998 -1.5889  0.3435 -1.6852
  106OSM    C7F10892   1.974   2.164  10.007  0.2049  0.0252  0.0351
  106OSM    H7F10893   2.029   2.260  10.003 -0.6418  0.6125  1.7698
  106OSM    H7G10894   1.898   2.195  10.083 -1.2826 -1.1469 -0.9433
  106OSM    C8F10895   1.919   2.135   9.869  0.1446 -0.1866  0.0847
  106OSM    H8F10896   2.007   2.125   9.802  0.2290 -1.4974  0.3813
  106OSM    H8G10897   1.869   2.223   9.824 -0.8001 -0.6585  0.1895
  106OSM    C9F10898   1.825   2.007   9.863  0.0060 -0.1762  0.3190
  106OSM    H9F10899   1.730   2.001   9.918  0.1195  1.4814  0.7374
  106OSM   C10F10900   1.860   1.898   9.794 -0.2205 -0.0237 -0.2176
  106OSM   H10F10901   1.782   1.821   9.790  1.9227 -2.1450 -2.7021
  106OSM   C11F10902   1.985   1.869   9.712  0.6937  0.0391  0.0453
  106OSM   H11F10903   2.061   1.817   9.775  1.4486 -0.0155 -0.9115
  106OSM   H11G10904   2.033   1.959   9.667  1.7172 -0.5212 -0.0032
  106OSM   C12F10905   1.932   1.785   9.597 -0.0960 -0.2599  0.3592
  106OSM   H12F10906   1.856   1.839   9.537 -0.1712 -1.5766 -0.7299
  106OSM   H12G10907   1.889   1.690   9.633 -0.4567 -0.1417  0.2419
  106OSM   C13F10908   2.050   1.739   9.512  0.3148 -0.3350  0.5146
  106OSM   H13F10909   2.135   1.722   9.581  0.8886  3.2692  0.7856
  106OSM   H13G10910   2.088   1.815   9.440  0.2312  0.3603  1.2029
  106OSM   C14F10911   2.043   1.600   9.450  0.4614  0.6838 -0.3512
  106OSM   H14F10912   2.015   1.527   9.529  0.5517  0.5855 -0.4086
  106OSM   H14G10913   2.144   1.567   9.417 -0.3573 -2.4166  0.0833
  106OSM   C15F10914   1.941   1.586   9.332  0.0340 -0.5152 -0.4357
  106OSM   H15F10915   1.979   1.652   9.251  1.7499 -0.6983  0.2033
  106OSM   H15G10916   1.836   1.602   9.365  0.9361 -0.9333  2.8042
  106OSM   C16F10917   1.942   1.450   9.267 -0.3084  0.2850  0.5164
  106OSM   H16F10918   1.933   1.366   9.339  1.7866 -0.8657 -0.5034
  106OSM   H16G10919   2.037   1.429   9.214 -0.1935  0.6621  0.5747
  106OSM   C17F10920   1.831   1.424   9.162 -0.2432  0.0913  0.9905
  106OSM   H17F10921   1.873   1.353   9.088 -0.5200  0.4413  0.4900
  106OSM   H17G10922   1.826   1.522   9.108 -0.2420  1.3290  3.1856
  106OSM   C18F10923   1.698   1.396   9.223  0.5337  0.1101 -0.0142
  106OSM   H18F10924   1.670   1.471   9.299  0.4122 -0.6017  0.6498
  106OSM   H18G10925   1.696   1.298   9.275 -0.5453 -0.3301 -0.8599
  106OSM   H18H10926   1.618   1.393   9.146 -3.0249 -2.3510  3.5826
  107OSM      N10927   3.487   0.198  10.950 -0.3658 -0.6920  0.4444
  107OSM    C1510928   3.407   0.319  10.977  0.4650 -0.4650 -0.1212
  107OSM   H15A10929   3.414   0.392  10.898 -0.6300 -2.5853 -2.2244
  107OSM   H15B10930   3.457   0.364  11.062 -0.1783  1.7631 -0.8836
  107OSM   H15C10931   3.306   0.303  11.011  0.0800  0.4401 -0.8485
  107OSM    C1410932   3.402   0.119  10.858  0.1529  0.2797  0.1266
  107OSM   H14A10933   3.311   0.079  10.902  0.6538 -0.3740  0.5895
  107OSM   H14B10934   3.464   0.036  10.830 -0.7038 -0.7222  1.1269
  107OSM   H14C10935   3.387   0.164  10.761 -1.5629 -0.8752 -0.1805
  107OSM    C1310936   3.614   0.242  10.887  0.0536 -0.0276 -0.3939
  107OSM   H13A10937   3.675   0.299  10.955 -0.3501 -0.7453  0.5744
  107OSM   H13B10938   3.598   0.309  10.803 -2.2745 -1.9739 -1.5880
  107OSM   H13C10939   3.674   0.156  10.862 -0.7980 -0.3717 -1.2881
  107OSM    C1210940   3.508   0.121  11.077 -0.3347  0.1798 -0.4879
  107OSM   H12A10941   3.411   0.091  11.112 -0.8928 -0.8803 -2.8970
  107OSM   H12B10942   3.566   0.178  11.149 -1.7665  0.0626  0.7741
  107OSM    C1110943   3.574  -0.024  11.071 -0.4058 -0.3056 -0.3451
  107OSM   H11A10944   3.580  -0.048  11.180 -1.0153  0.1615 -0.2061
  107OSM   H11B10945   3.674  -0.004  11.028  0.3020  0.3771  1.5778
  107OSM      P10946   3.561  -0.240  10.928  0.2399 -0.0497 -0.6375
  107OSM    O1310947   3.610  -0.336  11.030 -0.1798 -0.3291 -0.7719
  107OSM    O1410948   3.481  -0.291  10.816 -0.8180  0.1198  0.2224
  107OSM    O1110949   3.703  -0.178  10.877 -0.0440  0.4603  0.6466
  107OSM    O1210950   3.491  -0.110  10.993  0.3136  0.2880 -0.2263
  107OSM    C1S10951   3.800  -0.259  10.806 -0.3952  0.7202  0.5633
  107OSM    H1S10952   3.762  -0.360  10.785 -0.5325  1.1532 -1.3681
  107OSM    H1T10953   3.893  -0.263  10.867 -0.6865  1.4145  1.0644
  107OSM     NF10954   3.910  -0.262  10.570 -0.1718  0.0710  0.0565
  107OSM    HNF10955   4.009  -0.262  10.580 -0.4611  1.5598  3.4720
  107OSM    C2S10956   3.832  -0.185  10.672  0.5858 -0.5820 -0.2355
  107OSM    H2S10957   3.735  -0.156  10.627 -0.1779  0.3165  1.9307
  107OSM    C3S10958   3.912  -0.058  10.717  0.4955 -0.5739 -0.2207
  107OSM    H3S10959   4.000  -0.088  10.777  0.7939  1.5989  0.4781
  107OSM     O310960   3.846   0.030  10.807  0.8819  0.1967 -0.0099
  107OSM    HO310961   3.785  -0.026  10.855  0.7817 -0.1314 -0.5216
  107OSM    C4S10962   3.953   0.022  10.595 -0.1887 -0.8439 -0.2588
  107OSM    H4S10963   4.061   0.027  10.579  0.1353  1.6402  2.2688
  107OSM    C5S10964   3.882   0.093  10.513 -0.8110 -0.3646 -0.2327
  107OSM    H5S10965   3.772   0.088  10.524 -0.8793  0.5855 -0.3842
  107OSM    C6S10966   3.938   0.177  10.401  0.7141  0.7009 -0.3797
  107OSM    H6S10967   4.029   0.225  10.444  1.5917 -2.0184  0.9268
  107OSM    H6T10968   3.865   0.255  10.372  1.6416  2.0139  0.7137
  107OSM    C7S10969   3.983   0.099  10.273 -0.1923 -0.0304 -0.1130
  107OSM    H7S10970   3.902   0.028  10.248  0.4067 -0.7320 -0.0816
  107OSM    H7T10971   4.057   0.023  10.307 -0.4325  0.3472  1.3127
  107OSM    C8S10972   4.023   0.169  10.144  0.0943  0.5740 -0.3064
  107OSM    H8S10973   4.074   0.090  10.085  1.3174  0.5616  0.7383
  107OSM    H8T10974   4.110   0.236  10.160 -1.0216  1.9661  0.0419
  107OSM    C9S10975   3.901   0.223  10.063 -0.2059 -0.0192 -0.1432
  107OSM    H9S10976   3.843   0.292  10.128  1.7236  1.3024  0.2497
  107OSM    H9T10977   3.831   0.142  10.033  1.2901 -0.8963 -1.3457
  107OSM   C10S10978   3.949   0.281   9.933  0.1343  0.0642 -0.4135
  107OSM   H10S10979   3.997   0.200   9.874 -0.8666 -0.1455 -0.9544
  107OSM   H10T10980   4.017   0.365   9.956 -0.5879  0.9637 -1.5511
  107OSM   C11S10981   3.844   0.347   9.841 -0.8584  0.1167 -0.3500
  107OSM   H11S10982   3.799   0.444   9.869  0.3135  1.5075 -3.0356
  107OSM   H11T10983   3.762   0.273   9.824 -0.6807 -0.2770  0.5085
  107OSM   C12S10984   3.910   0.362   9.708 -0.0117  0.9667  0.3221
  107OSM   H12S10985   4.014   0.399   9.719  0.9724 -1.2247 -1.2980
  107OSM   H12T10986   3.861   0.444   9.650 -0.2204  1.5705  1.3389
  107OSM   C13S10987   3.912   0.245   9.613  0.4364  0.1145 -0.3419
  107OSM   H13S10988   3.807   0.219   9.586  0.7380 -1.5137 -0.0347
  107OSM   H13T10989   3.951   0.151   9.657 -1.2710 -0.2269  0.4970
  107OSM   C14S10990   3.993   0.284   9.488 -0.2182 -0.1095  0.2070
  107OSM   H14S10991   4.098   0.320   9.493 -0.1729 -0.2468  0.2435
  107OSM   H14T10992   3.942   0.373   9.447  0.2762  0.2366  0.3452
  107OSM   C15S10993   4.000   0.170   9.390  0.6092  0.2885 -1.0223
  107OSM   H15S10994   3.896   0.138   9.364  0.0606  0.4108  0.8933
  107OSM   H15T10995   4.053   0.085   9.438 -0.0552  0.0576 -0.6882
  107OSM   C16S10996   4.081   0.204   9.260  0.8262 -0.0737 -0.2030
  107OSM   H16S10997   4.087   0.114   9.194 -0.4058  0.3989 -0.9864
  107OSM   H16T10998   4.188   0.228   9.273  1.6722 -2.6505 -1.9682
  107OSM   C17S10999   4.033   0.320   9.174 -0.0606  0.4419  0.1088
  107OSM   H17S11000   4.093   0.408   9.205 -1.8979  2.4244 -1.7847
  107OSM   H17T11001   3.924   0.340   9.180  0.0975  1.4779 -0.4158
  107OSM   C18S11002   4.076   0.293   9.023  0.3218  0.0096 -0.2064
  107OSM   H18S11003   4.008   0.212   8.988 -0.6368  0.2181  1.1289
  107OSM   H18T11004   4.183   0.270   9.003  0.1708 -0.4471 -0.4809
  107OSM   H18U11005   4.056   0.380   8.958  1.1147 -1.2178 -2.1420
  107OSM    C1F11006   3.848  -0.340  10.475  0.2474 -1.3353  0.6055
  107OSM     OF11007   3.732  -0.378  10.488 -0.0646  0.3060  0.2209
  107OSM    C2F11008   3.939  -0.390  10.363  0.1887  0.4345 -0.5904
  107OSM    H2F11009   4.007  -0.463  10.411 -1.1199 -0.5294 -0.1902
  107OSM    H2G11010   4.000  -0.312  10.311  0.0727 -0.3758 -1.9694
  107OSM    C3F11011   3.866  -0.467  10.255 -0.2965  0.7785  0.8836
  107OSM    H3F11012   3.803  -0.404  10.188  0.6212  0.6678 -0.0801
  107OSM    H3G11013   3.799  -0.545  10.298 -1.3433  0.6977 -0.8409
  107OSM    C4F11014   3.973  -0.526  10.159 -0.4334  0.2127 -0.2304
  107OSM    H4F11015   4.011  -0.625  10.194  0.4585  1.0698  1.2630
  107OSM    H4G11016   4.054  -0.450  10.156 -0.6401  0.4575  0.3701
  107OSM    C5F11017   3.917  -0.554  10.013 -0.5353 -0.5457 -0.1193
  107OSM    H5F11018   3.915  -0.466   9.946  3.5092  1.0518  1.6501
  107OSM    H5G11019   3.820  -0.606  10.029 -0.1202 -1.2145  0.2401
  107OSM    C6F11020   4.016  -0.635   9.937  0.3244  0.0581  0.1817
  107OSM    H6F11021   4.030  -0.737   9.980 -0.1864 -0.5618 -1.0787
  107OSM    H6G11022   4.116  -0.586   9.943 -0.0634  1.2662 -2.4416
  107OSM    C7F11023   3.990  -0.662   9.796  0.1077 -0.1115  0.7523
  107OSM    H7F11024   3.997  -0.562   9.748  1.4396 -1.0559 -1.0842
  107OSM    H7G11025   3.891  -0.711   9.782  1.0076 -1.6193 -0.5450
  107OSM    C8F11026   4.084  -0.762   9.718 -0.4569  0.4881  1.0084
  107OSM    H8F11027   4.120  -0.843   9.785  1.9620  0.4118 -0.3094
  107OSM    H8G11028   4.172  -0.701   9.688  0.4248 -2.1326 -2.0339
  107OSM    C9F11029   4.021  -0.816   9.591 -0.4105 -0.2792  0.1991
  107OSM    H9F11030   3.939  -0.888   9.608  0.3275 -1.9389 -2.8169
  107OSM   C10F11031   4.058  -0.783   9.465  0.5074  0.5117 -0.1073
  107OSM   H10F11032   4.017  -0.843   9.382  1.8546 -2.1087  1.0819
  107OSM   C11F11033   4.157  -0.675   9.425 -0.5874  0.2110 -0.4881
  107OSM   H11F11034   4.258  -0.719   9.421  0.2209  1.9035  0.6053
  107OSM   H11G11035   4.164  -0.606   9.512 -2.8923  0.7618 -0.6835
  107OSM   C12F11036   4.142  -0.588   9.298 -0.5403 -0.1945 -0.4262
  107OSM   H12F11037   4.223  -0.513   9.305  0.8098 -1.6491 -0.1988
  107OSM   H12G11038   4.047  -0.530   9.300  1.6622  3.4925  0.0569
  107OSM   C13F11039   4.155  -0.659   9.174  0.1592 -0.0158  0.4164
  107OSM   H13F11040   4.056  -0.705   9.155 -0.0384  1.0019 -1.1696
  107OSM   H13G11041   4.238  -0.733   9.173 -0.5795 -0.8701 -2.4840
  107OSM   C14F11042   4.182  -0.562   9.058 -0.7972  0.0784 -0.2569
  107OSM   H14F11043   4.284  -0.522   9.079 -1.1578 -0.2788  2.2956
  107OSM   H14G11044   4.112  -0.477   9.064 -0.9746 -0.2034  2.2493
  107OSM   C15F11045   4.176  -0.637   8.917  0.2019  0.0976 -1.2199
  107OSM   H15F11046   4.077  -0.686   8.905  0.4578 -1.0124  0.9044
  107OSM   H15G11047   4.256  -0.714   8.903 -0.1305 -0.9185  2.0895
  107OSM   C16F11048   4.210  -0.537   8.801 -0.0358 -0.4178 -0.9507
  107OSM   H16F11049   4.313  -0.501   8.821 -0.0108 -0.9880 -0.0482
  107OSM   H16G11050   4.144  -0.448   8.811  0.9702  0.1080  1.4413
  107OSM   C17F11051   4.200  -0.603   8.666 -0.2042 -0.5453  0.5065
  107OSM   H17F11052   4.096  -0.639   8.654 -0.9662  1.9363 -0.7917
  107OSM   H17G11053   4.276  -0.683   8.656 -0.0199 -0.1586 -1.4587
  107OSM   C18F11054   4.234  -0.498   8.548  0.0117 -0.1003 -0.2007
  107OSM   H18F11055   4.254  -0.549   8.451  0.1421 -1.9587  0.7830
  107OSM   H18G11056   4.329  -0.443   8.567  0.2325 -0.6040  0.1417
  107OSM   H18H11057   4.158  -0.419   8.532  1.3735  1.1342 -0.7337
  108OSM      N11058   0.691   2.910  11.291  0.4542 -0.7431 -0.7526
  108OSM    C1511059   0.562   2.846  11.319 -0.3133 -0.0883 -1.1282
  108OSM   H15A11060   0.477   2.892  11.270 -1.4383 -0.8188  0.0943
  108OSM   H15B11061   0.541   2.837  11.424  0.4094  1.6766 -0.8207
  108OSM   H15C11062   0.570   2.750  11.270  0.1084  0.4606 -2.1526
  108OSM    C1411063   0.678   3.050  11.347  0.4060  0.4123  0.0997
  108OSM   H14A11064   0.609   3.114  11.294  0.8552 -0.4215 -1.4903
  108OSM   H14B11065   0.778   3.087  11.331  0.9738 -2.1599 -2.8066
  108OSM   H14C11066   0.663   3.061  11.454 -0.2273  2.2191 -0.1586
  108OSM    C1311067   0.792   2.834  11.375  0.1957  1.6626  0.1280
  108OSM   H13A11068   0.891   2.860  11.343 -0.5350  1.9364 -1.9591
  108OSM   H13B11069   0.779   2.729  11.355  0.9555  2.0213 -2.3983
  108OSM   H13C11070   0.776   2.857  11.480  0.5571  0.7919  0.3686
  108OSM    C1211071   0.722   2.911  11.145 -0.2185  0.8263  0.1939
  108OSM   H12A11072   0.727   2.807  11.116  1.2062  1.5549 -2.3087
  108OSM   H12B11073   0.824   2.943  11.136  0.4307 -0.1717  3.5135
  108OSM    C1111074   0.619   2.971  11.051  0.7202  0.4763  0.0055
  108OSM   H11A11075   0.524   2.917  11.071  0.3176  0.6489 -1.3978
  108OSM   H11B11076   0.636   2.939  10.945  0.2154  2.0982 -0.5688
  108OSM      P11077   0.677   3.223  11.004 -0.1122 -0.2383  0.3827
  108OSM    O1311078   0.583   3.338  11.004 -0.2993 -0.0824  0.4449
  108OSM    O1411079   0.800   3.241  11.084  0.6782 -0.1524  0.1753
  108OSM    O1111080   0.701   3.176  10.854 -0.8298  0.0070  0.0197
  108OSM    O1211081   0.602   3.106  11.070 -0.1070 -0.2847 -0.0058
  108OSM    C1S11082   0.583   3.139  10.779  0.4023 -0.2613 -0.0216
  108OSM    H1S11083   0.488   3.186  10.812  0.7228 -0.5888  1.3785
  108OSM    H1T11084   0.563   3.029  10.772  2.4842 -0.6619  0.0738
  108OSM     NF11085   0.478   3.176  10.553 -0.2929  0.1163  0.2671
  108OSM    HNF11086   0.488   3.096  10.494  2.0412  0.4258  0.2047
  108OSM    C2S11087   0.602   3.191  10.631 -0.6763 -0.7802  0.3385
  108OSM    H2S11088   0.613   3.302  10.637  1.7344 -1.0468  1.6802
  108OSM    C3S11089   0.720   3.111  10.573  0.7964 -0.2167  0.0357
  108OSM    H3S11090   0.709   3.000  10.581 -0.9537  0.1962  4.4995
  108OSM     O311091   0.840   3.141  10.639  0.1037  0.7708  0.2346
  108OSM    HO311092   0.818   3.138  10.732 -2.1023 -1.1491 -0.2946
  108OSM    C4S11093   0.743   3.142  10.430 -0.4188 -1.0039 -0.6161
  108OSM    H4S11094   0.757   3.251  10.419 -0.1910 -0.8231  1.3407
  108OSM    C5S11095   0.743   3.067  10.316 -0.9572 -0.0064  0.0343
  108OSM    H5S11096   0.748   2.958  10.330 -0.7242  0.1994  1.7406
  108OSM    C6S11097   0.749   3.119  10.175  0.7082 -0.4271  0.6488
  108OSM    H6S11098   0.683   3.049  10.119  0.4367 -0.7482  1.3646
  108OSM    H6T11099   0.851   3.109  10.131  0.2551 -0.0455 -0.5022
  108OSM    C7S11100   0.724   3.267  10.154  0.0384 -0.1735 -0.3383
  108OSM    H7S11101   0.776   3.334  10.226  0.0237 -1.3166  0.7614
  108OSM    H7T11102   0.615   3.284  10.166  0.1585 -0.3848  1.2087
  108OSM    C8S11103   0.762   3.312  10.014  0.5171 -0.1044 -0.1101
  108OSM    H8S11104   0.872   3.310   9.996  0.2453 -0.5945 -1.7348
  108OSM    H8T11105   0.741   3.421  10.005 -0.0642 -0.3123 -1.3647
  108OSM    C9S11106   0.679   3.231   9.904 -0.3748 -0.1128  0.4813
  108OSM    H9S11107   0.573   3.236   9.936 -0.6617  0.0723 -0.4728
  108OSM    H9T11108   0.710   3.127   9.883 -2.0415 -0.6607  0.6854
  108OSM   C10S11109   0.693   3.309   9.770 -0.1699 -0.3144 -0.1862
  108OSM   H10S11110   0.801   3.313   9.748 -0.4330 -0.6366 -1.5849
  108OSM   H10T11111   0.659   3.414   9.784  0.3746  0.1616 -2.2482
  108OSM   C11S11112   0.622   3.243   9.653  0.0062  0.0982  0.4296
  108OSM   H11S11113   0.512   3.251   9.657  0.0752  0.8913  0.9393
  108OSM   H11T11114   0.641   3.135   9.665 -0.6256  0.0788  1.2486
  108OSM   C12S11115   0.659   3.298   9.515 -0.1146 -0.2856 -0.7061
  108OSM   H12S11116   0.768   3.284   9.507  0.1712  0.9203  0.7836
  108OSM   H12T11117   0.652   3.408   9.499  0.6755  0.3207  2.7221
  108OSM   C13S11118   0.600   3.228   9.392 -0.4512 -0.5735 -0.6863
  108OSM   H13S11119   0.489   3.222   9.389 -0.4212 -0.5689 -1.8077
  108OSM   H13T11120   0.627   3.121   9.397  1.3261 -0.1541 -1.1727
  108OSM   C14S11121   0.645   3.292   9.263  0.3369 -0.7153 -0.5057
  108OSM   H14S11122   0.756   3.292   9.268  0.4030  0.6695 -1.5678
  108OSM   H14T11123   0.607   3.396   9.268  2.2941 -0.0766  3.3467
  108OSM   C15S11124   0.584   3.233   9.140  0.2564  0.1564 -0.6943
  108OSM   H15S11125   0.476   3.258   9.145  0.1662 -0.5793  1.3611
  108OSM   H15T11126   0.602   3.124   9.144  1.1118  0.2279 -2.0418
  108OSM   C16S11127   0.634   3.292   9.007  0.8000  0.8240 -0.0747
  108OSM   H16S11128   0.745   3.291   9.005  0.8253 -3.1337  0.2273
  108OSM   H16T11129   0.604   3.399   8.994 -0.4526  0.6322  1.0375
  108OSM   C17S11130   0.591   3.223   8.875 -0.5148  0.7000  1.1873
  108OSM   H17S11131   0.663   3.257   8.797 -0.9207  0.8517  0.8795
  108OSM   H17T11132   0.489   3.249   8.840 -0.1189  0.6105 -0.0869
  108OSM   C18S11133   0.605   3.072   8.873  0.3726 -0.4205  0.4839
  108OSM   H18S11134   0.507   3.033   8.908  0.6251 -0.2811  1.3473
  108OSM   H18T11135   0.678   3.033   8.946  1.8164 -1.4146 -1.4470
  108OSM   H18U11136   0.628   3.036   8.770  1.1290  0.9655  0.1609
  108OSM    C1F11137   0.366   3.235  10.567 -0.1817 -0.1563 -0.0417
  108OSM     OF11138   0.361   3.334  10.637 -0.1049 -0.3878 -0.6511
  108OSM    C2F11139   0.246   3.190  10.501  0.6082  1.0414 -0.2997
  108OSM    H2F11140   0.178   3.153  10.581  1.6202 -1.6258 -0.6452
  108OSM    H2G11141   0.274   3.103  10.439 -0.9965  0.4016 -0.1540
  108OSM    C3F11142   0.197   3.309  10.421  0.4613 -0.1989  0.5952
  108OSM    H3F11143   0.174   3.394  10.488  1.8418  0.5513  0.1369
  108OSM    H3G11144   0.100   3.275  10.380  0.1112 -0.0405  1.2884
  108OSM    C4F11145   0.292   3.340  10.309  0.1958 -0.1246 -0.4506
  108OSM    H4F11146   0.307   3.245  10.253  2.7411  0.5969 -1.0737
  108OSM    H4G11147   0.398   3.355  10.339 -0.5197  1.1574  1.5566
  108OSM    C5F11148   0.241   3.448  10.212  0.3011 -0.1834 -0.0955
  108OSM    H5F11149   0.243   3.547  10.263  1.1393 -0.4831  0.4729
  108OSM    H5G11150   0.139   3.414  10.188 -0.0390  1.7985 -1.6025
  108OSM    C6F11151   0.318   3.457  10.081 -0.4213 -0.4029  0.1514
  108OSM    H6F11152   0.336   3.363  10.025  2.8684  3.1657 -5.3715
  108OSM    H6G11153   0.420   3.498  10.095  0.2048 -1.8680 -0.1471
  108OSM    C7F11154   0.264   3.562   9.980  0.1842 -0.3273  0.0083
  108OSM    H7F11155   0.232   3.658  10.025  1.9366  0.1804  0.2199
  108OSM    H7G11156   0.159   3.537   9.954 -0.0973  0.4254  0.4105
  108OSM    C8F11157   0.357   3.594   9.864 -0.0776 -0.0088 -0.1536
  108OSM    H8F11158   0.452   3.615   9.916  0.8442 -1.2419 -1.2974
  108OSM    H8G11159   0.311   3.674   9.801 -0.1271  0.6228  0.6834
  108OSM    C9F11160   0.359   3.475   9.772 -0.3923 -0.0907  0.5842
  108OSM    H9F11161   0.444   3.407   9.791 -0.7292 -0.3853  1.0542
  108OSM   C10F11162   0.293   3.451   9.664  0.1109  0.9847 -0.6984
  108OSM   H10F11163   0.321   3.357   9.614 -1.1723  0.0613  0.2817
  108OSM   C11F11164   0.177   3.534   9.600  0.0145  0.3158 -0.7152
  108OSM   H11F11165   0.213   3.639   9.591  2.0705 -0.3111 -0.0398
  108OSM   H11G11166   0.085   3.525   9.663  0.5193  1.8085  0.2860
  108OSM   C12F11167   0.141   3.479   9.463  0.3954 -0.4034  0.1647
  108OSM   H12F11168   0.041   3.518   9.435  0.1629 -1.7608 -0.9509
  108OSM   H12G11169   0.149   3.369   9.469 -0.6571 -0.4665  0.4639
  108OSM   C13F11170   0.221   3.519   9.335 -0.0646  0.9358 -0.2904
  108OSM   H13F11171   0.320   3.555   9.371  0.7765 -2.2913  0.7899
  108OSM   H13G11172   0.173   3.606   9.287  1.0361  0.9076 -1.4557
  108OSM   C14F11173   0.216   3.399   9.244 -0.5212 -0.0140 -0.0584
  108OSM   H14F11174   0.261   3.306   9.285  0.1914 -0.6924 -2.2599
  108OSM   H14G11175   0.281   3.419   9.156 -0.4986  2.8489  0.5670
  108OSM   C15F11176   0.081   3.359   9.192  0.4874  0.1491 -0.9616
  108OSM   H15F11177   0.027   3.452   9.164  0.7611  0.3449 -0.8417
  108OSM   H15G11178   0.032   3.316   9.281  2.5758 -1.4682 -0.5384
  108OSM   C16F11179   0.087   3.252   9.087  0.1430  0.2732 -0.3481
  108OSM   H16F11180  -0.016   3.211   9.084  0.1006  0.1232  2.0660
  108OSM   H16G11181   0.159   3.175   9.122  0.0882 -0.3143 -1.5181
  108OSM   C17F11182   0.143   3.297   8.959 -0.0898 -0.5816 -0.1446
  108OSM   H17F11183   0.213   3.383   8.969 -0.0449 -0.6532  0.1599
  108OSM   H17G11184   0.066   3.334   8.888  1.3004  0.6019 -1.0659
  108OSM   C18F11185   0.216   3.190   8.883 -0.6575  0.0788  0.4567
  108OSM   H18F11186   0.151   3.113   8.837  1.2044 -1.6855  0.7145
  108OSM   H18G11187   0.291   3.144   8.951 -0.0717  2.3648  1.3970
  108OSM   H18H11188   0.273   3.243   8.804 -0.7515  2.0693  1.6672
  109OSM      N11189   0.737   4.632  10.935 -0.6518  0.5312 -0.1612
  109OSM    C1511190   0.676   4.504  10.901 -0.5399 -0.0324  0.1336
  109OSM   H15A11191   0.610   4.505  10.816  1.1613 -1.9873 -1.2648
  109OSM   H15B11192   0.630   4.461  10.988 -1.3619  0.9965  0.2147
  109OSM   H15C11193   0.764   4.442  10.891 -2.4017 -2.2713 -2.8558
  109OSM    C1411194   0.640   4.715  11.006  0.4979 -0.3013 -0.6636
  109OSM   H14A11195   0.674   4.809  11.046 -1.2867 -0.2534  0.7796
  109OSM   H14B11196   0.601   4.662  11.092 -0.8082  1.1420 -0.3372
  109OSM   H14C11197   0.564   4.727  10.930  0.9149  1.5393 -0.8106
  109OSM    C1311198   0.851   4.624  11.030  0.5806 -0.0831  0.3994
  109OSM   H13A11199   0.913   4.712  11.027  2.0626 -1.1545 -0.9123
  109OSM   H13B11200   0.918   4.544  11.000  2.7291  2.1328 -0.8697
  109OSM   H13C11201   0.829   4.607  11.135 -1.2251 -0.8337 -0.0713
  109OSM    C1211202   0.779   4.695  10.808 -0.1435  0.0563  0.1356
  109OSM   H12A11203   0.695   4.713  10.743  0.1014 -0.1213 -0.2325
  109OSM   H12B11204   0.832   4.624  10.747  1.8493  0.6105  1.1737
  109OSM    C1111205   0.874   4.821  10.816  0.3110 -0.1145  0.3697
  109OSM   H11A11206   0.854   4.884  10.906 -1.4482 -1.4283  0.9355
  109OSM   H11B11207   0.878   4.887  10.727  0.7728  0.8432  1.0808
  109OSM      P11208   1.094   4.725  10.710  0.1288  0.0709 -0.2384
  109OSM    O1311209   1.210   4.814  10.704  1.3131  0.2634 -0.0033
  109OSM    O1411210   1.123   4.583  10.721 -0.3269  0.1532  0.3939
  109OSM    O1111211   1.006   4.743  10.586  0.3987  0.3769  0.2748
  109OSM    O1211212   1.008   4.772  10.833 -0.1077 -0.1392 -0.4761
  109OSM    C1S11213   1.071   4.791  10.467  0.0549  0.4327 -1.1087
  109OSM    H1S11214   1.142   4.712  10.432  0.5367  0.4389 -0.1590
  109OSM    H1T11215   1.111   4.894  10.467  0.4204  0.3255  2.0818
  109OSM     NF11216   1.008   4.858  10.231 -0.6361 -0.5267  0.3745
  109OSM    HNF11217   0.957   4.940  10.205 -3.2386 -2.2154 -0.0430
  109OSM    C2S11218   0.962   4.791  10.350  0.0135  0.2419 -1.0359
  109OSM    H2S11219   0.929   4.687  10.331 -1.1212  0.5932 -1.0109
  109OSM    C3S11220   0.831   4.852  10.407  0.4593 -0.5967  0.7562
  109OSM    H3S11221   0.855   4.939  10.472 -1.0409  0.5214 -0.1566
  109OSM     O311222   0.751   4.757  10.481  0.6102 -0.3520 -0.1006
  109OSM    HO311223   0.812   4.692  10.516  2.9507  0.5052 -2.4902
  109OSM    C4S11224   0.755   4.899  10.288  0.9469 -0.1881  0.3181
  109OSM    H4S11225   0.783   4.999  10.251 -2.8037  0.4062 -1.1513
  109OSM    C5S11226   0.687   4.818  10.209  0.2416 -0.0919 -0.1123
  109OSM    H5S11227   0.677   4.712  10.236  0.6855 -0.0827  0.0877
  109OSM    C6S11228   0.624   4.857  10.076  0.2257  1.2145  0.7778
  109OSM    H6S11229   0.515   4.867  10.099  0.2818 -1.9384  2.8285
  109OSM    H6T11230   0.628   4.760  10.022 -1.2076  2.2993 -1.3268
  109OSM    C7S11231   0.681   4.977  10.001  0.3451  0.0347  0.2473
  109OSM    H7S11232   0.787   4.958   9.974  0.0647 -4.2606  1.7347
  109OSM    H7T11233   0.691   5.069  10.063  1.2715  0.3368 -0.3423
  109OSM    C8S11234   0.602   5.028   9.879 -0.1282 -0.2033  0.0622
  109OSM    H8S11235   0.644   5.128   9.856 -0.6903  0.2337  0.9233
  109OSM    H8T11236   0.499   5.055   9.912  0.9291  0.5889  2.8356
  109OSM    C9S11237   0.589   4.934   9.764 -0.2341  0.1679 -0.4614
  109OSM    H9S11238   0.529   4.847   9.800 -1.1572  1.5331  1.3711
  109OSM    H9T11239   0.693   4.898   9.747 -1.1448 -2.8707  0.0473
  109OSM   C10S11240   0.534   5.006   9.639 -0.0308  0.2864  0.1556
  109OSM   H10S11241   0.586   5.104   9.630  2.5436 -0.6499  3.9166
  109OSM   H10T11242   0.429   5.037   9.660 -0.1802  0.5388 -0.9112
  109OSM   C11S11243   0.556   4.925   9.510 -0.1478 -0.3683 -0.2631
  109OSM   H11S11244   0.501   4.830   9.531 -0.5963  0.0426  0.4471
  109OSM   H11T11245   0.663   4.900   9.496 -0.4548 -1.9637  0.1046
  109OSM   C12S11246   0.500   4.989   9.385 -1.0530  0.1504 -0.7935
  109OSM   H12S11247   0.547   5.087   9.361  0.0937 -0.1303  0.2611
  109OSM   H12T11248   0.395   5.013   9.411 -0.6738  3.7923 -2.3065
  109OSM   C13S11249   0.507   4.906   9.258 -0.6322 -0.3394  0.7060
  109OSM   H13S11250   0.428   4.829   9.271  2.1990 -3.4689  0.1830
  109OSM   H13T11251   0.603   4.851   9.262  0.5562  1.5772 -0.4532
  109OSM   C14S11252   0.490   4.988   9.129 -0.3114  0.3787 -0.4766
  109OSM   H14S11253   0.567   5.068   9.116 -0.1249  0.4309  0.9096
  109OSM   H14T11254   0.393   5.041   9.141 -0.6101 -0.2355 -0.1730
  109OSM   C15S11255   0.479   4.892   9.009 -0.8717  0.2786 -0.3353
  109OSM   H15S11256   0.391   4.829   9.032 -0.3256  0.4900  2.5878
  109OSM   H15T11257   0.576   4.840   8.992  0.3536  3.2037 -2.7951
  109OSM   C16S11258   0.428   4.969   8.890  0.0623 -0.2361 -0.2463
  109OSM   H16S11259   0.493   5.049   8.850  0.1411 -0.3578 -0.3617
  109OSM   H16T11260   0.332   5.015   8.922 -0.9728 -0.3414 -3.0433
  109OSM   C17S11261   0.383   4.873   8.776  0.4422 -0.1931  0.2232
  109OSM   H17S11262   0.336   4.926   8.691  2.8218  1.3849 -0.1496
  109OSM   H17T11263   0.307   4.805   8.819  2.0167 -1.5618  0.9158
  109OSM   C18S11264   0.494   4.799   8.696  0.8218  0.3673  0.5567
  109OSM   H18S11265   0.542   4.730   8.768 -2.6333 -1.8657  0.8190
  109OSM   H18T11266   0.561   4.874   8.647 -0.1214 -0.3375 -1.8858
  109OSM   H18U11267   0.440   4.738   8.621  0.8101  0.9418  0.0963
  109OSM    C1F11268   1.123   4.834  10.166  0.5914 -0.1385 -0.2832
  109OSM     OF11269   1.199   4.747  10.193 -0.9168  0.6253  0.0345
  109OSM    C2F11270   1.154   4.937  10.059 -0.5859  0.3576 -0.7017
  109OSM    H2F11271   1.262   4.942  10.031 -0.4551  0.1132 -0.2351
  109OSM    H2G11272   1.127   5.034  10.106  0.0275  0.5712 -0.7881
  109OSM    C3F11273   1.072   4.920   9.923  0.3459 -0.1782 -0.3449
  109OSM    H3F11274   0.976   4.875   9.957 -0.0909 -0.1956 -1.5841
  109OSM    H3G11275   1.127   4.840   9.869  1.0579  0.3935 -0.4762
  109OSM    C4F11276   1.056   5.046   9.839  1.1033  0.2181  0.5306
  109OSM    H4F11277   1.160   5.067   9.805  1.2083  0.8303  1.2310
  109OSM    H4G11278   1.029   5.139   9.893 -1.3846  0.1606 -0.5340
  109OSM    C5F11279   0.972   5.022   9.714  0.4732 -0.9976  0.5507
  109OSM    H5F11280   0.863   5.016   9.736  0.3591  2.2902  1.1041
  109OSM    H5G11281   0.989   4.918   9.677  0.8585 -0.3015 -1.3084
  109OSM    C6F11282   0.993   5.120   9.608 -0.3168 -0.4142  0.2574
  109OSM    H6F11283   1.099   5.109   9.576 -0.2430  0.8553  0.0456
  109OSM    H6G11284   0.991   5.223   9.649 -0.8592 -0.5167  0.4857
  109OSM    C7F11285   0.890   5.128   9.498  0.3617 -0.0788  0.0151
  109OSM    H7F11286   0.800   5.182   9.535  0.7534  2.0865 -2.0853
  109OSM    H7G11287   0.856   5.031   9.454 -0.2533  1.4481 -3.0282
  109OSM    C8F11288   0.935   5.223   9.378 -0.1631  0.0844 -0.4263
  109OSM    H8F11289   1.022   5.176   9.326  1.4546  1.8957  0.5462
  109OSM    H8G11290   0.963   5.321   9.421 -0.0166 -0.7966  1.5587
  109OSM    C9F11291   0.831   5.232   9.269 -0.6236 -0.9371 -0.7926
  109OSM    H9F11292   0.743   5.166   9.280  0.0169 -1.3989  1.8428
  109OSM   C10F11293   0.836   5.319   9.170 -0.1334  0.1423 -0.3068
  109OSM   H10F11294   0.754   5.316   9.097  2.2873 -2.1450 -3.0582
  109OSM   C11F11295   0.955   5.418   9.146 -0.0646  0.0987 -0.2368
  109OSM   H11F11296   1.004   5.443   9.243  3.4803 -0.7407 -1.7428
  109OSM   H11G11297   0.912   5.511   9.104 -0.1508 -1.5627 -4.0788
  109OSM   C12F11298   1.062   5.368   9.040 -0.3822  0.1460  0.2418
  109OSM   H12F11299   1.117   5.290   9.096 -0.9588 -0.3583  0.1158
  109OSM   H12G11300   1.135   5.446   9.011  1.2099 -1.6410 -0.6874
  109OSM   C13F11301   0.992   5.320   8.910  0.4815 -0.8430 -0.0003
  109OSM   H13F11302   0.955   5.419   8.877  0.2774  0.3910  3.6922
  109OSM   H13G11303   0.907   5.253   8.936  1.6224 -2.6031 -0.7311
  109OSM   C14F11304   1.086   5.260   8.807 -0.8669 -0.4695 -0.3183
  109OSM   H14F11305   1.112   5.156   8.836  0.2754 -0.4419 -1.2315
  109OSM   H14G11306   1.188   5.302   8.798 -1.2569  0.1978 -1.7954
  109OSM   C15F11307   1.031   5.273   8.664 -0.1848  0.2480  0.6571
  109OSM   H15F11308   1.052   5.379   8.639 -0.2142  0.6056  2.0646
  109OSM   H15G11309   0.920   5.262   8.665 -0.2747  1.1059  0.1410
  109OSM   C16F11310   1.095   5.192   8.558 -0.2854  0.5043 -0.2541
  109OSM   H16F11311   1.203   5.219   8.564 -0.3176  0.8207 -1.0424
  109OSM   H16G11312   1.065   5.223   8.455  0.3770 -0.9028 -0.8931
  109OSM   C17F11313   1.084   5.039   8.575 -0.4439  0.0369  0.6858
  109OSM   H17F11314   1.123   5.027   8.678  1.4570  3.2258  0.4067
  109OSM   H17G11315   1.151   4.991   8.500  0.7253 -0.9240  2.3196
  109OSM   C18F11316   0.940   4.994   8.563  0.6321 -0.4064  0.1505
  109OSM   H18F11317   0.871   5.057   8.624 -0.1656 -0.8460 -0.2855
  109OSM   H18G11318   0.929   4.886   8.586 -0.8019 -0.0646  1.1389
  109OSM   H18H11319   0.917   5.004   8.455  1.5861 -0.0029 -0.0234
  110OSM      N11320   2.339   5.007  11.156  0.1158  0.3475  0.5633
  110OSM    C1511321   2.282   4.887  11.218 -0.0070  0.1295  0.2708
  110OSM   H15A11322   2.200   4.912  11.284  0.8018 -1.1314  1.7868
  110OSM   H15B11323   2.355   4.826  11.269  2.6706  2.0582 -1.1388
  110OSM   H15C11324   2.243   4.821  11.142  0.8853 -0.4160  0.2794
  110OSM    C1411325   2.383   5.105  11.259  0.0669  0.3269  0.9366
  110OSM   H14A11326   2.318   5.110  11.345 -0.1133  3.8938  0.6547
  110OSM   H14B11327   2.392   5.204  11.219  0.3545 -0.4390 -0.9640
  110OSM   H14C11328   2.476   5.074  11.303 -0.4763  1.5486  3.0140
  110OSM    C1311329   2.460   4.975  11.070 -0.3218  0.9426 -0.1993
  110OSM   H13A11330   2.499   5.067  11.028 -0.0157  1.7035  1.6819
  110OSM   H13B11331   2.433   4.905  10.993 -2.6884 -0.1665  1.5685
  110OSM   H13C11332   2.529   4.927  11.138  0.5450  1.1523 -0.9188
  110OSM    C1211333   2.231   5.071  11.067  0.4804  0.3324 -0.3861
  110OSM   H12A11334   2.256   5.171  11.035 -0.6288  0.0849 -2.0774
  110OSM   H12B11335   2.141   5.064  11.125  0.8121 -0.1569  0.0754
  110OSM    C1111336   2.191   4.994  10.932 -0.6309  0.7498 -0.1316
  110OSM   H11A11337   2.156   4.891  10.955  3.4362 -0.8244 -0.6706
  110OSM   H11B11338   2.277   4.990  10.863 -0.1530 -2.3150  0.5559
  110OSM      P11339   2.030   5.045  10.734 -0.0621 -0.3617  0.4325
  110OSM    O1311340   1.905   4.964  10.747  0.0020  0.1655 -0.6951
  110OSM    O1411341   2.025   5.175  10.664  0.1986  0.0281 -0.1708
  110OSM    O1111342   2.139   4.948  10.675  0.3913  0.3088 -0.0223
  110OSM    O1211343   2.080   5.069  10.874  0.1176  0.2823  0.2408
  110OSM    C1S11344   2.101   4.823  10.603  0.5270 -0.6471 -0.7131
  110OSM    H1S11345   2.010   4.840  10.542 -0.8956  1.4498  1.8636
  110OSM    H1T11346   2.059   4.753  10.679  0.7380  0.0744  0.0825
  110OSM     NF11347   2.154   4.676  10.409 -0.0397  0.0468 -0.0128
  110OSM    HNF11348   2.177   4.579  10.418  0.2217  0.2619  1.7185
  110OSM    C2S11349   2.216   4.766  10.501  0.6776  0.5702  0.0892
  110OSM    H2S11350   2.252   4.856  10.447  1.2703 -0.4717 -1.2855
  110OSM    C3S11351   2.326   4.703  10.590  0.0938 -0.9992 -0.1242
  110OSM    H3S11352   2.289   4.613  10.643  0.0122  0.2239  1.9540
  110OSM     O311353   2.381   4.801  10.693 -0.1292 -0.5015  0.2074
  110OSM    HO311354   2.327   4.879  10.676 -0.2942 -1.0686 -2.1490
  110OSM    C4S11355   2.434   4.653  10.504  0.2913 -0.5681  0.1152
  110OSM    H4S11356   2.439   4.544  10.523  1.1841 -0.7994 -1.3653
  110OSM    C5S11357   2.522   4.713  10.419 -0.1561  0.2836  0.1842
  110OSM    H5S11358   2.517   4.820  10.396  1.3045  0.8606  2.3883
  110OSM    C6S11359   2.631   4.648  10.342  0.5657 -0.0027 -0.0102
  110OSM    H6S11360   2.727   4.667  10.396  1.4501  0.1408 -1.6017
  110OSM    H6T11361   2.630   4.696  10.242 -0.3565 -0.1705 -0.0874
  110OSM    C7S11362   2.626   4.502  10.303 -0.4070  0.3875 -0.2546
  110OSM    H7S11363   2.602   4.447  10.397 -1.0748 -1.4831 -1.4965
  110OSM    H7T11364   2.725   4.463  10.272  0.8075  2.4934  0.8851
  110OSM    C8S11365   2.523   4.473  10.199  0.9221  0.2000 -0.4436
  110OSM    H8S11366   2.559   4.533  10.113 -0.6969  0.4083 -1.0099
  110OSM    H8T11367   2.429   4.522  10.233  0.4450 -1.3794  0.5516
  110OSM    C9S11368   2.503   4.327  10.162  0.0547 -0.3224 -0.7127
  110OSM    H9S11369   2.422   4.285  10.225  1.8688 -0.9005  1.2820
  110OSM    H9T11370   2.590   4.269  10.199 -0.7859 -1.2685 -0.1954
  110OSM   C10S11371   2.473   4.292  10.017 -0.2516 -0.4702  0.7164
  110OSM   H10S11372   2.460   4.182  10.005 -0.0371 -0.7262  2.6887
  110OSM   H10T11373   2.555   4.323   9.948 -1.9759  0.0794 -1.1309
  110OSM   C11S11374   2.346   4.353   9.965  0.6552  0.0038  1.0711
  110OSM   H11S11375   2.341   4.462   9.945  2.9156  0.0067  0.4414
  110OSM   H11T11376   2.257   4.336  10.031 -1.1379 -1.5405 -1.6642
  110OSM   C12S11377   2.312   4.293   9.827  0.4862 -0.2527  0.0378
  110OSM   H12S11378   2.310   4.182   9.825 -0.5070 -0.2141 -1.6423
  110OSM   H12T11379   2.397   4.328   9.763 -0.4764  1.0109 -0.5726
  110OSM   C13S11380   2.186   4.346   9.766  0.5338 -0.0737 -0.3161
  110OSM   H13S11381   2.201   4.449   9.727 -1.2022  0.6551  0.8457
  110OSM   H13T11382   2.102   4.360   9.838  1.5420  1.2692  0.6175
  110OSM   C14S11383   2.128   4.242   9.665 -0.3429  0.6444  0.5225
  110OSM   H14S11384   2.026   4.268   9.631 -0.3530  2.3744  1.8344
  110OSM   H14T11385   2.120   4.139   9.707 -1.4444  1.6926  2.9178
  110OSM   C15S11386   2.218   4.221   9.534  0.0054 -0.1090 -0.5396
  110OSM   H15S11387   2.195   4.120   9.495 -1.4420 -0.1361  0.3609
  110OSM   H15T11388   2.324   4.211   9.565  0.4631  0.2245 -1.9632
  110OSM   C16S11389   2.203   4.330   9.435 -0.2064  0.1474  0.2876
  110OSM   H16S11390   2.230   4.430   9.475  1.8373 -0.3485  0.2020
  110OSM   H16T11391   2.099   4.336   9.397  0.1341 -1.7131 -0.9591
  110OSM   C17S11392   2.301   4.308   9.315  0.5632 -0.2039  0.1496
  110OSM   H17S11393   2.272   4.223   9.250 -1.2118 -0.6225  1.4573
  110OSM   H17T11394   2.401   4.280   9.355  0.4069 -0.4131  0.3900
  110OSM   C18S11395   2.303   4.424   9.212 -0.3902 -0.4530 -0.1183
  110OSM   H18S11396   2.207   4.447   9.161 -0.4937  4.5485  2.0905
  110OSM   H18T11397   2.381   4.389   9.140 -0.2259 -0.1547 -0.0866
  110OSM   H18U11398   2.332   4.519   9.260 -2.7837 -0.6749  1.8699
  110OSM    C1F11399   2.060   4.715  10.326  0.1496 -0.2578  0.1240
  110OSM     OF11400   2.026   4.835  10.313 -0.4357  0.2172  0.1450
  110OSM    C2F11401   1.986   4.602  10.255  0.7011  0.3137  0.3845
  110OSM    H2F11402   1.880   4.604  10.287 -0.4825  2.7143 -3.2622
  110OSM    H2G11403   2.034   4.505  10.280 -2.4285 -1.5709 -0.6616
  110OSM    C3F11404   2.015   4.609  10.100  0.3021  0.9384 -0.1655
  110OSM    H3F11405   1.986   4.510  10.059 -0.2667 -0.1117  2.6571
  110OSM    H3G11406   2.120   4.634  10.076  0.5137  0.8487  0.6308
  110OSM    C4F11407   1.920   4.711  10.037 -0.3356 -0.1853  0.5055
  110OSM    H4F11408   1.919   4.806  10.095  0.7253  2.3133 -3.3161
  110OSM    H4G11409   1.817   4.669  10.033 -0.3715 -0.2035  1.5111
  110OSM    C5F11410   1.972   4.744   9.901 -0.1457  0.8562 -0.6845
  110OSM    H5F11411   2.083   4.751   9.905 -0.1412  1.0735 -1.1028
  110OSM    H5G11412   1.936   4.834   9.846  0.9252  1.7559  0.0724
  110OSM    C6F11413   1.933   4.633   9.799  0.4044  1.0917  0.2272
  110OSM    H6F11414   1.827   4.604   9.808  1.2317 -1.4582  2.4033
  110OSM    H6G11415   1.991   4.544   9.832 -0.2496  0.6959  0.3097
  110OSM    C7F11416   1.970   4.663   9.658  0.0611  0.0828  0.1274
  110OSM    H7F11417   2.080   4.661   9.644  0.0521 -2.0150  0.1400
  110OSM    H7G11418   1.929   4.761   9.624 -0.8426 -0.2221  0.3189
  110OSM    C8F11419   1.916   4.557   9.566  0.3976  0.0484  0.1941
  110OSM    H8F11420   1.805   4.546   9.573  0.4920 -0.0079  1.7545
  110OSM    H8G11421   1.967   4.463   9.594  0.4566 -0.3965 -1.3830
  110OSM    C9F11422   1.967   4.595   9.425  0.0704  0.0204  0.5465
  110OSM    H9F11423   2.046   4.671   9.418  0.3036 -0.4125 -2.3164
  110OSM   C10F11424   1.914   4.565   9.305 -0.1342  0.0412 -0.5366
  110OSM   H10F11425   1.957   4.597   9.209  0.1091 -1.3558 -0.9138
  110OSM   C11F11426   1.795   4.483   9.288 -0.7838  0.5476 -0.7184
  110OSM   H11F11427   1.705   4.530   9.333 -1.0419 -0.5398 -0.0685
  110OSM   H11G11428   1.796   4.385   9.341  0.4279  0.4479 -0.9105
  110OSM   C12F11429   1.762   4.457   9.143 -0.7517  0.4995 -1.1890
  110OSM   H12F11430   1.696   4.369   9.133  0.4315 -0.2727 -2.3372
  110OSM   H12G11431   1.857   4.434   9.090  0.0973  0.2514  0.4169
  110OSM   C13F11432   1.690   4.574   9.069  0.5798 -0.1765  0.1508
  110OSM   H13F11433   1.762   4.658   9.070  0.8706 -0.3916 -1.2897
  110OSM   H13G11434   1.597   4.605   9.121 -0.6899 -3.4958 -0.0163
  110OSM   C14F11435   1.658   4.536   8.922 -0.0391  0.3917 -0.6055
  110OSM   H14F11436   1.580   4.456   8.920  0.0683  0.2857 -0.5463
  110OSM   H14G11437   1.747   4.489   8.877 -0.3326  0.1682 -0.9523
  110OSM   C15F11438   1.618   4.661   8.852 -0.2003 -0.0182  0.0385
  110OSM   H15F11439   1.704   4.730   8.855  0.0844 -0.3473 -0.5136
  110OSM   H15G11440   1.524   4.707   8.890  0.3251  0.2618  1.0102
  110OSM   C16F11441   1.591   4.650   8.701  0.4774 -0.6642 -0.5584
  110OSM   H16F11442   1.559   4.752   8.670  0.0642 -0.5136  0.3587
  110OSM   H16G11443   1.503   4.585   8.679  0.6231 -0.4920 -1.6899
  110OSM   C17F11444   1.713   4.595   8.615  0.0006  0.2315 -0.1990
  110OSM   H17F11445   1.669   4.543   8.527 -0.6312  3.3026 -1.7461
  110OSM   H17G11446   1.755   4.511   8.674  2.6262  1.3981 -0.3399
  110OSM   C18F11447   1.815   4.696   8.578  0.0208  0.0890 -0.6988
  110OSM   H18F11448   1.901   4.667   8.514  2.2221  1.3313  1.5946
  110OSM   H18G11449   1.872   4.741   8.662  1.2087 -0.9955 -0.9163
  110OSM   H18H11450   1.763   4.777   8.523 -0.7708 -0.0762 -0.1959
  111OSM      N11451   3.466   1.525  10.758 -0.2365 -0.5192  0.4500
  111OSM    C1511452   3.468   1.676  10.765  0.0554 -0.1351 -0.0039
  111OSM   H15A11453   3.368   1.705  10.736 -0.0099  0.7735  1.1411
  111OSM   H15B11454   3.534   1.727  10.696 -2.5969  2.2089 -0.9027
  111OSM   H15C11455   3.486   1.712  10.865  0.1491  0.8193 -0.3668
  111OSM    C1411456   3.351   1.469  10.841 -0.3648 -0.2336 -0.1139
  111OSM   H14A11457   3.357   1.361  10.849 -3.3396 -0.3400  1.2336
  111OSM   H14B11458   3.256   1.498  10.798 -0.7296  2.2352  2.2026
  111OSM   H14C11459   3.343   1.510  10.940  2.4913  2.3772 -0.8947
  111OSM    C1311460   3.433   1.485  10.613  0.3864  0.1649  0.5805
  111OSM   H13A11461   3.450   1.379  10.598 -1.9957 -0.1312 -0.3390
  111OSM   H13B11462   3.497   1.531  10.539 -1.5709  1.7722 -0.1502
  111OSM   H13C11463   3.329   1.493  10.585 -0.5315 -2.6385  2.8729
  111OSM    C1211464   3.601   1.468  10.802 -0.3426  0.4022 -0.3311
  111OSM   H12A11465   3.608   1.467  10.910 -1.4486  0.4726 -0.2570
  111OSM   H12B11466   3.680   1.536  10.773 -1.2261  1.6363  0.1373
  111OSM    C1111467   3.621   1.323  10.765  0.7383  0.4019  0.0381
  111OSM   H11A11468   3.720   1.300  10.810  0.7327  1.7793  0.7864
  111OSM   H11B11469   3.634   1.316  10.655 -0.3492 -2.0869  0.0550
  111OSM      P11470   3.519   1.085  10.784 -0.5202 -0.0265  0.0332
  111OSM    O1311471   3.654   1.033  10.753 -0.3528 -0.1328 -0.7119
  111OSM    O1411472   3.438   1.004  10.879  0.1043 -0.0077 -0.4628
  111OSM    O1111473   3.443   1.086  10.653 -0.0372 -0.2025  0.0271
  111OSM    O1211474   3.525   1.239  10.824  0.6288 -0.0659 -0.2192
  111OSM    C1S11475   3.454   0.969  10.566 -0.4758  0.5569 -0.2354
  111OSM    H1S11476   3.405   0.885  10.619  1.0358 -0.5245 -0.5161
  111OSM    H1T11477   3.562   0.945  10.556 -0.5180 -1.0289  2.6125
  111OSM     NF11478   3.411   0.884  10.332  0.2637 -0.4870  0.6339
  111OSM    HNF11479   3.496   0.886  10.280 -0.3468  2.3599 -0.3661
  111OSM    C2S11480   3.385   1.000  10.421  0.0359  0.9713  0.5078
  111OSM    H2S11481   3.277   1.004  10.446 -0.7749  1.3645 -2.8303
  111OSM    C3S11482   3.430   1.131  10.359 -0.2235  0.2474  0.2683
  111OSM    H3S11483   3.536   1.121  10.327 -0.5263  0.4997 -0.8305
  111OSM     O311484   3.435   1.252  10.432  0.2568 -0.3060  0.8047
  111OSM    HO311485   3.409   1.228  10.521 -2.0363 -1.3986 -0.1100
  111OSM    C4S11486   3.353   1.147  10.225  0.2781 -0.3647 -0.5914
  111OSM    H4S11487   3.414   1.090  10.153  0.5501  1.3988 -1.7872
  111OSM    C5S11488   3.237   1.212  10.186  0.8797  0.4575  0.1777
  111OSM    H5S11489   3.186   1.269  10.266  2.8609  1.7420  0.5630
  111OSM    C6S11490   3.183   1.216  10.049  0.2753  0.1974 -0.5676
  111OSM    H6S11491   3.239   1.296   9.997 -0.2902 -0.1508 -1.7437
  111OSM    H6T11492   3.074   1.237  10.049  0.5526  1.8119  2.2794
  111OSM    C7S11493   3.218   1.098   9.957 -0.1624 -0.5194 -0.5748
  111OSM    H7S11494   3.197   1.003  10.010 -0.6518  0.9305  1.9062
  111OSM    H7T11495   3.326   1.099   9.931  0.5562  0.7868  2.3214
  111OSM    C8S11496   3.140   1.094   9.827 -0.0355 -0.4894 -0.2806
  111OSM    H8S11497   3.140   1.185   9.762 -1.2387 -1.8829 -2.2702
  111OSM    H8T11498   3.034   1.082   9.857 -0.4155  0.8531 -1.0186
  111OSM    C9S11499   3.210   0.992   9.735  0.1830  0.0549 -0.0157
  111OSM    H9S11500   3.206   0.889   9.777 -0.0364 -0.7635 -1.9629
  111OSM    H9T11501   3.317   1.021   9.728 -0.3022  1.9794  0.2130
  111OSM   C10S11502   3.137   0.994   9.600  0.4524 -0.3307  0.4220
  111OSM   H10S11503   3.141   1.100   9.567  0.2454 -0.5312 -0.2589
  111OSM   H10T11504   3.029   0.967   9.609  0.5953 -1.1493 -0.3272
  111OSM   C11S11505   3.206   0.911   9.493 -0.0443  0.1259  0.2252
  111OSM   H11S11506   3.228   0.810   9.533 -1.7676 -0.9770 -1.5682
  111OSM   H11T11507   3.306   0.959   9.491 -1.1621  2.5800  0.3795
  111OSM   C12S11508   3.133   0.917   9.359  1.0536  0.3493  0.4576
  111OSM   H12S11509   3.035   0.863   9.357  0.8652  0.7202 -1.0331
  111OSM   H12T11510   3.197   0.852   9.295  0.8806 -0.9606  1.5970
  111OSM   C13S11511   3.113   1.058   9.302  0.1041  1.9357 -0.1841
  111OSM   H13S11512   3.207   1.113   9.280  2.0328 -1.1160  0.0908
  111OSM   H13T11513   3.058   1.102   9.388 -2.3682 -2.6432  0.7340
  111OSM   C14S11514   3.010   1.061   9.189 -0.0379 -0.3650  0.9039
  111OSM   H14S11515   2.975   1.164   9.167  1.3094 -0.1049 -0.0363
  111OSM   H14T11516   2.915   1.008   9.215 -0.4831 -0.1440 -0.2669
  111OSM   C15S11517   3.072   0.995   9.067 -0.1710 -0.1539  0.2259
  111OSM   H15S11518   2.988   0.978   8.995 -0.9691  1.1080  0.8405
  111OSM   H15T11519   3.125   0.903   9.100 -1.4218 -0.4241  1.5501
  111OSM   C16S11520   3.172   1.083   8.991 -0.1608  0.3825 -0.0319
  111OSM   H16S11521   3.240   1.131   9.065 -2.0429  1.7528  0.8729
  111OSM   H16T11522   3.109   1.158   8.939  0.1362  0.9909  0.4811
  111OSM   C17S11523   3.251   1.008   8.887 -0.3384  0.0687 -0.4026
  111OSM   H17S11524   3.191   0.962   8.805  1.2533  0.3675 -1.7648
  111OSM   H17T11525   3.305   0.923   8.934  1.8795  1.1425 -0.9389
  111OSM   C18S11526   3.348   1.107   8.816 -0.1652 -0.7278  0.8138
  111OSM   H18S11527   3.300   1.191   8.763 -1.6602 -1.4801  0.9556
  111OSM   H18T11528   3.408   1.059   8.735  2.3467  2.7928  0.4700
  111OSM   H18U11529   3.420   1.149   8.890 -1.3927  1.3369  0.8661
  111OSM    C1F11530   3.351   0.766  10.341  0.0051 -0.1632  0.4213
  111OSM     OF11531   3.254   0.749  10.416 -0.4876  0.3191 -0.4986
  111OSM    C2F11532   3.397   0.664  10.250 -0.0387 -0.6623 -0.3434
  111OSM    H2F11533   3.342   0.569  10.264 -0.2153 -0.6404 -0.8857
  111OSM    H2G11534   3.506   0.645  10.263 -0.0897 -0.6570  0.0888
  111OSM    C3F11535   3.392   0.713  10.104  1.0857  0.1220 -0.5492
  111OSM    H3F11536   3.399   0.628  10.032  1.4507 -0.2244 -0.1119
  111OSM    H3G11537   3.467   0.793  10.090  1.1545  0.0758 -0.4460
  111OSM    C4F11538   3.250   0.753  10.058  0.7894  1.1039  0.2507
  111OSM    H4F11539   3.268   0.813   9.966 -0.0514 -0.2128 -0.7736
  111OSM    H4G11540   3.209   0.823  10.134 -0.1363 -0.9499  1.6777
  111OSM    C5F11541   3.154   0.633  10.026  0.1092 -0.2458  0.4922
  111OSM    H5F11542   3.188   0.547  10.088  0.2576  0.0579  0.8355
  111OSM    H5G11543   3.163   0.602   9.920  4.4361  0.3316  0.6039
  111OSM    C6F11544   3.010   0.673  10.059 -0.8849 -0.0289 -0.3355
  111OSM    H6F11545   3.008   0.727  10.156  0.5012 -3.1608  1.5076
  111OSM    H6G11546   2.957   0.576  10.067 -1.5257  0.4629  1.5682
  111OSM    C7F11547   2.943   0.764   9.955 -0.2023  0.4588 -0.2866
  111OSM    H7F11548   2.982   0.867   9.965  0.7470  0.2261 -1.4989
  111OSM    H7G11549   2.835   0.778   9.979 -0.7644  1.3373 -3.0542
  111OSM    C8F11550   2.954   0.718   9.808 -0.3206 -0.1100  0.2834
  111OSM    H8F11551   3.058   0.707   9.771 -0.5083  0.2711 -0.3515
  111OSM    H8G11552   2.913   0.797   9.743 -0.3003  1.3697  2.0234
  111OSM    C9F11553   2.860   0.600   9.779  0.3203 -0.1443 -0.0848
  111OSM    H9F11554   2.766   0.585   9.834  0.4367 -2.5756 -0.4728
  111OSM   C10F11555   2.889   0.507   9.681  0.4990  0.1676  0.5048
  111OSM   H10F11556   2.819   0.423   9.672  0.2130  0.4321  0.1912
  111OSM   C11F11557   3.005   0.509   9.584 -0.1982 -0.2790  0.7652
  111OSM   H11F11558   3.070   0.423   9.610 -0.1946 -0.0402  1.5341
  111OSM   H11G11559   3.074   0.596   9.595 -0.5974  0.2376 -0.7075
  111OSM   C12F11560   2.949   0.497   9.444 -0.6340 -0.0538 -0.4405
  111OSM   H12F11561   2.882   0.586   9.439  0.4815  0.7686 -1.0202
  111OSM   H12G11562   2.884   0.410   9.420 -2.2928  1.3445 -1.1261
  111OSM   C13F11563   3.058   0.516   9.338  0.1307 -0.6893 -0.1344
  111OSM   H13F11564   3.133   0.434   9.344  0.6560 -0.1247  1.3715
  111OSM   H13G11565   3.123   0.604   9.356 -2.1213  0.4549  2.8356
  111OSM   C14F11566   2.997   0.529   9.204  0.4745  0.8946  0.9952
  111OSM   H14F11567   2.950   0.628   9.190 -0.0853  0.7454  1.7775
  111OSM   H14G11568   2.916   0.453   9.200  0.7364  0.6698 -0.1070
  111OSM   C15F11569   3.101   0.495   9.093  0.1889 -0.3665  0.6814
  111OSM   H15F11570   3.142   0.392   9.097  2.3640  0.3704 -1.4970
  111OSM   H15G11571   3.192   0.559   9.095  0.7354 -1.1082 -0.1302
  111OSM   C16F11572   3.032   0.527   8.955 -0.7475 -0.2594 -0.2861
  111OSM   H16F11573   2.989   0.630   8.950  0.3151  0.2457  0.6986
  111OSM   H16G11574   2.950   0.459   8.926 -2.1944  1.0425  0.6911
  111OSM   C17F11575   3.127   0.510   8.830 -0.3574 -0.1712 -0.4185
  111OSM   H17F11576   3.065   0.501   8.738  0.3970  1.7217 -1.1332
  111OSM   H17G11577   3.188   0.417   8.835  0.4567  0.3438 -0.7243
  111OSM   C18F11578   3.231   0.620   8.818 -0.1963 -0.0476  0.5867
  111OSM   H18F11579   3.302   0.592   8.737 -0.5830  0.9329 -0.1020
  111OSM   H18G11580   3.294   0.633   8.909 -2.7401 -1.7439  2.6828
  111OSM   H18H11581   3.192   0.724   8.807 -0.5421 -0.4408 -2.3441
  112OSM      N11582   4.265   5.170  11.094  0.4395  0.3734  0.5771
  112OSM    C1511583   4.396   5.114  11.103 -0.6873  0.2210  0.0627
  112OSM   H15A11584   4.426   5.125  11.206 -0.9678 -2.1598  0.4249
  112OSM   H15B11585   4.464   5.165  11.036 -1.4541 -0.5665 -1.3346
  112OSM   H15C11586   4.408   5.007  11.094 -0.2413  0.2706  0.0606
  112OSM    C1411587   4.160   5.086  11.163 -0.2657 -0.2634 -0.0964
  112OSM   H14A11588   4.068   5.134  11.134 -0.2060 -1.7686 -2.9482
  112OSM   H14B11589   4.174   5.093  11.270  0.1715  2.4731 -0.2743
  112OSM   H14C11590   4.144   4.985  11.130 -0.6179 -0.1777 -0.1834
  112OSM    C1311591   4.268   5.307  11.152  0.1821  1.1650 -0.2986
  112OSM   H13A11592   4.168   5.345  11.166 -0.2580 -0.1650  0.2854
  112OSM   H13B11593   4.338   5.366  11.096  1.1238  1.8206  1.5262
  112OSM   H13C11594   4.317   5.308  11.248 -0.9594 -1.5760  0.3638
  112OSM    C1211595   4.222   5.169  10.947 -0.9600 -0.1956  0.5686
  112OSM   H12A11596   4.273   5.091  10.892 -1.2896 -0.2679  0.3664
  112OSM   H12B11597   4.277   5.246  10.894  1.9574 -2.1798  0.5757
  112OSM    C1111598   4.074   5.181  10.910 -0.3590  0.4594 -0.2195
  112OSM   H11A11599   4.009   5.101  10.951  0.8270  1.0044  2.9279
  112OSM   H11B11600   4.066   5.180  10.800  0.8330  3.4908 -0.3921
  112OSM      P11601   3.881   5.327  11.016 -0.0342  0.3519  0.0494
  112OSM    O1311602   3.864   5.236  11.131  0.4147 -0.0824  0.1702
  112OSM    O1411603   3.859   5.469  11.048  0.5618  0.1425 -0.3085
  112OSM    O1111604   3.792   5.270  10.900 -0.1187  0.0337 -0.4538
  112OSM    O1211605   4.022   5.309  10.957 -0.1069  0.1624 -0.0592
  112OSM    C1S11606   3.732   5.363  10.810 -0.2582 -0.0131 -0.2863
  112OSM    H1S11607   3.712   5.465  10.850 -1.1129 -0.5310  0.6557
  112OSM    H1T11608   3.635   5.320  10.776  0.0675 -1.3821  0.4596
  112OSM     NF11609   3.763   5.496  10.612  0.0558 -0.3772  0.2245
  112OSM    HNF11610   3.685   5.475  10.554 -0.3410 -1.8572  1.2311
  112OSM    C2S11611   3.807   5.379  10.682 -0.2118  0.1822  0.0050
  112OSM    H2S11612   3.910   5.403  10.714  0.2664 -2.1806  0.3471
  112OSM    C3S11613   3.795   5.245  10.602  0.5170 -0.1286  0.0120
  112OSM    H3S11614   3.690   5.215  10.582 -0.1758  2.1494  0.1143
  112OSM     O311615   3.854   5.136  10.678  0.4191  0.3283 -0.3380
  112OSM    HO311616   3.864   5.184  10.760 -1.7445 -0.5396  0.4789
  112OSM    C4S11617   3.869   5.259  10.472 -0.3051 -0.7524 -0.3177
  112OSM    H4S11618   3.978   5.249  10.470 -0.1859  0.4214 -0.0551
  112OSM    C5S11619   3.811   5.266  10.354  0.4316 -0.9532 -0.2314
  112OSM    H5S11620   3.701   5.264  10.352  0.3156  0.8847  2.1864
  112OSM    C6S11621   3.895   5.270  10.232 -0.1769  0.5726  0.2881
  112OSM    H6S11622   3.999   5.233  10.245 -0.1220  0.1477 -1.3529
  112OSM    H6T11623   3.894   5.375  10.195 -1.6477  0.6627  0.5391
  112OSM    C7S11624   3.819   5.181  10.124 -0.2379 -0.0042 -0.1188
  112OSM    H7S11625   3.713   5.210  10.110  0.2495  3.4375  2.8027
  112OSM    H7T11626   3.828   5.073  10.149  2.1084  0.3661  0.7222
  112OSM    C8S11627   3.885   5.188   9.988 -0.8927 -0.4966 -0.8459
  112OSM    H8S11628   3.993   5.162   9.994 -0.2827  1.5881 -2.2772
  112OSM    H8T11629   3.880   5.294   9.956  0.8035 -0.1821 -0.1062
  112OSM    C9S11630   3.817   5.103   9.877  0.8346 -0.2500  0.1668
  112OSM    H9S11631   3.711   5.133   9.883  0.5459 -0.4093 -3.2135
  112OSM    H9T11632   3.843   4.995   9.880  2.0926 -0.0139 -1.3709
  112OSM   C10S11633   3.866   5.152   9.740  0.1420  0.4295 -0.1817
  112OSM   H10S11634   3.974   5.131   9.726  0.0867 -0.1548  0.2612
  112OSM   H10T11635   3.847   5.262   9.741 -0.9557  0.2686 -1.2928
  112OSM   C11S11636   3.798   5.075   9.631  0.0988 -0.0578 -0.3993
  112OSM   H11S11637   3.690   5.099   9.643  0.3190  0.7098  0.0933
  112OSM   H11T11638   3.815   4.969   9.661  0.4659  0.0369 -0.2814
  112OSM   C12S11639   3.843   5.108   9.489 -0.0383  0.2308  0.2509
  112OSM   H12S11640   3.954   5.106   9.491 -0.0170 -0.1747 -0.9228
  112OSM   H12T11641   3.818   5.214   9.467 -0.7263  0.2760  1.2294
  112OSM   C13S11642   3.785   5.016   9.376 -0.5683 -1.2129  0.6877
  112OSM   H13S11643   3.674   5.009   9.371 -0.6903 -0.3502  2.1031
  112OSM   H13T11644   3.834   4.918   9.395  2.5449 -0.2393 -1.8215
  112OSM   C14S11645   3.843   5.061   9.244  1.0906 -0.5965  0.2753
  112OSM   H14S11646   3.953   5.057   9.257  1.2031  0.4764 -0.2722
  112OSM   H14T11647   3.796   5.160   9.223  1.3290  0.0413  2.6008
  112OSM   C15S11648   3.799   4.970   9.125 -0.0086  1.2250  0.0855
  112OSM   H15S11649   3.689   4.973   9.114  0.1065  3.9509 -0.8886
  112OSM   H15T11650   3.821   4.862   9.140 -2.0755  0.3856 -2.5583
  112OSM   C16S11651   3.861   4.997   8.981 -0.2052 -0.3268 -0.2521
  112OSM   H16S11652   3.952   4.940   8.956  0.5273  0.5156  0.4459
  112OSM   H16T11653   3.895   5.103   8.978  2.5125 -1.1084  1.3245
  112OSM   C17S11654   3.765   4.972   8.862 -0.4530 -0.2972  0.2538
  112OSM   H17S11655   3.681   5.045   8.865 -0.5560 -0.4359  0.6623
  112OSM   H17T11656   3.719   4.871   8.870 -0.2666 -0.1976  2.8148
  112OSM   C18S11657   3.840   4.988   8.730 -0.3563  0.3823  0.3426
  112OSM   H18S11658   3.925   4.917   8.721 -1.2563 -0.4486 -2.0450
  112OSM   H18T11659   3.871   5.092   8.707 -2.5167  0.6820 -1.3628
  112OSM   H18U11660   3.765   4.963   8.652  2.2118 -0.6825 -1.8606
  112OSM    C1F11661   3.805   5.619  10.640 -0.1730 -0.8232  0.3610
  112OSM     OF11662   3.868   5.645  10.745 -0.0619  0.1443 -0.1664
  112OSM    C2F11663   3.749   5.733  10.553  0.1407 -0.3296 -0.8557
  112OSM    H2F11664   3.686   5.789  10.626  1.1968  0.0763 -0.2487
  112OSM    H2G11665   3.682   5.691  10.475 -2.6737 -0.9775  1.8343
  112OSM    C3F11666   3.864   5.807  10.488 -0.0445 -0.0795 -0.5187
  112OSM    H3F11667   3.948   5.809  10.561 -2.7841 -1.9250  2.8363
  112OSM    H3G11668   3.826   5.908  10.461  4.2309  1.4929 -1.1256
  112OSM    C4F11669   3.920   5.736  10.359  0.5613  0.5294 -0.7843
  112OSM    H4F11670   3.836   5.729  10.287  0.3311 -0.5166 -0.4259
  112OSM    H4G11671   3.959   5.635  10.386  0.0702 -0.6893 -4.4613
  112OSM    C5F11672   4.022   5.823  10.291 -0.4434 -0.2563 -0.1862
  112OSM    H5F11673   4.098   5.861  10.362  1.0741  1.2972 -2.5536
  112OSM    H5G11674   3.960   5.906  10.251  0.0569  1.6261  2.8074
  112OSM    C6F11675   4.103   5.767  10.172 -0.2493  0.8598  0.7139
  112OSM    H6F11676   4.168   5.692  10.223 -2.4633  0.0878  2.4700
  112OSM    H6G11677   4.159   5.849  10.123  0.5128 -0.8564 -1.3540
  112OSM    C7F11678   4.003   5.708  10.072 -0.1242  0.6243  0.2751
  112OSM    H7F11679   3.930   5.787  10.045 -0.8000  0.1318  0.6279
  112OSM    H7G11680   3.957   5.614  10.109 -1.1316  1.2683  0.7029
  112OSM    C8F11681   4.050   5.665   9.930 -0.2499 -0.2809 -0.4406
  112OSM    H8F11682   4.144   5.607   9.942  0.8696  1.5246 -0.3706
  112OSM    H8G11683   4.090   5.764   9.902  0.6491 -1.0317 -1.9172
  112OSM    C9F11684   3.933   5.619   9.839  0.9326 -0.4333  0.2869
  112OSM    H9F11685   3.834   5.608   9.885  0.9718 -2.2955 -0.0104
  112OSM   C10F11686   3.939   5.591   9.706  0.4185  0.0813  0.0257
  112OSM   H10F11687   3.840   5.581   9.660 -0.6678  1.5515  1.9209
  112OSM   C11F11688   4.072   5.597   9.631 -0.0600 -0.1308  0.0960
  112OSM   H11F11689   4.155   5.588   9.704  1.8637  0.1253 -2.0273
  112OSM   H11G11690   4.081   5.702   9.596  1.0687 -0.1594  0.2813
  112OSM   C12F11691   4.062   5.499   9.518 -0.5188 -0.6968  0.6029
  112OSM   H12F11692   4.017   5.402   9.549 -0.6935 -0.6852  0.3936
  112OSM   H12G11693   4.162   5.503   9.470 -0.6781  3.2920  0.3853
  112OSM   C13F11694   3.959   5.553   9.408  0.2973  0.0254  0.3210
  112OSM   H13F11695   3.979   5.660   9.387  1.2299 -0.2206 -0.0812
  112OSM   H13G11696   3.855   5.547   9.446 -0.1410 -0.2683 -0.9302
  112OSM   C14F11697   3.968   5.472   9.283  0.2902 -0.1035  0.3115
  112OSM   H14F11698   4.008   5.370   9.301  0.9414 -0.1530 -1.2968
  112OSM   H14G11699   4.051   5.515   9.223 -1.6540  3.3964  0.0210
  112OSM   C15F11700   3.836   5.460   9.202  0.2192 -0.1786  0.9575
  112OSM   H15F11701   3.791   5.559   9.184  0.8382  0.0859  0.8361
  112OSM   H15G11702   3.770   5.384   9.248 -1.5192  1.5964  1.4376
  112OSM   C16F11703   3.861   5.415   9.052 -0.3002 -0.2124  0.3043
  112OSM   H16F11704   3.908   5.314   9.061  1.1631  0.2553 -1.6524
  112OSM   H16G11705   3.933   5.483   9.001 -0.6690 -1.2474 -1.6711
  112OSM   C17F11706   3.736   5.380   8.956 -0.1672 -0.1033 -0.8535
  112OSM   H17F11707   3.665   5.329   9.024 -1.3588  2.3147 -0.2079
  112OSM   H17G11708   3.762   5.321   8.865 -1.1136 -2.9241  0.6595
  112OSM   C18F11709   3.681   5.508   8.888  0.8278  0.0666  0.1426
  112OSM   H18F11710   3.749   5.561   8.817  0.0509  0.7552 -0.0930
  112OSM   H18G11711   3.650   5.590   8.957 -1.6104 -0.4025 -0.3526
  112OSM   H18H11712   3.588   5.489   8.830  1.4979 -0.8757 -0.6370
  113OSM      N11713   0.367   0.900  11.132  0.2058 -0.6951 -0.0459
  113OSM    C1511714   0.329   0.866  11.272 -0.5400  0.2981 -0.1109
  113OSM   H15A11715   0.230   0.824  11.283 -1.0775  1.0216 -1.9892
  113OSM   H15B11716   0.340   0.945  11.345  0.7135  2.4700 -2.5748
  113OSM   H15C11717   0.396   0.794  11.315 -1.4142  0.2823  1.2537
  113OSM    C1411718   0.507   0.946  11.123 -0.3081  0.6529  0.1227
  113OSM   H14A11719   0.520   0.980  11.021 -1.1948 -0.7579 -0.4888
  113OSM   H14B11720   0.577   0.865  11.137 -0.8451  0.4027  1.3837
  113OSM   H14C11721   0.536   1.022  11.194  0.0753  2.6706 -2.1423
  113OSM    C1311722   0.361   0.775  11.042  0.4855  1.2675  0.2456
  113OSM   H13A11723   0.282   0.706  11.070  0.1071  1.2465 -0.8473
  113OSM   H13B11724   0.452   0.719  11.055 -0.7042 -0.9838 -0.8011
  113OSM   H13C11725   0.359   0.804  10.938 -0.0002  1.7223  0.3789
  113OSM    C1211726   0.261   0.998  11.071  0.1354  0.1210 -0.0099
  113OSM   H12A11727   0.267   1.093  11.123 -2.1776  0.6348 -0.6623
  113OSM   H12B11728   0.169   0.953  11.104  0.3218  0.1926  0.6180
  113OSM    C1111729   0.267   1.042  10.926 -0.3922 -0.3684  0.5037
  113OSM   H11A11730   0.173   1.091  10.893 -0.2251 -0.4853 -0.1436
  113OSM   H11B11731   0.298   0.962  10.857  3.4509 -0.0917  1.7998
  113OSM      P11732   0.353   1.294  10.937  0.1333 -0.1021  0.5253
  113OSM    O1311733   0.281   1.325  11.067 -0.7628 -0.0803  0.5786
  113OSM    O1411734   0.483   1.358  10.917  0.0846 -0.3241  0.2077
  113OSM    O1111735   0.262   1.346  10.824 -0.1362  0.1258 -0.3861
  113OSM    O1211736   0.378   1.137  10.921 -0.2940  0.3572 -0.2622
  113OSM    C1S11737   0.309   1.353  10.687  0.2548  0.6275 -0.0659
  113OSM    H1S11738   0.260   1.273  10.627 -0.5165  1.3206 -0.3597
  113OSM    H1T11739   0.419   1.335  10.678  0.1853 -0.9429  1.9099
  113OSM     NF11740   0.332   1.492  10.489 -0.9555  0.2419 -1.0948
  113OSM    HNF11741   0.421   1.536  10.493 -0.9020  0.0772 -0.4207
  113OSM    C2S11742   0.272   1.489  10.624  0.1333  0.9666 -0.4017
  113OSM    H2S11743   0.163   1.503  10.605 -0.0453  2.1497  1.4086
  113OSM    C3S11744   0.306   1.612  10.719 -0.2543 -0.3640  0.1366
  113OSM    H3S11745   0.414   1.612  10.747 -0.2011  1.8522  0.0106
  113OSM     O311746   0.228   1.618  10.835  0.3343 -0.1006  0.3010
  113OSM    HO311747   0.192   1.529  10.840 -3.8326  1.2870 -1.8013
  113OSM    C4S11748   0.285   1.746  10.647 -0.4214  0.0865 -0.3572
  113OSM    H4S11749   0.179   1.754  10.617 -1.2683 -1.2223  2.0533
  113OSM    C5S11750   0.379   1.834  10.622 -0.2299 -0.1896 -0.1315
  113OSM    H5S11751   0.480   1.806  10.657  0.3893  0.1702 -1.5857
  113OSM    C6S11752   0.366   1.968  10.558 -0.5200  0.5317 -0.9882
  113OSM    H6S11753   0.396   2.035  10.642  1.1873 -0.4252 -0.8066
  113OSM    H6T11754   0.264   2.007  10.536  0.5016  3.9755  0.0301
  113OSM    C7S11755   0.455   2.002  10.437  0.5262 -0.4376  0.5056
  113OSM    H7S11756   0.423   1.947  10.346  0.9506  0.6516 -0.3135
  113OSM    H7T11757   0.555   1.965  10.466  0.7228  0.7474  1.3316
  113OSM    C8S11758   0.447   2.156  10.403 -0.4328  0.3914  0.4746
  113OSM    H8S11759   0.475   2.203  10.500 -1.4198 -1.6524  1.7813
  113OSM    H8T11760   0.339   2.176  10.385 -0.7255  0.2224  1.9467
  113OSM    C9S11761   0.542   2.208  10.287  0.1990 -0.2585  0.5570
  113OSM    H9S11762   0.638   2.239  10.332  1.1770 -3.6794  0.9138
  113OSM    H9T11763   0.497   2.305  10.255 -0.2460 -0.8616 -0.6943
  113OSM   C10S11764   0.557   2.125  10.157 -0.4196  0.2937 -0.4176
  113OSM   H10S11765   0.475   2.051  10.147 -0.8896  0.8708 -0.7878
  113OSM   H10T11766   0.647   2.068  10.190 -1.0847 -0.1234  0.7131
  113OSM   C11S11767   0.592   2.199  10.028  0.6274 -0.4650 -0.4178
  113OSM   H11S11768   0.653   2.286  10.058  1.6986 -0.3381 -2.8195
  113OSM   H11T11769   0.505   2.255   9.988  0.1273 -0.4153  0.7288
  113OSM   C12S11770   0.641   2.119   9.915  0.3039  0.0617  0.8244
  113OSM   H12S11771   0.553   2.059   9.882  1.1971 -1.0889  0.4819
  113OSM   H12T11772   0.716   2.042   9.943 -1.4412 -1.8558  0.4046
  113OSM   C13S11773   0.684   2.190   9.786  0.3878  0.4033  0.4616
  113OSM   H13S11774   0.772   2.256   9.806 -1.8204  3.2621  1.0963
  113OSM   H13T11775   0.600   2.253   9.749  1.1557  1.4724  0.5063
  113OSM   C14S11776   0.717   2.076   9.688  0.6098  0.5800 -0.2549
  113OSM   H14S11777   0.624   2.029   9.649  1.6887 -0.0287 -2.1982
  113OSM   H14T11778   0.759   1.983   9.731  0.4401  1.1049  1.0507
  113OSM   C15S11779   0.798   2.121   9.566 -0.5424  0.5879  0.0621
  113OSM   H15S11780   0.867   2.200   9.602 -0.8652 -0.3076  2.7354
  113OSM   H15T11781   0.727   2.141   9.482  0.9975  1.3307 -1.0742
  113OSM   C16S11782   0.885   2.008   9.505  0.3831  0.8019  0.0337
  113OSM   H16S11783   0.829   1.925   9.458  0.8704  0.6192 -0.2207
  113OSM   H16T11784   0.947   1.956   9.582 -0.4565 -1.5233 -0.8138
  113OSM   C17S11785   0.987   2.050   9.391  0.1483 -0.1415  0.6274
  113OSM   H17S11786   1.043   2.129   9.445  1.8283  0.4283 -1.8667
  113OSM   H17T11787   0.936   2.103   9.308  1.3545 -2.2705 -1.5476
  113OSM   C18S11788   1.076   1.946   9.340 -0.6118  0.5079 -0.0032
  113OSM   H18S11789   1.170   1.985   9.294 -1.2927  0.6601 -1.2764
  113OSM   H18T11790   1.030   1.872   9.271  2.6698 -2.0165  0.3607
  113OSM   H18U11791   1.112   1.881   9.422  0.1913  1.5774  0.5065
  113OSM    C1F11792   0.282   1.418  10.395  0.5291 -0.0048 -0.7865
  113OSM     OF11793   0.192   1.336  10.419 -0.1923  0.3319 -0.6234
  113OSM    C2F11794   0.348   1.431  10.261  0.0806 -0.5751  0.3384
  113OSM    H2F11795   0.265   1.425  10.187 -0.4404 -2.0349  1.0186
  113OSM    H2G11796   0.417   1.345  10.247  0.8421 -0.0600  0.8924
  113OSM    C3F11797   0.415   1.571  10.241 -0.3473 -0.2377  0.6959
  113OSM    H3F11798   0.505   1.584  10.306  0.1703  0.0583 -0.0707
  113OSM    H3G11799   0.342   1.654  10.250 -1.7234 -1.3220 -0.2569
  113OSM    C4F11800   0.472   1.586  10.103  0.0773 -0.0955 -0.2373
  113OSM    H4F11801   0.385   1.574  10.036 -0.7591  1.9964  0.4398
  113OSM    H4G11802   0.550   1.508  10.091 -1.4998 -1.9388  1.2986
  113OSM    C5F11803   0.543   1.726  10.088  0.2071  0.3215  0.1669
  113OSM    H5F11804   0.610   1.736  10.177  2.6630 -2.5153 -1.2983
  113OSM    H5G11805   0.468   1.806  10.104 -1.2412 -0.8123 -0.8159
  113OSM    C6F11806   0.627   1.748   9.968 -0.5390 -0.3532 -0.0284
  113OSM    H6F11807   0.712   1.677   9.961  0.7972  1.2649 -0.3055
  113OSM    H6G11808   0.674   1.848   9.976 -0.0355 -0.6337  0.5751
  113OSM    C7F11809   0.542   1.753   9.841  0.3488 -1.1254 -0.4816
  113OSM    H7F11810   0.471   1.838   9.841  0.9671 -0.5927 -1.4749
  113OSM    H7G11811   0.476   1.664   9.846 -0.9575 -0.1698 -0.5579
  113OSM    C8F11812   0.615   1.729   9.710  0.3436 -0.1329  0.2407
  113OSM    H8F11813   0.676   1.637   9.722  0.6064  0.0029 -0.0220
  113OSM    H8G11814   0.683   1.815   9.693  2.1703 -1.3455  1.2096
  113OSM    C9F11815   0.510   1.701   9.605  0.6639  0.4743  0.1301
  113OSM    H9F11816   0.414   1.683   9.655  0.1597  0.9043 -0.6649
  113OSM   C10F11817   0.520   1.685   9.471 -0.6619 -0.2936 -0.0676
  113OSM   H10F11818   0.436   1.668   9.403  0.8117  0.2233 -2.0847
  113OSM   C11F11819   0.654   1.700   9.405  0.8883 -0.5640  0.6889
  113OSM   H11F11820   0.728   1.714   9.487 -1.1909  0.1050  2.5247
  113OSM   H11G11821   0.660   1.793   9.345 -1.2016  1.2729  3.1728
  113OSM   C12F11822   0.692   1.591   9.311  0.0299 -1.0494 -0.6827
  113OSM   H12F11823   0.708   1.492   9.357  0.1419 -0.9076 -0.4187
  113OSM   H12G11824   0.785   1.620   9.256 -0.3718  1.0196 -0.3287
  113OSM   C13F11825   0.589   1.566   9.196 -0.4352  0.1387  0.0900
  113OSM   H13F11826   0.484   1.566   9.231  0.1617 -0.5802  1.9828
  113OSM   H13G11827   0.598   1.467   9.147  0.4071  0.7615 -1.0230
  113OSM   C14F11828   0.597   1.665   9.070  0.5560 -0.5132 -0.3979
  113OSM   H14F11829   0.678   1.638   8.998 -1.5020 -2.1160 -2.2041
  113OSM   H14G11830   0.621   1.766   9.110  2.9455 -1.9162  1.9043
  113OSM   C15F11831   0.467   1.662   8.986 -0.3317 -0.1159 -0.5074
  113OSM   H15F11832   0.378   1.677   9.051  0.1207  2.0079 -0.3376
  113OSM   H15G11833   0.446   1.556   8.960  0.0684 -0.3085 -0.0412
  113OSM   C16F11834   0.465   1.773   8.879  0.1791  0.3514  0.2381
  113OSM   H16F11835   0.524   1.756   8.787 -1.7996  0.4078 -1.0604
  113OSM   H16G11836   0.488   1.873   8.922 -1.1744  1.2325 -1.0446
  113OSM   C17F11837   0.327   1.798   8.815  0.0489  0.0678  0.8475
  113OSM   H17F11838   0.347   1.890   8.756 -0.5072 -0.1878  0.2434
  113OSM   H17G11839   0.250   1.809   8.894 -0.3650 -1.3713  0.6675
  113OSM   C18F11840   0.270   1.694   8.708 -0.0061 -0.3201 -0.4741
  113OSM   H18F11841   0.160   1.704   8.691 -0.0480 -1.9529 -1.2235
  113OSM   H18G11842   0.291   1.592   8.747  1.0324 -0.5873 -1.7186
  113OSM   H18H11843   0.315   1.688   8.607 -0.4776 -1.3868 -0.6300
  114OSM      N11844   2.808   5.610  11.075  0.2389  0.4407  0.4648
  114OSM    C1511845   2.843   5.665  11.215  0.3373  0.6696 -1.1820
  114OSM   H15A11846   2.769   5.634  11.287  0.4708  1.0573 -0.8744
  114OSM   H15B11847   2.830   5.772  11.211 -1.9107  0.4695  0.0397
  114OSM   H15C11848   2.946   5.649  11.244  0.1656  1.2882 -0.1844
  114OSM    C1411849   2.682   5.672  11.029  0.2134 -0.1996  0.0133
  114OSM   H14A11850   2.706   5.777  11.028  0.5885 -0.2857 -1.0344
  114OSM   H14B11851   2.603   5.645  11.097  0.7601  1.5768  1.4170
  114OSM   H14C11852   2.666   5.630  10.931  2.7806  0.7673 -0.8743
  114OSM    C1311853   2.912   5.638  10.969 -0.1652  0.1330 -0.5974
  114OSM   H13A11854   2.869   5.617  10.872  0.1034 -0.3636 -0.6092
  114OSM   H13B11855   3.004   5.582  10.975 -1.0414 -1.4730 -1.5811
  114OSM   H13C11856   2.941   5.741  10.980 -1.4036  0.2974  1.3057
  114OSM    C1211857   2.805   5.461  11.093  0.3364  0.2028  0.1740
  114OSM   H12A11858   2.737   5.440  11.175 -0.7642  1.6725 -0.3517
  114OSM   H12B11859   2.904   5.427  11.123  0.3266  0.2653  0.2770
  114OSM    C1111860   2.756   5.372  10.976  0.9511  0.7141 -0.8253
  114OSM   H11A11861   2.748   5.268  11.015 -2.0897  0.0113 -3.2020
  114OSM   H11B11862   2.828   5.375  10.892  3.0583 -0.5101  0.8706
  114OSM      P11863   2.491   5.376  11.012 -0.1637 -0.1769  0.2690
  114OSM    O1311864   2.529   5.336  11.150  0.2633 -0.4402 -0.3302
  114OSM    O1411865   2.399   5.487  11.008 -0.0151  0.2139 -0.0657
  114OSM    O1111866   2.439   5.255  10.925 -0.0401  0.4752 -0.0568
  114OSM    O1211867   2.626   5.407  10.928  0.2852  0.3718  0.1962
  114OSM    C1S11868   2.374   5.256  10.797  0.2791 -1.2795  0.3621
  114OSM    H1S11869   2.306   5.344  10.802  1.6620 -0.1835 -0.1261
  114OSM    H1T11870   2.307   5.169  10.778 -0.8824 -0.5859  1.1640
  114OSM     NF11871   2.400   5.324  10.553  0.1886 -0.0821  0.1914
  114OSM    HNF11872   2.414   5.254  10.484  1.9438 -0.1690  0.6030
  114OSM    C2S11873   2.468   5.278  10.673  0.1339  0.2878 -0.0531
  114OSM    H2S11874   2.529   5.365  10.704 -1.0726  1.2392 -0.2927
  114OSM    C3S11875   2.558   5.148  10.664  0.8449 -0.3892 -0.4711
  114OSM    H3S11876   2.500   5.068  10.614  0.4334  0.2507 -1.0214
  114OSM     O311877   2.621   5.099  10.790 -0.3049 -0.5774  0.2327
  114OSM    HO311878   2.601   5.174  10.846 -2.2106  0.0147 -1.1711
  114OSM    C4S11879   2.670   5.172  10.565  0.2327 -0.0327  0.3688
  114OSM    H4S11880   2.657   5.144  10.459 -1.3470  2.4260 -0.1245
  114OSM    C5S11881   2.800   5.209  10.595  0.0838 -0.6426 -0.2321
  114OSM    H5S11882   2.831   5.228  10.699  0.7735 -0.4263 -0.4702
  114OSM    C6S11883   2.916   5.220  10.497  0.5213  0.0034  0.5552
  114OSM    H6S11884   3.005   5.167  10.536  0.7430  0.0754  0.1550
  114OSM    H6T11885   2.939   5.327  10.475  2.7294 -0.1745  1.8697
  114OSM    C7S11886   2.893   5.148  10.365 -0.1828  0.7355 -0.0201
  114OSM    H7S11887   2.824   5.199  10.295 -0.2102  2.0353  0.9349
  114OSM    H7T11888   2.850   5.049  10.391  3.1786 -0.9565 -0.5347
  114OSM    C8S11889   3.025   5.124  10.288  0.1124 -0.2025 -0.6950
  114OSM    H8S11890   3.089   5.059  10.352  2.2113  2.3052 -0.1947
  114OSM    H8T11891   3.085   5.216  10.273  2.8501 -2.0911 -1.9502
  114OSM    C9S11892   3.005   5.055  10.162 -0.0537  0.0076  0.1441
  114OSM    H9S11893   2.927   4.978  10.180  1.4142 -1.6076 -0.1856
  114OSM    H9T11894   3.096   4.999  10.129  0.9868  0.2734  2.4937
  114OSM   C10S11895   2.959   5.147  10.048 -0.0253 -0.5191  0.4494
  114OSM   H10S11896   3.042   5.221  10.041 -1.9890  1.8827  1.8981
  114OSM   H10T11897   2.866   5.196  10.083  1.4264  2.3524  0.4392
  114OSM   C11S11898   2.921   5.070   9.921  0.3893  0.4837  0.0552
  114OSM   H11S11899   2.816   5.037   9.934  0.9886 -0.4281  2.9557
  114OSM   H11T11900   2.982   4.977   9.923  1.0265  0.8775 -0.5627
  114OSM   C12S11901   2.949   5.139   9.787  0.1102  0.3317  0.3328
  114OSM   H12S11902   3.057   5.162   9.784 -0.0078  0.8793  0.1957
  114OSM   H12T11903   2.895   5.236   9.799 -0.6517 -0.1655  1.0160
  114OSM   C13S11904   2.912   5.064   9.655 -0.1548 -0.0436 -0.3853
  114OSM   H13S11905   2.807   5.026   9.651 -0.3609  0.6312 -1.9528
  114OSM   H13T11906   2.976   4.977   9.628 -1.8417 -1.4930  0.1951
  114OSM   C14S11907   2.919   5.147   9.531  0.0257  0.1638  0.1377
  114OSM   H14S11908   3.021   5.190   9.535  1.1349 -2.3833  0.3695
  114OSM   H14T11909   2.846   5.229   9.546 -0.8962 -0.9813  2.2891
  114OSM   C15S11910   2.888   5.078   9.400 -0.8964 -0.6700 -0.3773
  114OSM   H15S11911   2.785   5.040   9.388 -1.1956 -0.0407  0.1929
  114OSM   H15T11912   2.950   4.985   9.391 -0.0211 -0.3385  1.9988
  114OSM   C16S11913   2.912   5.175   9.273  0.0503  0.1867  0.3918
  114OSM   H16S11914   3.007   5.229   9.294 -1.3511  1.2367  4.5193
  114OSM   H16T11915   2.831   5.251   9.263  0.1946  0.0003 -2.6972
  114OSM   C17S11916   2.923   5.095   9.146  0.1205 -0.2471  0.6024
  114OSM   H17S11917   2.834   5.030   9.129  1.8022 -2.8264  1.3709
  114OSM   H17T11918   3.004   5.022   9.164  1.6288  0.6735 -2.1356
  114OSM   C18S11919   2.944   5.177   9.016  0.2694 -0.3197  0.3279
  114OSM   H18S11920   3.020   5.256   9.032  0.7477 -0.3587 -1.6479
  114OSM   H18T11921   2.854   5.238   8.990 -0.1315 -1.0215  0.0508
  114OSM   H18U11922   2.968   5.113   8.928  1.2696 -0.1394  0.4649
  114OSM    C1F11923   2.325   5.433  10.536  0.1298 -0.3162 -0.3810
  114OSM     OF11924   2.275   5.486  10.634  0.0845  0.3998 -0.3634
  114OSM    C2F11925   2.302   5.470  10.396  0.3807  0.4910 -0.9698
  114OSM    H2F11926   2.354   5.398  10.330 -1.1690 -1.7967  0.2311
  114OSM    H2G11927   2.345   5.572  10.383 -1.9360  1.9041  1.8388
  114OSM    C3F11928   2.146   5.484  10.374 -0.1906 -0.3109 -0.7052
  114OSM    H3F11929   2.118   5.565  10.444 -0.4818  0.5742 -1.8370
  114OSM    H3G11930   2.096   5.393  10.413 -2.5038  1.7760  1.3324
  114OSM    C4F11931   2.115   5.531  10.235  0.1675 -0.8936 -0.1319
  114OSM    H4F11932   2.171   5.625  10.213  0.5780 -1.1291 -0.1055
  114OSM    H4G11933   2.008   5.530  10.205 -0.6962  0.9562  2.7312
  114OSM    C5F11934   2.174   5.440  10.123 -0.0317  0.3432 -0.0370
  114OSM    H5F11935   2.155   5.331  10.133 -0.2658  0.4655  0.8117
  114OSM    H5G11936   2.285   5.442  10.129  0.1406 -0.1585 -2.3381
  114OSM    C6F11937   2.126   5.488   9.978  0.1261 -1.2991 -0.0656
  114OSM    H6F11938   2.180   5.583   9.959 -2.1440  0.1825  0.8383
  114OSM    H6G11939   2.018   5.512   9.977  0.5056  0.4143 -1.1527
  114OSM    C7F11940   2.158   5.386   9.863  0.0452 -0.4121 -0.0150
  114OSM    H7F11941   2.093   5.297   9.874  1.0641 -1.0378  1.1144
  114OSM    H7G11942   2.260   5.346   9.881 -0.6842 -1.3103  2.2873
  114OSM    C8F11943   2.154   5.443   9.718  0.1542 -0.2753 -0.3500
  114OSM    H8F11944   2.197   5.379   9.638 -2.4628 -0.0553 -1.9922
  114OSM    H8G11945   2.215   5.536   9.716 -1.6580  1.0623  2.1506
  114OSM    C9F11946   2.011   5.480   9.681 -1.3447 -0.4094  0.0871
  114OSM    H9F11947   1.953   5.498   9.772  1.0228  2.3963  1.1226
  114OSM   C10F11948   1.957   5.472   9.562  0.0337  0.4194 -0.0987
  114OSM   H10F11949   1.847   5.470   9.564  0.0672 -2.1614  0.1622
  114OSM   C11F11950   2.025   5.434   9.432  0.0557  0.2607  0.4172
  114OSM   H11F11951   2.133   5.460   9.430 -0.0359  0.5961 -0.0724
  114OSM   H11G11952   1.981   5.502   9.356 -2.2988 -0.7401  0.8403
  114OSM   C12F11953   1.993   5.283   9.400  0.7957  0.2054 -0.4054
  114OSM   H12F11954   1.882   5.287   9.397  0.7859 -0.2224 -0.6845
  114OSM   H12G11955   2.026   5.210   9.477 -1.3348  0.7446  1.0432
  114OSM   C13F11956   2.046   5.242   9.254 -0.0440 -0.5747  0.0561
  114OSM   H13F11957   2.155   5.260   9.262  0.0801 -1.3832  0.2164
  114OSM   H13G11958   2.008   5.316   9.180  0.3206 -0.3404  0.1022
  114OSM   C14F11959   2.007   5.098   9.218 -0.3927 -0.3424  0.6150
  114OSM   H14F11960   1.901   5.099   9.184 -0.3738  0.6154  0.5801
  114OSM   H14G11961   2.020   5.031   9.306  0.9505  0.5826  1.1491
  114OSM   C15F11962   2.085   5.052   9.100  0.3991  0.8087 -0.2833
  114OSM   H15F11963   2.194   5.075   9.110  0.8173 -1.7509  1.5661
  114OSM   H15G11964   2.054   5.112   9.012  0.1035  0.1701 -0.6212
  114OSM   C16F11965   2.058   4.897   9.078 -0.3152  0.4215  0.4305
  114OSM   H16F11966   1.955   4.866   9.053 -0.0695 -0.7123  0.7842
  114OSM   H16G11967   2.083   4.849   9.175 -0.0987  1.2868  0.8099
  114OSM   C17F11968   2.136   4.845   8.955 -0.4576  0.1054  0.6142
  114OSM   H17F11969   2.241   4.874   8.976 -1.0594  0.4156  3.4048
  114OSM   H17G11970   2.103   4.897   8.862 -1.7468 -4.8901 -1.8967
  114OSM   C18F11971   2.133   4.688   8.947 -0.4346 -0.2998 -0.9486
  114OSM   H18F11972   2.031   4.651   8.923 -0.0184 -2.3752  0.3746
  114OSM   H18G11973   2.154   4.649   9.049  0.0174  1.2849 -0.4269
  114OSM   H18H11974   2.208   4.641   8.880  0.8225 -0.4215  0.5108
  115OSM      N11975   0.127   3.678  10.981  0.0206  0.2776  0.3188
  115OSM    C1511976   0.221   3.696  10.860  0.1690  1.0726  0.3995
  115OSM   H15A11977   0.268   3.602  10.835 -0.5863  0.6025  0.7180
  115OSM   H15B11978   0.292   3.774  10.881  0.3639  0.4422  2.1332
  115OSM   H15C11979   0.172   3.731  10.770  1.5855  1.1520 -0.3546
  115OSM    C1411980   0.221   3.622  11.085 -0.1422  0.2091  0.3793
  115OSM   H14A11981   0.171   3.591  11.175 -0.2112 -0.3996  0.1338
  115OSM   H14B11982   0.290   3.699  11.116  1.1951 -1.1170  0.7493
  115OSM   H14C11983   0.284   3.540  11.052  0.4131  1.4686 -1.7972
  115OSM    C1311984   0.078   3.811  11.035 -0.2905  0.6579  0.4340
  115OSM   H13A11985   0.155   3.887  11.037  0.5508 -0.1280 -1.1116
  115OSM   H13B11986   0.026   3.793  11.128 -0.4714 -1.1905 -0.0017
  115OSM   H13C11987   0.021   3.860  10.957  0.8752  3.1621  1.1083
  115OSM    C1211988   0.012   3.575  10.957 -0.4193 -0.3433 -0.4734
  115OSM   H12A11989  -0.013   3.560  11.061  3.2282 -0.7287  0.4419
  115OSM   H12B11990   0.058   3.483  10.925  0.0818 -0.3262  0.1732
  115OSM    C1111991  -0.110   3.619  10.873 -1.1696 -0.0886 -0.1099
  115OSM   H11A11992  -0.173   3.528  10.861  0.3180 -0.8156 -2.6884
  115OSM   H11B11993  -0.062   3.647  10.777 -0.0743  1.5415  0.9016
  115OSM      P11994  -0.280   3.703  11.047  0.3308 -0.0253 -0.1076
  115OSM    O1311995  -0.266   3.571  11.105  0.4247 -0.0502 -0.0217
  115OSM    O1411996  -0.265   3.818  11.144 -0.4337  0.1373  0.2372
  115OSM    O1111997  -0.424   3.707  10.991 -0.5548  0.0078 -0.0536
  115OSM    O1211998  -0.187   3.728  10.927 -0.3470  0.1396 -0.0989
  115OSM    C1S11999  -0.463   3.784  10.876  0.3842 -0.5479 -0.2649
  115OSM    H1S12000  -0.411   3.881  10.865  1.8647 -1.1291  1.3438
  115OSM    H1T12001  -0.574   3.794  10.874  0.5086  0.7346 -0.9842
  115OSM     NF12002  -0.506   3.780  10.628 -0.3220  0.0837 -0.4710
  115OSM    HNF12003  -0.604   3.772  10.610 -0.1056  0.6123 -1.9931
  115OSM    C2S12004  -0.457   3.702  10.739  0.1021 -0.1260 -0.2360
  115OSM    H2S12005  -0.350   3.673  10.723 -0.2164 -1.2640 -0.3581
  115OSM    C3S12006  -0.550   3.577  10.749 -0.1864  0.7424 -0.3816
  115OSM    H3S12007  -0.657   3.604  10.763 -1.2591 -3.3115 -0.2988
  115OSM     O312008  -0.517   3.493  10.853 -0.0759 -0.6657  0.6127
  115OSM    HO312009  -0.450   3.535  10.907  0.4881 -1.6242  0.6605
  115OSM    C4S12010  -0.534   3.500  10.617  0.3751 -0.9128 -0.4124
  115OSM    H4S12011  -0.438   3.449  10.604  1.7971  1.9285 -1.5528
  115OSM    C5S12012  -0.622   3.482  10.523  0.1671 -0.7642  0.4753
  115OSM    H5S12013  -0.723   3.525  10.531  1.5957  2.2678  3.4456
  115OSM    C6S12014  -0.577   3.419  10.393  0.3229 -0.6555  0.6339
  115OSM    H6S12015  -0.613   3.313  10.389  1.2162 -0.9023 -4.0065
  115OSM    H6T12016  -0.468   3.426  10.374  0.0952  0.3346 -0.3495
  115OSM    C7S12017  -0.650   3.496  10.279 -0.4053 -0.3940 -0.0569
  115OSM    H7S12018  -0.617   3.601  10.269  2.0365 -0.8383  2.5734
  115OSM    H7T12019  -0.760   3.501  10.293 -0.4950 -1.0804 -0.5044
  115OSM    C8S12020  -0.623   3.427  10.151  0.2818  0.0151  0.5548
  115OSM    H8S12021  -0.663   3.323  10.162 -0.0029  0.1107  0.4353
  115OSM    H8T12022  -0.515   3.431  10.127 -0.0175  0.7706 -0.7124
  115OSM    C9S12023  -0.697   3.472  10.024  0.7938 -0.1156 -0.1421
  115OSM    H9S12024  -0.711   3.582  10.027 -1.8076 -0.4041  0.0253
  115OSM    H9T12025  -0.794   3.418  10.014  1.7084 -1.5812 -1.3205
  115OSM   C10S12026  -0.616   3.435   9.898  0.2512  0.3990  0.1411
  115OSM   H10S12027  -0.575   3.333   9.911  0.3169  0.6824  2.2612
  115OSM   H10T12028  -0.531   3.504   9.884  0.1779  0.4848  0.1248
  115OSM   C11S12029  -0.705   3.444   9.772 -0.0035  0.2694 -0.3462
  115OSM   H11S12030  -0.714   3.555   9.773  2.0221  0.4505 -0.8425
  115OSM   H11T12031  -0.802   3.392   9.784  0.3234  0.1567  2.1651
  115OSM   C12S12032  -0.627   3.399   9.649  0.3969 -0.1532 -0.6406
  115OSM   H12S12033  -0.600   3.291   9.643  0.7475  0.0210 -2.6473
  115OSM   H12T12034  -0.538   3.465   9.641 -0.4673  1.0554 -0.4749
  115OSM   C13S12035  -0.712   3.431   9.521  0.4023  0.1500 -0.0681
  115OSM   H13S12036  -0.821   3.437   9.540  0.8183 -2.2425  3.7386
  115OSM   H13T12037  -0.708   3.346   9.449  0.5161  0.1363 -0.0455
  115OSM   C14S12038  -0.667   3.558   9.448  0.6576  0.3200  0.4925
  115OSM   H14S12039  -0.559   3.548   9.422  0.5343  1.1361 -0.3877
  115OSM   H14T12040  -0.678   3.653   9.505  0.6427  0.7663 -0.2370
  115OSM   C15S12041  -0.731   3.556   9.309 -0.2250  0.1112 -0.2053
  115OSM   H15S12042  -0.840   3.550   9.331 -0.6911  4.6800 -0.8217
  115OSM   H15T12043  -0.710   3.468   9.244 -0.8495 -0.4961  0.4022
  115OSM   C16S12044  -0.690   3.676   9.220  0.8944  0.2161 -0.8708
  115OSM   H16S12045  -0.580   3.677   9.205  1.0927  1.5757  0.5724
  115OSM   H16T12046  -0.737   3.766   9.266 -0.7955 -1.5103  0.8949
  115OSM   C17S12047  -0.748   3.672   9.073  0.6008  0.0421 -0.5764
  115OSM   H17S12048  -0.721   3.575   9.027 -0.3254 -0.2459 -0.5321
  115OSM   H17T12049  -0.693   3.750   9.016  0.6676  0.6403  0.2897
  115OSM   C18S12050  -0.897   3.699   9.062  1.0169  0.4946  0.3988
  115OSM   H18S12051  -0.932   3.651   8.968 -1.0740  2.0253  0.3688
  115OSM   H18T12052  -0.908   3.810   9.061  2.6612  0.6768  0.5389
  115OSM   H18U12053  -0.954   3.658   9.147 -0.2661  0.3186 -0.5255
  115OSM    C1F12054  -0.441   3.881  10.571 -0.1367  0.0012 -0.5498
  115OSM     OF12055  -0.325   3.898  10.594  0.1234  0.3207 -0.1013
  115OSM    C2F12056  -0.521   3.971  10.486 -0.3751 -0.3843  0.3777
  115OSM    H2F12057  -0.621   3.990  10.531 -1.1106 -3.0642 -0.0457
  115OSM    H2G12058  -0.537   3.916  10.391 -2.5614 -0.9376  1.0499
  115OSM    C3F12059  -0.445   4.107  10.470  0.2970 -0.4734  0.1462
  115OSM    H3F12060  -0.339   4.091  10.441 -0.7499 -0.5709 -3.8675
  115OSM    H3G12061  -0.460   4.157  10.569  0.5845 -2.1679  1.0676
  115OSM    C4F12062  -0.504   4.202  10.364  0.6629  0.7211 -0.0104
  115OSM    H4F12063  -0.455   4.301  10.351  1.3557  0.6155  1.6683
  115OSM    H4G12064  -0.610   4.215  10.393  0.3090 -1.0513 -0.4006
  115OSM    C5F12065  -0.515   4.140  10.217  0.3831  0.6369  0.2460
  115OSM    H5F12066  -0.601   4.070  10.206 -1.8792  3.4475 -0.7232
  115OSM    H5G12067  -0.422   4.086  10.188 -0.0414 -0.2081  0.4407
  115OSM    C6F12068  -0.527   4.233  10.093 -0.1903  0.7150  0.2329
  115OSM    H6F12069  -0.561   4.172  10.007  0.5483  0.9276 -0.2200
  115OSM    H6G12070  -0.437   4.290  10.061  0.8067 -0.8894  0.1282
  115OSM    C7F12071  -0.613   4.356  10.117  0.2038  0.3462 -0.3849
  115OSM    H7F12072  -0.598   4.425  10.031  1.1039 -1.4342 -1.6958
  115OSM    H7G12073  -0.568   4.403  10.207 -0.0405 -0.2894  0.0660
  115OSM    C8F12074  -0.762   4.333  10.149  0.5644 -0.2451  0.0228
  115OSM    H8F12075  -0.807   4.426  10.192  1.0522 -1.2036  2.7238
  115OSM    H8G12076  -0.765   4.257  10.230 -0.1496 -0.5657 -0.2998
  115OSM    C9F12077  -0.846   4.282  10.037 -0.4112  0.3362  0.1068
  115OSM    H9F12078  -0.804   4.192   9.990 -1.7883  0.0859 -0.6777
  115OSM   C10F12079  -0.951   4.343   9.984 -0.3170 -0.3056 -0.4327
  115OSM   H10F12080  -1.000   4.286   9.905 -0.3378 -1.4229  0.3715
  115OSM   C11F12081  -1.034   4.466  10.024 -0.7073  0.0607  0.7534
  115OSM   H11F12082  -0.967   4.544  10.065 -1.0068  0.9903 -0.5072
  115OSM   H11G12083  -1.106   4.425  10.098  1.1534 -3.2884  0.8053
  115OSM   C12F12084  -1.097   4.534   9.909 -0.7083 -0.1845  0.1610
  115OSM   H12F12085  -1.174   4.464   9.868 -0.9489 -0.8663  1.7558
  115OSM   H12G12086  -1.029   4.551   9.822  0.3704 -3.3067  0.3014
  115OSM   C13F12087  -1.170   4.668   9.940 -0.5226  0.1256 -0.1479
  115OSM   H13F12088  -1.086   4.731   9.975 -1.4415  1.1748  0.2058
  115OSM   H13G12089  -1.240   4.665  10.026  1.0108  1.5361  1.1759
  115OSM   C14F12090  -1.243   4.702   9.810 -0.2899 -0.3430 -0.2276
  115OSM   H14F12091  -1.343   4.743   9.833  0.3765  0.6717  0.9737
  115OSM   H14G12092  -1.269   4.608   9.757  1.9812 -0.7394 -0.7190
  115OSM   C15F12093  -1.161   4.792   9.710  0.2460 -0.3802  0.1617
  115OSM   H15F12094  -1.063   4.745   9.691  0.6608  0.3262  0.5385
  115OSM   H15G12095  -1.131   4.885   9.763  3.2019  0.1662 -2.3401
  115OSM   C16F12096  -1.236   4.839   9.584 -0.3625  0.1520 -0.2351
  115OSM   H16F12097  -1.336   4.884   9.601 -0.2244  0.5682 -0.5384
  115OSM   H16G12098  -1.260   4.749   9.523  1.2862 -0.2946 -0.2627
  115OSM   C17F12099  -1.154   4.926   9.492 -0.0345 -0.8751  0.4907
  115OSM   H17F12100  -1.069   4.875   9.442 -1.1006 -0.4562 -1.8111
  115OSM   H17G12101  -1.120   5.016   9.547 -0.3919  0.1283 -0.8905
  115OSM   C18F12102  -1.238   4.979   9.380  0.0396 -0.5666  0.2592
  115OSM   H18F12103  -1.164   5.024   9.309  1.4780  0.0672  2.1299
  115OSM   H18G12104  -1.319   5.050   9.406 -0.2813 -1.3198  1.3153
  115OSM   H18H12105  -1.284   4.893   9.326 -1.0323  0.6353 -0.7983
  116OSM      N12106   2.679   0.778  11.231  0.3223 -0.3878  0.1252
  116OSM    C1512107   2.781   0.671  11.264 -0.1984  0.5261  0.0997
  116OSM   H15A12108   2.872   0.709  11.309 -1.3217 -0.5947  3.5080
  116OSM   H15B12109   2.816   0.618  11.177 -0.2078 -0.0932  0.4716
  116OSM   H15C12110   2.738   0.604  11.336 -0.2988  1.4274  0.8915
  116OSM    C1412111   2.558   0.701  11.199  1.0266  0.1203  0.0945
  116OSM   H14A12112   2.478   0.758  11.154 -1.8369 -2.8015  1.3190
  116OSM   H14B12113   2.518   0.648  11.284  0.2278  2.1635  1.0235
  116OSM   H14C12114   2.590   0.633  11.121  0.5183 -1.9000  1.5939
  116OSM    C1312115   2.645   0.846  11.357 -0.3906  0.0243  0.1015
  116OSM   H13A12116   2.560   0.913  11.343  0.8853  1.8449  0.8831
  116OSM   H13B12117   2.724   0.907  11.398  0.0532 -1.1246  0.9780
  116OSM   H13C12118   2.617   0.778  11.436  1.1088 -0.9747 -0.2303
  116OSM    C1212119   2.711   0.880  11.121  0.3153 -0.1070  0.2295
  116OSM   H12A12120   2.797   0.938  11.151 -0.4218  1.4949 -0.7214
  116OSM   H12B12121   2.629   0.950  11.113  0.5757  0.4770  2.3844
  116OSM    C1112122   2.750   0.822  10.980  0.0840 -0.4125 -0.0138
  116OSM   H11A12123   2.727   0.908  10.912 -2.2989 -0.7212  0.3545
  116OSM   H11B12124   2.677   0.747  10.944 -0.4908 -1.2491  2.8191
  116OSM      P12125   3.005   0.878  10.973 -0.0305  0.2269  0.1327
  116OSM    O1312126   2.985   0.977  11.081  0.2086  0.2194 -0.4129
  116OSM    O1412127   3.130   0.790  10.991  0.6404  0.0889 -0.0358
  116OSM    O1112128   3.012   0.946  10.830  0.3642 -0.0933 -0.2976
  116OSM    O1212129   2.885   0.781  10.967  0.3339  0.0305  0.2573
  116OSM    C1S12130   3.037   0.845  10.722 -0.1457 -0.3090  0.1988
  116OSM    H1S12131   3.031   0.741  10.761  0.4035 -0.5945 -0.4864
  116OSM    H1T12132   3.143   0.854  10.693  0.3387  0.1528  2.0288
  116OSM     NF12133   2.956   0.734  10.509  0.4560 -0.3268  0.0861
  116OSM    HNF12134   3.016   0.738  10.430 -0.0774  1.5144 -0.2465
  116OSM    C2S12135   2.941   0.854  10.596  0.0745  0.1839  0.2086
  116OSM    H2S12136   2.835   0.858  10.630 -0.8482 -1.6286 -2.2838
  116OSM    C3S12137   2.959   0.993  10.530  0.1976 -1.3862  0.2360
  116OSM    H3S12138   3.062   0.999  10.488 -0.5881 -1.3155 -1.7393
  116OSM     O312139   2.941   1.107  10.616  0.1681 -0.0563 -0.7306
  116OSM    HO312140   2.933   1.066  10.702  1.8541 -0.4602 -0.7630
  116OSM    C4S12141   2.872   1.014  10.408  0.6318  0.5988  0.7550
  116OSM    H4S12142   2.765   1.003  10.430  1.0933 -1.5104  2.0964
  116OSM    C5S12143   2.916   1.039  10.282  0.0298  0.2083 -0.8193
  116OSM    H5S12144   3.023   1.061  10.263  0.5353  0.0290  1.5633
  116OSM    C6S12145   2.822   1.060  10.168 -0.3794  0.3972  0.0662
  116OSM    H6S12146   2.727   1.005  10.183  0.1799 -0.8612 -0.9428
  116OSM    H6T12147   2.864   1.001  10.083 -0.1704 -0.3875  0.7071
  116OSM    C7S12148   2.786   1.206  10.139 -0.1400  0.3685  0.1256
  116OSM    H7S12149   2.870   1.260  10.091  0.3601  0.5847  1.2237
  116OSM    H7T12150   2.765   1.266  10.230  0.6749  1.9638 -0.7214
  116OSM    C8S12151   2.667   1.210  10.040  0.4465  0.2234 -0.3919
  116OSM    H8S12152   2.624   1.313  10.041 -4.0546 -1.5571  1.2716
  116OSM    H8T12153   2.598   1.142  10.093 -0.7155  0.7525 -1.2139
  116OSM    C9S12154   2.700   1.171   9.897 -0.2758 -0.5545 -0.1113
  116OSM    H9S12155   2.603   1.166   9.843  0.0725 -0.4216 -0.7488
  116OSM    H9T12156   2.756   1.075   9.897 -0.8153 -0.8972 -2.9794
  116OSM   C10S12157   2.774   1.278   9.819 -0.1795 -0.4334 -0.4411
  116OSM   H10S12158   2.874   1.295   9.864 -0.1440  0.5920 -0.8821
  116OSM   H10T12159   2.711   1.370   9.821 -2.1206 -1.7635  1.1115
  116OSM   C11S12160   2.793   1.256   9.663  0.5454  0.0470  0.4798
  116OSM   H11S12161   2.694   1.240   9.616  1.3230  0.0426 -1.1625
  116OSM   H11T12162   2.860   1.168   9.656 -0.7925 -0.8257 -1.7487
  116OSM   C12S12163   2.867   1.374   9.599 -0.2701 -0.2278 -0.1642
  116OSM   H12S12164   2.957   1.403   9.657  0.5964 -2.0468 -0.5563
  116OSM   H12T12165   2.798   1.460   9.610 -0.3678 -0.5870  2.3429
  116OSM   C13S12166   2.894   1.358   9.451 -0.6909 -0.6806  0.0789
  116OSM   H13S12167   2.804   1.309   9.409  0.2375 -2.4051  0.0328
  116OSM   H13T12168   2.986   1.296   9.447 -0.1639  0.1795 -2.1247
  116OSM   C14S12169   2.917   1.498   9.382  0.6684  0.1213  0.2415
  116OSM   H14S12170   2.995   1.559   9.432  2.4038 -0.0016 -2.1887
  116OSM   H14T12171   2.823   1.558   9.389  0.6660  0.0958  0.4248
  116OSM   C15S12172   2.942   1.486   9.230  0.2942  0.4864 -0.2386
  116OSM   H15S12173   3.037   1.431   9.211  0.3334  0.7291 -0.7751
  116OSM   H15T12174   2.971   1.582   9.182 -2.1428 -0.0152 -2.8394
  116OSM   C16S12175   2.835   1.420   9.146  0.4587 -0.2450 -0.8479
  116OSM   H16S12176   2.750   1.492   9.151  1.7146  1.2368 -0.2563
  116OSM   H16T12177   2.800   1.326   9.194 -2.6414  1.5355  0.5751
  116OSM   C17S12178   2.865   1.391   9.000 -0.3842  0.3782  0.7157
  116OSM   H17S12179   2.959   1.332   9.001 -1.0003 -0.6421 -0.1201
  116OSM   H17T12180   2.887   1.489   8.952  0.2358 -0.7490 -1.3833
  116OSM   C18S12181   2.749   1.317   8.942  0.1835 -0.2653  0.8152
  116OSM   H18S12182   2.765   1.281   8.838  0.5568 -0.2926  0.8803
  116OSM   H18T12183   2.658   1.381   8.943  0.3035 -0.0329 -1.0913
  116OSM   H18U12184   2.730   1.229   9.007 -3.0851 -2.3936 -2.8419
  116OSM    C1F12185   2.910   0.619  10.542 -0.5962  0.1513 -0.2120
  116OSM     OF12186   2.836   0.610  10.636 -0.2244  0.1071  0.2475
  116OSM    C2F12187   2.971   0.500  10.471 -0.0954 -0.1895  0.1021
  116OSM    H2F12188   2.968   0.422  10.550  1.9642  0.7950  1.1860
  116OSM    H2G12189   3.073   0.528  10.438 -0.2042  2.2088  1.6772
  116OSM    C3F12190   2.883   0.446  10.349  0.1152 -0.4924 -0.6745
  116OSM    H3F12191   2.865   0.537  10.287  1.6944  0.7143  0.5911
  116OSM    H3G12192   2.792   0.390  10.381 -0.8108  0.2563 -1.9134
  116OSM    C4F12193   2.956   0.342  10.257 -0.1211  0.4476  0.1709
  116OSM    H4F12194   2.982   0.247  10.309  0.1490 -0.5225 -1.6957
  116OSM    H4G12195   3.046   0.394  10.218 -0.2534  0.0880 -0.6167
  116OSM    C5F12196   2.870   0.304  10.136 -0.6084  0.5069  0.5080
  116OSM    H5F12197   2.830   0.390  10.078 -0.0496 -0.1374 -0.8388
  116OSM    H5G12198   2.784   0.249  10.180  0.1872  0.7597  2.4336
  116OSM    C6F12199   2.958   0.211  10.049  0.1512 -0.0166 -0.1793
  116OSM    H6F12200   2.973   0.118  10.107  0.6135  0.1906  0.0391
  116OSM    H6G12201   3.056   0.260  10.030 -0.3050  0.3652 -1.6529
  116OSM    C7F12202   2.890   0.177   9.914  0.0868 -0.0267 -0.6707
  116OSM    H7F12203   2.885   0.273   9.858  1.9924  0.1455 -0.5790
  116OSM    H7G12204   2.790   0.131   9.927  1.5191 -2.1463  4.0759
  116OSM    C8F12205   2.987   0.086   9.831  0.2546  0.4509  0.1524
  116OSM    H8F12206   3.037  -0.001   9.879  0.9351 -0.2101 -1.6989
  116OSM    H8G12207   3.074   0.151   9.805  0.3703 -0.6705 -2.3699
  116OSM    C9F12208   2.921   0.050   9.698  0.2831  0.2189  0.1073
  116OSM    H9F12209   2.816   0.018   9.705 -0.4991  1.8622 -3.0054
  116OSM   C10F12210   2.979   0.049   9.577 -0.2095 -0.9681 -0.6599
  116OSM   H10F12211   2.906   0.033   9.496 -1.0288 -0.5677  0.0000
  116OSM   C11F12212   3.122   0.076   9.545 -0.4813  0.8805  0.2724
  116OSM   H11F12213   3.194   0.048   9.625  0.1313 -0.1002 -0.6104
  116OSM   H11G12214   3.135   0.185   9.527  1.0504  0.7026  0.2213
  116OSM   C12F12215   3.180  -0.009   9.426 -0.0018 -0.9829  0.5440
  116OSM   H12F12216   3.200  -0.109   9.470 -2.5111 -1.5417  0.4917
  116OSM   H12G12217   3.279   0.038   9.408 -0.8231  0.8862  0.7935
  116OSM   C13F12218   3.097  -0.002   9.296  0.2703  0.8517 -0.2389
  116OSM   H13F12219   2.999  -0.053   9.299  0.3430  0.7360  0.1673
  116OSM   H13G12220   3.157  -0.070   9.231 -1.5744 -0.0567 -0.9990
  116OSM   C14F12221   3.074   0.136   9.237  0.3925  0.0424  0.5162
  116OSM   H14F12222   3.176   0.174   9.214  0.0111  0.0030 -1.3703
  116OSM   H14G12223   3.027   0.209   9.306 -1.5738  0.0591 -0.7966
  116OSM   C15F12224   2.989   0.116   9.104 -0.3640  0.7667 -0.1579
  116OSM   H15F12225   2.912   0.195   9.117 -3.5764 -2.5251  1.6499
  116OSM   H15G12226   2.933   0.020   9.105  0.3093  0.3795  0.9329
  116OSM   C16F12227   3.058   0.129   8.968  0.3771 -0.2670  0.9864
  116OSM   H16F12228   3.069   0.235   8.938  2.7675 -0.6943  0.3072
  116OSM   H16G12229   2.995   0.075   8.893  0.6203 -0.4029  0.8799
  116OSM   C17F12230   3.197   0.057   8.965  0.0222  0.0283 -0.2111
  116OSM   H17F12231   3.172  -0.044   9.003  0.4893  0.1930  0.5286
  116OSM   H17G12232   3.275   0.115   9.018  1.7898  0.4562 -3.1468
  116OSM   C18F12233   3.250   0.046   8.816  0.1460 -0.4518  0.0564
  116OSM   H18F12234   3.342  -0.016   8.824 -0.3355 -1.0118  1.2929
  116OSM   H18G12235   3.279   0.145   8.775 -0.2472  0.0305  0.9388
  116OSM   H18H12236   3.168   0.003   8.753 -1.1087 -0.0708  1.4061
  117OSM      N12237   6.599   1.716  11.160  0.1550 -0.3274 -0.0270
  117OSM    C1512238   6.598   1.853  11.221  0.7498  0.6403  1.2100
  117OSM   H15A12239   6.541   1.865  11.312 -0.1630 -0.4849  0.7934
  117OSM   H15B12240   6.567   1.931  11.153  1.7322 -0.7365 -0.8450
  117OSM   H15C12241   6.701   1.873  11.247  1.3600 -0.7905 -0.0546
  117OSM    C1412242   6.640   1.619  11.267  0.2333 -0.2603 -0.1301
  117OSM   H14A12243   6.728   1.644  11.324 -0.5854  0.6658  0.7538
  117OSM   H14B12244   6.663   1.527  11.215 -3.6258  0.2237 -2.8599
  117OSM   H14C12245   6.566   1.606  11.344  2.0052  1.8055  2.0079
  117OSM    C1312246   6.455   1.698  11.114  0.4932 -0.0727 -0.4341
  117OSM   H13A12247   6.435   1.765  11.032  1.2843  1.1248  0.3430
  117OSM   H13B12248   6.385   1.736  11.187 -0.1229  0.5856 -1.3613
  117OSM   H13C12249   6.440   1.593  11.093  2.1899 -0.0434 -1.9313
  117OSM    C1212250   6.697   1.712  11.041  0.0120  0.5780  0.2332
  117OSM   H12A12251   6.800   1.719  11.074 -0.2968 -0.4619  1.4342
  117OSM   H12B12252   6.692   1.805  10.987 -2.0820  0.0629 -0.5203
  117OSM    C1112253   6.685   1.589  10.945 -0.1901  0.4059 -0.2629
  117OSM   H11A12254   6.766   1.596  10.869 -0.8266  1.9117 -0.8380
  117OSM   H11B12255   6.593   1.591  10.882 -0.0925  2.1880 -0.3770
  117OSM      P12256   6.595   1.346  10.994 -0.1648  0.0562 -0.0435
  117OSM    O1312257   6.637   1.246  11.099 -0.2491  0.0207 -0.1253
  117OSM    O1412258   6.462   1.403  11.013  0.2665 -0.1165 -0.2452
  117OSM    O1112259   6.600   1.291  10.847  0.2362 -0.3468 -1.4371
  117OSM    O1212260   6.695   1.467  11.018 -0.0946 -0.0954 -0.1405
  117OSM    C1S12261   6.709   1.237  10.782 -0.2385 -0.2728 -0.6060
  117OSM    H1S12262   6.706   1.131  10.816 -3.2020  0.5812  2.1076
  117OSM    H1T12263   6.808   1.282  10.802 -0.4292  0.2624 -0.8582
  117OSM     NF12264   6.797   1.174  10.575  0.2471 -0.3451 -0.0753
  117OSM    HNF12265   6.864   1.236  10.535 -2.2043  0.0716 -3.7414
  117OSM    C2S12266   6.685   1.244  10.637 -0.1274  0.1127  0.6221
  117OSM    H2S12267   6.590   1.189  10.620  0.1488  0.4833 -2.2885
  117OSM    C3S12268   6.667   1.389  10.583 -0.3749 -1.1083  0.7719
  117OSM    H3S12269   6.738   1.462  10.627 -0.3930 -1.4644  1.3874
  117OSM     O312270   6.553   1.447  10.632 -0.0048  0.0247 -0.5455
  117OSM    HO312271   6.518   1.389  10.700 -1.2383  1.6151  0.2267
  117OSM    C4S12272   6.660   1.396  10.437 -0.6713 -0.3982 -0.1492
  117OSM    H4S12273   6.586   1.326  10.396 -0.6994  0.9011 -2.3590
  117OSM    C5S12274   6.732   1.478  10.352  1.2178 -0.1115  0.0648
  117OSM    H5S12275   6.797   1.555  10.395  1.3478  0.1469 -0.5965
  117OSM    C6S12276   6.717   1.479  10.206 -0.0507 -0.3240  0.0460
  117OSM    H6S12277   6.800   1.423  10.158  0.0927  1.8282 -2.3216
  117OSM    H6T12278   6.734   1.582  10.168  0.7785 -0.0675  1.0869
  117OSM    C7S12279   6.582   1.435  10.153 -0.5314  1.1047  0.0680
  117OSM    H7S12280   6.503   1.490  10.207 -0.4352  1.4179 -0.1071
  117OSM    H7T12281   6.562   1.328  10.176 -1.0116  1.1229 -0.2485
  117OSM    C8S12282   6.558   1.450   9.999 -0.0612  0.7322 -0.6188
  117OSM    H8S12283   6.624   1.375   9.951 -0.5263  0.8082 -1.3859
  117OSM    H8T12284   6.585   1.548   9.955 -2.0175  2.0351  0.9562
  117OSM    C9S12285   6.419   1.419   9.959 -0.3548  0.2856 -0.6262
  117OSM    H9S12286   6.349   1.492  10.006 -2.4589 -0.2275 -2.8599
  117OSM    H9T12287   6.392   1.320  10.002 -2.2775  0.8365 -0.4938
  117OSM   C10S12288   6.391   1.424   9.809 -0.5259  0.0204  0.6261
  117OSM   H10S12289   6.402   1.529   9.774 -2.9547  0.2942  0.6132
  117OSM   H10T12290   6.286   1.389   9.793  0.0616  0.0352 -3.8995
  117OSM   C11S12291   6.472   1.321   9.731  0.0240 -0.0001 -0.1257
  117OSM   H11S12292   6.440   1.215   9.742  1.9462 -0.3913  2.0394
  117OSM   H11T12293   6.580   1.321   9.755  0.1116  0.4083 -0.5208
  117OSM   C12S12294   6.443   1.340   9.582  0.1480  0.6428  0.4304
  117OSM   H12S12295   6.479   1.442   9.555 -0.6980  0.5783 -1.0408
  117OSM   H12T12296   6.335   1.347   9.554  0.0260  0.9184  0.9585
  117OSM   C13S12297   6.519   1.234   9.503 -0.0311 -1.0612  0.3195
  117OSM   H13S12298   6.490   1.131   9.531 -0.2832 -0.9770  0.3663
  117OSM   H13T12299   6.628   1.252   9.516 -0.2563  1.2878 -0.8039
  117OSM   C14S12300   6.498   1.250   9.351  0.0364 -0.8106 -0.3781
  117OSM   H14S12301   6.524   1.350   9.312 -2.9534 -0.2688 -1.1514
  117OSM   H14T12302   6.392   1.233   9.319 -0.1638 -0.6304  0.1829
  117OSM   C15S12303   6.571   1.139   9.262  0.2333  0.3050 -0.2269
  117OSM   H15S12304   6.553   1.036   9.298 -0.1173  0.2130 -0.6616
  117OSM   H15T12305   6.681   1.156   9.269  0.2334  0.6790 -1.0828
  117OSM   C16S12306   6.510   1.142   9.117  0.3729 -0.3354 -0.2875
  117OSM   H16S12307   6.399   1.143   9.131  0.4406 -1.9894  0.4197
  117OSM   H16T12308   6.536   1.049   9.062  3.0932  0.9411 -1.2463
  117OSM   C17S12309   6.557   1.263   9.028 -0.0729 -0.3158 -0.6035
  117OSM   H17S12310   6.667   1.270   9.021 -0.0621  1.5457  0.7910
  117OSM   H17T12311   6.519   1.356   9.078 -0.7581 -0.3425 -1.0639
  117OSM   C18S12312   6.492   1.255   8.888  0.0073  0.0052 -0.0595
  117OSM   H18S12313   6.531   1.165   8.836  1.6294  0.5011  0.2768
  117OSM   H18T12314   6.520   1.342   8.825 -3.2167 -0.1818 -1.8324
  117OSM   H18U12315   6.382   1.241   8.884 -0.1319 -0.1848  3.0286
  117OSM    C1F12316   6.830   1.042  10.582 -0.4664 -0.4707  0.2782
  117OSM     OF12317   6.751   0.958  10.608  0.0095  0.0208 -0.3784
  117OSM    C2F12318   6.976   1.011  10.541  0.1796  0.1763 -0.1474
  117OSM    H2F12319   7.026   0.955  10.623  0.3396 -0.8237 -0.9156
  117OSM    H2G12320   7.025   1.105  10.509 -0.5979  0.7989  0.4858
  117OSM    C3F12321   6.981   0.903  10.425  0.0579  0.0703  0.4524
  117OSM    H3F12322   6.913   0.823  10.461  1.4060 -1.3731 -0.1567
  117OSM    H3G12323   7.081   0.856  10.420  0.6698  1.1352  2.0022
  117OSM    C4F12324   6.938   0.966  10.294 -0.8436 -0.6986 -0.0146
  117OSM    H4F12325   6.845   1.025  10.310 -0.4056  0.4667 -1.7196
  117OSM    H4G12326   6.905   0.886  10.224 -1.8745 -1.9359  1.8280
  117OSM    C5F12327   7.054   1.043  10.227  0.0317  0.2180  0.5260
  117OSM    H5F12328   7.153   0.995  10.234 -0.7592 -1.4210  0.7830
  117OSM    H5G12329   7.074   1.141  10.276 -2.3484  0.4301  1.1538
  117OSM    C6F12330   7.026   1.069  10.077 -0.2982 -0.4751  0.3961
  117OSM    H6F12331   6.981   0.981  10.028 -2.4124  2.5197 -3.3711
  117OSM    H6G12332   7.120   1.100  10.025 -0.7164  1.7605  0.8912
  117OSM    C7F12333   6.918   1.174  10.058  0.2668 -0.3518 -0.3012
  117OSM    H7F12334   6.937   1.260  10.126  1.5635 -0.4219 -0.5694
  117OSM    H7G12335   6.819   1.143  10.098  0.3286 -0.1536  0.0062
  117OSM    C8F12336   6.890   1.236   9.921 -0.1634  0.2669 -0.6061
  117OSM    H8F12337   6.797   1.295   9.931 -1.6560 -1.8904 -1.3677
  117OSM    H8G12338   6.856   1.152   9.858 -0.3349  1.5849 -2.3007
  117OSM    C9F12339   7.017   1.308   9.878 -0.4223 -0.4416 -0.1540
  117OSM    H9F12340   7.108   1.249   9.893 -0.0364 -0.2896 -1.7714
  117OSM   C10F12341   7.035   1.438   9.842 -0.1929  0.3186 -0.0608
  117OSM   H10F12342   7.133   1.469   9.803  1.8339 -1.4781  3.3821
  117OSM   C11F12343   6.928   1.539   9.835  0.3593 -0.0151 -0.2413
  117OSM   H11F12344   6.959   1.645   9.845  1.2450 -0.4928  2.7069
  117OSM   H11G12345   6.855   1.524   9.917 -0.1185  0.5623 -0.5584
  117OSM   C12F12346   6.849   1.519   9.706 -0.1621  0.2113  0.4983
  117OSM   H12F12347   6.758   1.579   9.725 -0.0810  0.0972  1.2664
  117OSM   H12G12348   6.813   1.415   9.689 -1.0984  0.5831  0.1599
  117OSM   C13F12349   6.923   1.562   9.573 -0.4047 -0.0094  0.1716
  117OSM   H13F12350   7.024   1.516   9.572 -0.3319  0.1447  0.3845
  117OSM   H13G12351   6.938   1.672   9.569 -0.0133 -0.0802 -0.3630
  117OSM   C14F12352   6.846   1.513   9.447 -0.8974 -0.1137 -0.7959
  117OSM   H14F12353   6.739   1.540   9.452 -0.7896  0.4725 -1.4847
  117OSM   H14G12354   6.855   1.402   9.453 -1.7450 -0.0343  3.0214
  117OSM   C15F12355   6.899   1.574   9.311  0.7288 -0.2079  0.0965
  117OSM   H15F12356   7.005   1.541   9.310  0.5639 -0.8705  2.3307
  117OSM   H15G12357   6.907   1.684   9.301  2.2264 -0.1836  1.3550
  117OSM   C16F12358   6.830   1.504   9.189 -0.1080  0.1849  0.7958
  117OSM   H16F12359   6.722   1.487   9.212 -0.3408 -0.2501 -0.5640
  117OSM   H16G12360   6.878   1.405   9.181 -1.3838 -0.2460 -2.5895
  117OSM   C17F12361   6.852   1.593   9.069  0.6931 -0.8116  0.1992
  117OSM   H17F12362   6.960   1.618   9.056  0.3705 -0.1023 -1.2708
  117OSM   H17G12363   6.807   1.692   9.092  1.7440  0.0485 -1.2989
  117OSM   C18F12364   6.801   1.533   8.941 -0.2481  0.3936  0.7002
  117OSM   H18F12365   6.695   1.504   8.961  0.1945 -1.2989  0.6555
  117OSM   H18G12366   6.852   1.442   8.902 -0.8416  0.8909 -1.2642
  117OSM   H18H12367   6.783   1.606   8.859 -0.8582 -1.6433 -1.0449
  118OSM      N12368   1.064   2.182  11.063  0.0982  0.3321  0.4075
  118OSM    C1512369   1.142   2.123  10.952  0.3322  0.4678  0.2395
  118OSM   H15A12370   1.082   2.058  10.890  1.5970 -1.3785  0.8934
  118OSM   H15B12371   1.224   2.068  10.997 -2.5560 -1.9782  2.7211
  118OSM   H15C12372   1.196   2.189  10.886  1.0503 -0.4496 -0.0989
  118OSM    C1412373   1.015   2.073  11.149 -0.6340  0.9019  0.8069
  118OSM   H14A12374   0.948   2.003  11.101  1.4783  0.5238 -1.7075
  118OSM   H14B12375   0.968   2.111  11.239  0.1859 -0.1893  1.7046
  118OSM   H14C12376   1.100   2.014  11.178  1.1163  3.6729  1.4820
  118OSM    C1312377   1.156   2.267  11.146  0.7014  0.2207 -0.8365
  118OSM   H13A12378   1.118   2.319  11.233 -0.2401  2.6044 -2.6311
  118OSM   H13B12379   1.199   2.341  11.080 -0.0350  1.0528 -0.3922
  118OSM   H13C12380   1.235   2.207  11.189 -0.7900 -2.0960 -1.1966
  118OSM    C1212381   0.943   2.260  11.009  0.0321  0.1504 -0.9704
  118OSM   H12A12382   0.885   2.292  11.094  1.5434 -2.6376  1.2285
  118OSM   H12B12383   0.870   2.189  10.973 -1.6509  1.2782  0.1648
  118OSM    C1112384   0.957   2.375  10.913 -0.3332 -0.1002  0.2447
  118OSM   H11A12385   0.859   2.396  10.864  0.1034  1.4311 -0.0160
  118OSM   H11B12386   1.014   2.340  10.824 -3.2584  0.1244 -1.7871
  118OSM      P12387   0.922   2.584  11.067 -0.0181  0.5626 -0.0405
  118OSM    O1312388   0.800   2.515  11.115  1.1664 -0.2891 -0.4817
  118OSM    O1412389   1.008   2.646  11.172  0.7542  0.2186 -0.2970
  118OSM    O1112390   0.892   2.692  10.959  1.1599 -0.0807  0.0310
  118OSM    O1212391   1.015   2.488  10.980 -0.2502 -0.3995  0.8501
  118OSM    C1S12392   0.990   2.757  10.879 -0.1487  0.2038  0.0899
  118OSM    H1S12393   1.091   2.733  10.917 -1.0494  0.1445  2.5732
  118OSM    H1T12394   0.968   2.866  10.878 -0.4457  0.1553  0.8157
  118OSM     NF12395   1.062   2.817  10.662 -0.3784  1.1973  0.1999
  118OSM    HNF12396   1.032   2.911  10.646 -1.8051  0.6272 -0.5482
  118OSM    C2S12397   0.973   2.720  10.732 -0.5013  0.8299 -0.5561
  118OSM    H2S12398   1.014   2.618  10.717  1.1589  1.3730  0.2463
  118OSM    C3S12399   0.817   2.726  10.692  0.2212 -0.1087 -0.4179
  118OSM    H3S12400   0.779   2.829  10.707  2.5453  0.5406  1.3425
  118OSM     O312401   0.736   2.634  10.764 -0.5276 -0.4553 -0.0053
  118OSM    HO312402   0.792   2.619  10.841 -0.7147  0.3282  0.2866
  118OSM    C4S12403   0.793   2.700  10.543  0.1735 -0.2448 -0.1504
  118OSM    H4S12404   0.781   2.796  10.489 -0.9902 -0.7044 -0.7276
  118OSM    C5S12405   0.782   2.578  10.485 -0.6417  0.8336  0.2184
  118OSM    H5S12406   0.772   2.484  10.541  1.6313  0.5138  0.1276
  118OSM    C6S12407   0.770   2.539  10.343  0.3024  0.6314 -0.1369
  118OSM    H6S12408   0.705   2.449  10.333 -2.3206  2.3983  0.5010
  118OSM    H6T12409   0.873   2.510  10.312 -0.0689 -0.2617 -0.5531
  118OSM    C7S12410   0.719   2.638  10.235  0.8430 -0.5219 -0.3039
  118OSM    H7S12411   0.773   2.735  10.234 -2.9738  1.6772 -3.2493
  118OSM    H7T12412   0.616   2.663  10.268  2.3862  2.5865  2.5236
  118OSM    C8S12413   0.705   2.581  10.090 -0.5004 -0.5214 -0.3733
  118OSM    H8S12414   0.624   2.505  10.085  1.0030 -2.3948  2.3777
  118OSM    H8T12415   0.800   2.528  10.064 -1.3219 -1.5851 -1.2751
  118OSM    C9S12416   0.686   2.683   9.980  0.2093 -0.9091  0.1050
  118OSM    H9S12417   0.770   2.756   9.979  2.2134 -3.1476 -0.7401
  118OSM    H9T12418   0.596   2.747   9.988  0.7843 -0.0478 -0.2271
  118OSM   C10S12419   0.694   2.618   9.839 -0.6273  0.2105 -0.4197
  118OSM   H10S12420   0.632   2.526   9.837 -1.5002  0.8139 -3.5443
  118OSM   H10T12421   0.798   2.601   9.804 -0.8893 -0.7614 -0.7512
  118OSM   C11S12422   0.634   2.711   9.728 -0.5508  0.2541  0.1607
  118OSM   H11S12423   0.699   2.799   9.711  0.1671  0.1594  2.3502
  118OSM   H11T12424   0.538   2.753   9.767 -2.1468  0.4958 -3.7807
  118OSM   C12S12425   0.596   2.638   9.597  0.3404  0.2320 -0.1090
  118OSM   H12S12426   0.586   2.714   9.517 -1.2334  0.0556 -0.0791
  118OSM   H12T12427   0.498   2.588   9.612  1.3184 -1.7374 -0.0626
  118OSM   C13S12428   0.688   2.535   9.528 -0.4161 -0.5870 -0.0490
  118OSM   H13S12429   0.683   2.433   9.570  0.6096 -1.2627 -1.5115
  118OSM   H13T12430   0.793   2.572   9.522 -0.7451  0.4338  0.3487
  118OSM   C14S12431   0.640   2.509   9.385 -0.3318  0.2588 -0.1370
  118OSM   H14S12432   0.622   2.611   9.345  0.5327  1.0222  1.3734
  118OSM   H14T12433   0.552   2.441   9.377 -0.2065  0.2230 -1.2706
  118OSM   C15S12434   0.759   2.454   9.306 -0.3199  0.2282  0.0839
  118OSM   H15S12435   0.783   2.353   9.344  1.6925  0.4047 -0.6866
  118OSM   H15T12436   0.852   2.515   9.310  1.2897 -1.9878 -1.9278
  118OSM   C16S12437   0.734   2.446   9.147 -0.3871  0.0515  0.4406
  118OSM   H16S12438   0.704   2.548   9.114 -1.4965 -0.5123 -0.3296
  118OSM   H16T12439   0.648   2.378   9.130 -2.1752  2.5655 -1.0580
  118OSM   C17S12440   0.858   2.407   9.065  0.3637  0.7791 -0.2763
  118OSM   H17S12441   0.941   2.481   9.073 -0.8074  2.0806  0.1447
  118OSM   H17T12442   0.829   2.404   8.958  1.1649  0.7162 -0.4971
  118OSM   C18S12443   0.918   2.271   9.101  0.3150 -0.0407  0.1674
  118OSM   H18S12444   0.976   2.238   9.012  0.6708  0.5482  0.1791
  118OSM   H18T12445   0.837   2.196   9.115  0.4734 -0.5342 -1.3718
  118OSM   H18U12446   0.979   2.281   9.193 -0.4989 -2.1938  0.9712
  118OSM    C1F12447   1.195   2.795  10.661  0.0185  0.4949 -0.0815
  118OSM     OF12448   1.236   2.689  10.695  0.7335 -0.4068  0.9311
  118OSM    C2F12449   1.283   2.900  10.615 -0.4273 -0.9022  0.4181
  118OSM    H2F12450   1.346   2.930  10.702 -1.4017  1.4683  0.3484
  118OSM    H2G12451   1.211   2.982  10.593 -1.5253 -2.0150 -0.1591
  118OSM    C3F12452   1.369   2.857  10.497  0.4129 -0.7404  0.3309
  118OSM    H3F12453   1.425   2.769  10.536  1.7113  1.1821  2.9755
  118OSM    H3G12454   1.439   2.940  10.472 -1.0518 -0.1713 -2.0803
  118OSM    C4F12455   1.296   2.811  10.374  0.4425  0.1250  0.0486
  118OSM    H4F12456   1.237   2.719  10.394  2.7507 -1.8483 -1.7830
  118OSM    H4G12457   1.364   2.792  10.288  1.5996 -1.7721  1.3358
  118OSM    C5F12458   1.187   2.915  10.324  1.0251  0.6272 -0.5388
  118OSM    H5F12459   1.225   3.017  10.303 -0.5820  1.1740 -0.8570
  118OSM    H5G12460   1.114   2.920  10.408  1.3240  0.3255 -0.2616
  118OSM    C6F12461   1.114   2.878  10.193  0.2047  0.2635  0.5823
  118OSM    H6F12462   1.020   2.935  10.207  0.8084  1.2909  0.4691
  118OSM    H6G12463   1.083   2.772  10.178  1.7055  0.0593 -1.2072
  118OSM    C7F12464   1.190   2.934  10.071 -0.2231 -0.5339  0.7011
  118OSM    H7F12465   1.299   2.919  10.083  0.0766  0.3515 -0.7442
  118OSM    H7G12466   1.171   3.042  10.051  0.8253 -0.6615 -1.0596
  118OSM    C8F12467   1.139   2.877   9.932  0.5451  0.5483 -0.2175
  118OSM    H8F12468   1.139   2.766   9.940  0.5874  0.6820  1.8150
  118OSM    H8G12469   1.216   2.900   9.855  0.5316 -1.1095 -0.7471
  118OSM    C9F12470   0.999   2.928   9.890 -0.1786 -0.1637 -0.5560
  118OSM    H9F12471   0.924   2.924   9.971  1.0986  0.1653  0.6622
  118OSM   C10F12472   0.976   2.992   9.772  0.5631 -0.1925 -0.0193
  118OSM   H10F12473   0.874   3.033   9.760  0.1672 -1.3117 -0.5041
  118OSM   C11F12474   1.070   3.027   9.663  0.2260  0.3089  0.4945
  118OSM   H11F12475   1.175   3.023   9.699  1.2660 -1.3834 -2.5064
  118OSM   H11G12476   1.061   3.131   9.627 -1.2365  0.5085  1.4003
  118OSM   C12F12477   1.072   2.931   9.542 -0.1464  0.1826 -0.0906
  118OSM   H12F12478   1.059   2.831   9.588  1.2857 -0.3945 -0.9009
  118OSM   H12G12479   1.169   2.930   9.487  0.7185  2.5518  1.3546
  118OSM   C13F12480   0.955   2.962   9.452  0.3098  0.1340 -0.8299
  118OSM   H13F12481   0.982   3.055   9.396  0.5819 -0.0589 -1.0260
  118OSM   H13G12482   0.879   3.005   9.520 -0.8862 -1.4277 -1.1437
  118OSM   C14F12483   0.890   2.850   9.359 -0.5857 -0.1708 -0.1002
  118OSM   H14F12484   0.830   2.782   9.423  0.4574  1.6977  2.9555
  118OSM   H14G12485   0.975   2.796   9.312  2.1735  2.8929  1.1425
  118OSM   C15F12486   0.803   2.914   9.246 -0.1637 -0.1950  0.5494
  118OSM   H15F12487   0.721   2.971   9.294 -0.5418 -1.8378  1.9324
  118OSM   H15G12488   0.739   2.838   9.197 -1.7917  2.3188 -1.3452
  118OSM   C16F12489   0.881   3.001   9.150 -0.5886 -0.7782 -0.5083
  118OSM   H16F12490   0.920   3.088   9.207  0.2114 -2.2366  1.1992
  118OSM   H16G12491   0.811   3.039   9.072  0.2982  1.6694 -0.1622
  118OSM   C17F12492   1.001   2.942   9.080 -0.0319 -0.2397  0.4623
  118OSM   H17F12493   1.085   2.920   9.149  0.7066 -1.0373 -0.6769
  118OSM   H17G12494   1.037   3.020   9.009 -1.0204 -1.1047 -1.0224
  118OSM   C18F12495   0.976   2.803   9.013  0.7257 -0.5858 -0.0198
  118OSM   H18F12496   1.065   2.762   8.962  1.3804  2.5197 -1.4753
  118OSM   H18G12497   0.886   2.812   8.949 -1.0382  0.9072  2.5335
  118OSM   H18H12498   0.942   2.733   9.093  0.3523 -0.0211  0.3329
  119OSM      N12499   0.594   1.648  11.097 -0.6350 -0.3388 -0.1152
  119OSM    C1512500   0.623   1.635  10.951  0.2435  0.2583 -0.5212
  119OSM   H15A12501   0.598   1.534  10.921  2.7215 -0.9526  1.2417
  119OSM   H15B12502   0.728   1.661  10.939  0.8912 -2.9238 -2.4506
  119OSM   H15C12503   0.567   1.707  10.895  0.5392  0.2192 -0.8703
  119OSM    C1412504   0.452   1.617  11.122 -0.2439  0.0159  0.4257
  119OSM   H14A12505   0.426   1.528  11.066  0.8687  1.3758 -2.3507
  119OSM   H14B12506   0.397   1.700  11.081  2.7735  1.0890 -1.6099
  119OSM   H14C12507   0.435   1.591  11.226 -1.8509 -1.8774 -0.2642
  119OSM    C1312508   0.688   1.549  11.173  0.0305  0.3378 -0.0974
  119OSM   H13A12509   0.788   1.583  11.154 -0.8771  3.3905  0.3899
  119OSM   H13B12510   0.668   1.449  11.137 -1.1398  0.6292 -0.2826
  119OSM   H13C12511   0.673   1.555  11.280 -2.7912 -2.4373 -0.2651
  119OSM    C1212512   0.637   1.793  11.139 -0.0325  0.1994  0.3059
  119OSM   H12A12513   0.743   1.805  11.117 -0.0598 -1.0057 -0.5587
  119OSM   H12B12514   0.633   1.799  11.246  1.2628 -4.0629  0.6993
  119OSM    C1112515   0.560   1.910  11.069  0.2230  0.1178 -0.0959
  119OSM   H11A12516   0.588   2.002  11.125 -1.2501 -0.1632  1.1166
  119OSM   H11B12517   0.453   1.897  11.097  0.8581 -2.7482  1.2563
  119OSM      P12518   0.716   1.983  10.877 -0.0957 -0.2710 -0.7249
  119OSM    O1312519   0.702   2.132  10.872  0.0193  0.4253  0.1393
  119OSM    O1412520   0.828   1.921  10.952  0.0372  0.1661 -0.2188
  119OSM    O1112521   0.717   1.922  10.737  0.1503 -0.5317 -0.3220
  119OSM    O1212522   0.577   1.923  10.926  0.2633  0.8841 -0.0239
  119OSM    C1S12523   0.769   1.795  10.700 -0.1346 -0.7527 -0.5636
  119OSM    H1S12524   0.694   1.720  10.735 -1.5318  1.7001  1.9323
  119OSM    H1T12525   0.876   1.785  10.726  0.4596  1.2915 -2.1099
  119OSM     NF12526   0.814   1.620  10.531  0.7659 -0.7875 -0.0748
  119OSM    HNF12527   0.904   1.585  10.509  0.9069  1.1263 -2.8222
  119OSM    C2S12528   0.779   1.765  10.551 -0.1366 -0.3247  0.5477
  119OSM    H2S12529   0.685   1.803  10.507  0.1478  1.9453  1.8260
  119OSM    C3S12530   0.896   1.866  10.500 -0.4269  0.5350  0.3107
  119OSM    H3S12531   0.992   1.822  10.536 -0.4014 -0.7692 -1.2926
  119OSM     O312532   0.892   1.996  10.557  0.0077 -0.2213  0.2328
  119OSM    HO312533   0.823   1.985  10.623 -1.8108 -0.0704 -1.6073
  119OSM    C4S12534   0.892   1.873  10.354  0.2240  0.1268  0.4889
  119OSM    H4S12535   0.813   1.944  10.325  1.6361  1.5022 -0.0986
  119OSM    C5S12536   0.979   1.820  10.271 -0.2313  0.3754 -0.3580
  119OSM    H5S12537   1.058   1.751  10.305 -1.3647 -0.8816 -0.2462
  119OSM    C6S12538   0.979   1.849  10.124  0.0909 -0.2637 -0.5484
  119OSM    H6S12539   1.064   1.920  10.108 -0.2934 -0.0598 -1.7391
  119OSM    H6T12540   0.888   1.903  10.091  1.7465  2.7401 -0.4324
  119OSM    C7S12541   0.991   1.724  10.038 -0.2635 -0.1011 -0.0305
  119OSM    H7S12542   0.914   1.662  10.090 -0.2478 -0.1647 -0.0831
  119OSM    H7T12543   1.086   1.668  10.047 -1.1150 -1.9861 -2.3752
  119OSM    C8S12544   0.972   1.751   9.886  0.0630  0.1811  0.6314
  119OSM    H8S12545   1.041   1.835   9.861  0.2932  0.2566  1.4977
  119OSM    H8T12546   0.868   1.779   9.859  0.6069  1.7401  0.0527
  119OSM    C9S12547   1.020   1.635   9.802  0.1885  0.6132  0.3317
  119OSM    H9S12548   0.949   1.550   9.810 -0.2238  0.9063 -0.2074
  119OSM    H9T12549   1.118   1.618   9.852 -0.5505  1.2152  1.9914
  119OSM   C10S12550   1.046   1.671   9.654  0.5260  0.5684  0.1031
  119OSM   H10S12551   1.101   1.766   9.643 -1.7130  1.6666 -2.2309
  119OSM   H10T12552   0.948   1.689   9.604 -0.1544 -1.5262  0.6259
  119OSM   C11S12553   1.113   1.557   9.583 -0.1289 -0.7820 -0.0016
  119OSM   H11S12554   1.071   1.457   9.608  1.0526 -0.7855  2.0502
  119OSM   H11T12555   1.221   1.547   9.605  0.1224  1.6780 -0.0659
  119OSM   C12S12556   1.116   1.584   9.436  0.3614  0.7711  0.0644
  119OSM   H12S12557   1.173   1.677   9.417  0.4941  0.6132 -0.3031
  119OSM   H12T12558   1.013   1.609   9.406  0.4163 -0.8255 -1.5146
  119OSM   C13S12559   1.168   1.456   9.363 -0.1124  0.4858 -0.4095
  119OSM   H13S12560   1.117   1.370   9.410 -0.3027  0.0599 -1.3756
  119OSM   H13T12561   1.276   1.433   9.380 -0.7043  0.0917  3.1973
  119OSM   C14S12562   1.142   1.468   9.216  0.7447 -0.7084  0.4207
  119OSM   H14S12563   1.052   1.525   9.186  0.9686  0.1784  1.3812
  119OSM   H14T12564   1.134   1.365   9.174 -0.9130 -0.6967  0.6705
  119OSM   C15S12565   1.252   1.550   9.148  0.2600 -0.1491  0.3987
  119OSM   H15S12566   1.352   1.516   9.180 -0.2702 -1.0805  1.0731
  119OSM   H15T12567   1.254   1.658   9.176 -1.3458  0.2138 -0.8007
  119OSM   C16S12568   1.251   1.538   8.996  0.4675  0.1793  0.0326
  119OSM   H16S12569   1.230   1.431   8.975 -1.6709  0.6998 -0.6341
  119OSM   H16T12570   1.350   1.569   8.955  0.3098 -2.3910 -2.5038
  119OSM   C17S12571   1.136   1.610   8.923  0.2734 -1.1101  0.0265
  119OSM   H17S12572   1.107   1.691   8.993 -0.3342 -1.5304  0.2564
  119OSM   H17T12573   1.046   1.547   8.908 -1.2347  0.8234  0.6917
  119OSM   C18S12574   1.189   1.674   8.792  0.4617  0.2638 -0.2505
  119OSM   H18S12575   1.102   1.724   8.745 -0.7071 -0.0809  1.4656
  119OSM   H18T12576   1.225   1.602   8.715  2.2359  0.4607  0.3673
  119OSM   H18U12577   1.270   1.748   8.809  1.0252 -0.2962 -0.4632
  119OSM    C1F12578   0.718   1.525  10.566  0.2569  0.6606  0.1790
  119OSM     OF12579   0.601   1.558  10.563  0.2282 -0.3264 -0.0445
  119OSM    C2F12580   0.776   1.389  10.602  0.7942  0.6810  0.6025
  119OSM    H2F12581   0.747   1.370  10.708  1.0910 -0.0842  0.5470
  119OSM    H2G12582   0.887   1.392  10.606  0.8014 -0.7220  1.6670
  119OSM    C3F12583   0.711   1.281  10.519  0.7040 -0.3485 -0.3536
  119OSM    H3F12584   0.601   1.290  10.504  0.3501 -0.6515  1.8511
  119OSM    H3G12585   0.731   1.189  10.578 -0.2943  0.4367  1.2395
  119OSM    C4F12586   0.780   1.252  10.385  0.0654  0.1709 -0.0627
  119OSM    H4F12587   0.723   1.169  10.338  1.4441 -0.6181 -0.3705
  119OSM    H4G12588   0.885   1.220  10.397 -0.2624  0.0439  2.9136
  119OSM    C5F12589   0.774   1.381  10.297 -0.3199 -0.2182  0.5166
  119OSM    H5F12590   0.848   1.456  10.333 -0.8077  1.6279 -2.1893
  119OSM    H5G12591   0.672   1.423  10.308 -0.3221  0.9957 -3.3741
  119OSM    C6F12592   0.809   1.370  10.147 -0.4681 -0.0413 -0.5364
  119OSM    H6F12593   0.914   1.343  10.124 -0.3050  0.3041 -0.1946
  119OSM    H6G12594   0.787   1.462  10.088  0.7149  0.1667 -0.6698
  119OSM    C7F12595   0.738   1.254  10.084 -0.4609 -0.0681  0.3468
  119OSM    H7F12596   0.630   1.269  10.108 -0.3094  1.6191  0.0519
  119OSM    H7G12597   0.756   1.156  10.134 -0.1479 -1.2361 -2.0248
  119OSM    C8F12598   0.757   1.236   9.931  0.6572  0.6008 -0.1001
  119OSM    H8F12599   0.732   1.131   9.907 -1.2424  0.5212  2.0473
  119OSM    H8G12600   0.866   1.247   9.915  0.3071 -0.3099 -3.4841
  119OSM    C9F12601   0.691   1.344   9.847  0.0360  0.8957 -0.3811
  119OSM    H9F12602   0.683   1.436   9.906  0.7294 -0.2814  1.5648
  119OSM   C10F12603   0.638   1.332   9.726 -0.3913 -0.3398 -0.1110
  119OSM   H10F12604   0.588   1.414   9.673 -1.2702 -1.0705 -0.4166
  119OSM   C11F12605   0.636   1.209   9.644  0.0462 -0.1478 -0.2289
  119OSM   H11F12606   0.536   1.188   9.601 -0.4762 -1.1300  1.3834
  119OSM   H11G12607   0.634   1.119   9.710 -1.3245 -0.2490 -0.3790
  119OSM   C12F12608   0.754   1.206   9.540  0.1275  0.2298  0.3359
  119OSM   H12F12609   0.847   1.200   9.600 -1.7831  0.6559  3.4748
  119OSM   H12G12610   0.757   1.296   9.474  3.7527 -1.7469 -2.3719
  119OSM   C13F12611   0.748   1.075   9.456 -0.9524  0.4647 -0.9280
  119OSM   H13F12612   0.664   1.086   9.385 -0.1436  0.5679 -1.8800
  119OSM   H13G12613   0.728   0.997   9.533 -0.9436  2.0737  0.7497
  119OSM   C14F12614   0.890   1.045   9.401  0.7029  0.2423  0.3387
  119OSM   H14F12615   0.880   0.937   9.379  1.9839 -0.0140  0.9435
  119OSM   H14G12616   0.959   1.052   9.488 -0.5654  0.0879  1.3700
  119OSM   C15F12617   0.935   1.125   9.281  0.2982 -0.0986  0.0676
  119OSM   H15F12618   1.039   1.102   9.251 -0.6468 -2.6193 -1.4063
  119OSM   H15G12619   0.921   1.234   9.301 -2.6385 -0.1205 -1.5612
  119OSM   C16F12620   0.851   1.090   9.159  0.2485 -0.5376 -0.5387
  119OSM   H16F12621   0.745   1.115   9.177 -0.0755 -1.2852 -1.3664
  119OSM   H16G12622   0.857   0.980   9.143  3.5417 -0.4327 -0.4925
  119OSM   C17F12623   0.887   1.174   9.036 -0.0890 -0.8573  0.3619
  119OSM   H17F12624   0.835   1.130   8.947  1.3495 -0.4322 -0.7058
  119OSM   H17G12625   0.994   1.152   9.017  0.7942  0.5248  3.4281
  119OSM   C18F12626   0.854   1.322   9.055  0.1771 -0.4377  0.5399
  119OSM   H18F12627   0.745   1.338   9.053  0.3980  0.8939 -1.4553
  119OSM   H18G12628   0.901   1.376   8.971 -0.4098  0.8210  1.0168
  119OSM   H18H12629   0.893   1.359   9.153 -2.7576  1.6923  0.9566
  120OSM      N12630   1.080   5.205  10.933 -0.0951 -0.1220  0.5821
  120OSM    C1512631   1.130   5.067  10.920 -0.3642 -0.3434 -0.4026
  120OSM   H15A12632   1.235   5.070  10.896 -0.2259  1.0074  0.3114
  120OSM   H15B12633   1.086   5.025  10.831  0.5376 -0.2326 -0.9021
  120OSM   H15C12634   1.109   5.011  11.010  1.0519 -0.7170 -0.3024
  120OSM    C1412635   0.939   5.198  10.986  0.4482 -0.0693  0.3276
  120OSM   H14A12636   0.934   5.156  11.085 -1.2310  1.5833  0.9662
  120OSM   H14B12637   0.886   5.132  10.919  1.2556  1.4785 -1.8917
  120OSM   H14C12638   0.892   5.295  10.985 -1.3332 -0.9288  0.0975
  120OSM    C1312639   1.167   5.276  11.032  0.0944  0.3890  0.0530
  120OSM   H13A12640   1.268   5.274  10.995 -0.2276  1.3616 -0.9020
  120OSM   H13B12641   1.164   5.221  11.125 -0.1093  0.0411 -0.1577
  120OSM   H13C12642   1.126   5.371  11.062 -1.3919  0.8387 -3.1000
  120OSM    C1212643   1.088   5.276  10.799  0.0589 -0.3158 -0.1823
  120OSM   H12A12644   1.191   5.263  10.769  0.8805  0.1700  2.2763
  120OSM   H12B12645   1.072   5.382  10.811  1.3640 -0.2465  1.0403
  120OSM    C1112646   1.009   5.212  10.677  0.1481  0.5853  0.2646
  120OSM   H11A12647   1.049   5.109  10.664 -0.6261  0.2884  0.2139
  120OSM   H11B12648   1.041   5.263  10.584 -0.5645  2.1882  0.8752
  120OSM      P12649   0.767   5.324  10.693 -0.0597 -0.1359  0.5318
  120OSM    O1312650   0.631   5.276  10.667  0.1044 -0.0085  0.4731
  120OSM    O1412651   0.788   5.404  10.811  0.2719 -0.4546  0.0610
  120OSM    O1112652   0.810   5.405  10.562 -0.1701 -0.3449 -0.0200
  120OSM    O1212653   0.867   5.200  10.699  0.2537  0.3383  0.7900
  120OSM    C1S12654   0.720   5.510  10.513 -0.3857 -0.9207 -0.0121
  120OSM    H1S12655   0.735   5.595  10.582  3.7332 -1.2238 -0.4531
  120OSM    H1T12656   0.615   5.476  10.532 -0.9954  1.3804  0.8777
  120OSM     NF12657   0.668   5.653  10.322  0.3220 -0.0010 -0.4390
  120OSM    HNF12658   0.591   5.635  10.262 -1.0475  0.6688  1.0806
  120OSM    C2S12659   0.735   5.537  10.363 -0.1532  0.8931  0.7098
  120OSM    H2S12660   0.841   5.552  10.333 -0.7410  1.0375 -1.3855
  120OSM    C3S12661   0.680   5.403  10.297 -0.5406  0.1841 -0.3084
  120OSM    H3S12662   0.577   5.376  10.328 -0.6106 -2.6373 -2.6920
  120OSM     O312663   0.741   5.280  10.341 -0.3723  0.2225  0.6231
  120OSM    HO312664   0.791   5.305  10.419 -1.2999  0.5087  1.1391
  120OSM    C4S12665   0.673   5.413  10.143 -0.2512 -0.4186 -0.4862
  120OSM    H4S12666   0.574   5.435  10.100  1.1086  2.7369 -2.1535
  120OSM    C5S12667   0.782   5.413  10.064  0.1161 -0.4288 -0.0414
  120OSM    H5S12668   0.879   5.425  10.114  1.2065 -1.4597 -1.8602
  120OSM    C6S12669   0.781   5.423   9.910 -0.4205 -0.1777 -0.0974
  120OSM    H6S12670   0.833   5.337   9.861 -0.4273  1.0748 -2.4014
  120OSM    H6T12671   0.843   5.509   9.875 -1.0142  0.3966  0.2640
  120OSM    C7S12672   0.640   5.428   9.849  0.1608  0.5442  0.4340
  120OSM    H7S12673   0.583   5.519   9.876 -0.2755  0.3505  0.1712
  120OSM    H7T12674   0.583   5.341   9.888  2.2842 -0.3352  1.6776
  120OSM    C8S12675   0.651   5.413   9.697  0.3114  0.2769  0.4366
  120OSM    H8S12676   0.686   5.312   9.667 -0.9754 -0.2734  0.7715
  120OSM    H8T12677   0.737   5.471   9.656  1.4080 -1.0470  0.8431
  120OSM    C9S12678   0.517   5.442   9.627  0.0749 -1.0833 -0.3440
  120OSM    H9S12679   0.475   5.534   9.672 -1.5518 -2.6266  1.3992
  120OSM    H9T12680   0.445   5.363   9.657 -0.4121 -1.5533 -2.6127
  120OSM   C10S12681   0.546   5.435   9.472  0.0553 -0.4350 -0.2750
  120OSM   H10S12682   0.592   5.338   9.441  0.6986 -1.6587  4.1774
  120OSM   H10T12683   0.634   5.501   9.459 -0.8476  1.1882  1.5795
  120OSM   C11S12684   0.433   5.474   9.374  0.5304 -0.1691 -0.7947
  120OSM   H11S12685   0.471   5.509   9.276  3.3580 -1.1025 -0.0634
  120OSM   H11T12686   0.372   5.559   9.412 -0.5352 -1.0831 -0.4381
  120OSM   C12S12687   0.342   5.352   9.353 -0.4532  0.1259 -0.1015
  120OSM   H12S12688   0.293   5.341   9.453 -0.2328  2.7954  0.3257
  120OSM   H12T12689   0.405   5.262   9.337  2.2438  2.1391 -0.9672
  120OSM   C13S12690   0.236   5.358   9.243  0.4006  0.1661  0.7479
  120OSM   H13S12691   0.280   5.360   9.141  0.7652  0.0021  0.8974
  120OSM   H13T12692   0.183   5.455   9.241  0.0015 -0.0553  0.5319
  120OSM   C14S12693   0.128   5.245   9.253 -0.2562  0.4169  0.3961
  120OSM   H14S12694   0.063   5.252   9.342 -0.2746  2.8023  0.2298
  120OSM   H14T12695   0.189   5.153   9.257 -2.6320 -1.1627  1.0462
  120OSM   C15S12696   0.030   5.243   9.136 -0.4806 -0.5958  0.4809
  120OSM   H15S12697  -0.021   5.342   9.140 -1.3763 -1.0482  0.3605
  120OSM   H15T12698  -0.043   5.162   9.161 -0.1204 -1.1110 -0.1363
  120OSM   C16S12699   0.082   5.209   8.997 -0.2518  1.0604 -0.0004
  120OSM   H16S12700   0.157   5.128   9.012 -2.0067 -0.9790 -1.9417
  120OSM   H16T12701   0.144   5.295   8.965  1.9955  0.3672  2.2797
  120OSM   C17S12702  -0.027   5.173   8.897 -0.3746  0.5303  0.0313
  120OSM   H17S12703  -0.123   5.222   8.925 -1.7053 -1.9443 -0.0713
  120OSM   H17T12704  -0.049   5.065   8.892  1.3222  0.0259  2.4880
  120OSM   C18S12705   0.011   5.216   8.758 -0.8115  0.1849 -0.6088
  120OSM   H18S12706  -0.076   5.197   8.691  0.5305  1.3037 -2.7397
  120OSM   H18T12707   0.097   5.153   8.727 -1.7117 -1.8798  0.9200
  120OSM   H18U12708   0.025   5.326   8.760 -1.9753  0.3344 -0.3674
  120OSM    C1F12709   0.708   5.773  10.356  0.9523 -0.0629 -0.9946
  120OSM     OF12710   0.804   5.791  10.422 -0.3546 -1.1092 -0.6862
  120OSM    C2F12711   0.628   5.891  10.303 -0.4555 -0.7245  0.0052
  120OSM    H2F12712   0.611   5.960  10.388  0.0380  2.7378 -2.5932
  120OSM    H2G12713   0.527   5.855  10.272 -0.8970  1.4589 -1.1534
  120OSM    C3F12714   0.700   5.963  10.188 -0.4902  0.2742 -0.4051
  120OSM    H3F12715   0.704   5.896  10.099  1.7211  2.5887 -2.1317
  120OSM    H3G12716   0.805   5.996  10.207  0.1449 -1.1075 -1.4291
  120OSM    C4F12717   0.619   6.084  10.146  0.3668 -0.3091  0.4864
  120OSM    H4F12718   0.634   6.166  10.219  0.1095  0.0170  0.1679
  120OSM    H4G12719   0.512   6.056  10.136  0.4654 -0.3016 -0.7104
  120OSM    C5F12720   0.654   6.128  10.000 -0.3755 -0.0732 -0.1448
  120OSM    H5F12721   0.653   6.042   9.931  4.0587  0.7513 -1.3578
  120OSM    H5G12722   0.759   6.166   9.999 -0.0642 -0.9296 -0.0006
  120OSM    C6F12723   0.569   6.243   9.946  0.6379  0.0503  0.2550
  120OSM    H6F12724   0.473   6.198   9.913  0.9945 -0.8430  0.4438
  120OSM    H6G12725   0.608   6.280   9.848  1.7678 -1.8427 -0.0305
  120OSM    C7F12726   0.563   6.361  10.036 -0.1820  0.9359 -0.2625
  120OSM    H7F12727   0.654   6.369  10.100  0.0326 -1.2189 -0.2816
  120OSM    H7G12728   0.475   6.342  10.102 -0.6057 -3.1218 -1.8867
  120OSM    C8F12729   0.548   6.499   9.978  0.3776  0.1418 -0.1656
  120OSM    H8F12730   0.545   6.569  10.063 -3.7973 -0.5538  0.3822
  120OSM    H8G12731   0.450   6.498   9.926  0.0607 -2.6773  0.4019
  120OSM    C9F12732   0.669   6.532   9.894  0.0549 -0.8239 -0.8421
  120OSM    H9F12733   0.752   6.566   9.956 -0.5298 -0.0848 -0.4625
  120OSM   C10F12734   0.679   6.538   9.765 -0.3250 -0.1689 -0.8380
  120OSM   H10F12735   0.774   6.570   9.719  0.0769  0.6081  0.5133
  120OSM   C11F12736   0.574   6.509   9.659  0.8089 -0.3472 -0.1952
  120OSM   H11F12737   0.527   6.609   9.642  1.0258 -0.0276  0.9909
  120OSM   H11G12738   0.494   6.442   9.697  0.4405 -0.3842 -1.0289
  120OSM   C12F12739   0.615   6.456   9.527 -0.1441 -0.4084  0.5478
  120OSM   H12F12740   0.689   6.524   9.478 -0.2447 -1.0208 -0.4773
  120OSM   H12G12741   0.521   6.463   9.467  1.7917  0.4022 -2.5383
  120OSM   C13F12742   0.667   6.306   9.521  0.5849 -0.7023  0.5621
  120OSM   H13F12743   0.594   6.250   9.583 -1.0798  0.0334 -0.7182
  120OSM   H13G12744   0.768   6.309   9.569  1.0398 -1.4457 -0.3203
  120OSM   C14F12745   0.686   6.248   9.381  0.0961 -0.4306 -0.1866
  120OSM   H14F12746   0.738   6.327   9.323  0.0412  1.1705  1.8718
  120OSM   H14G12747   0.583   6.239   9.340 -0.0291  0.0008  0.0330
  120OSM   C15F12748   0.748   6.105   9.383 -0.3452  0.1267 -0.0491
  120OSM   H15F12749   0.676   6.035   9.429 -0.1652 -1.2143 -1.7753
  120OSM   H15G12750   0.837   6.102   9.450  0.8925 -1.3183 -1.7212
  120OSM   C16F12751   0.792   6.057   9.247 -0.2184  0.2371  0.2886
  120OSM   H16F12752   0.692   6.052   9.200 -0.1591  1.2684  0.0349
  120OSM   H16G12753   0.835   5.957   9.270  0.7546  0.2975 -1.1953
  120OSM   C17F12754   0.889   6.134   9.163 -0.1471 -0.8163 -0.6257
  120OSM   H17F12755   0.995   6.116   9.193 -1.0113 -3.6088  0.8718
  120OSM   H17G12756   0.857   6.240   9.172 -2.0622 -1.4100 -0.2754
  120OSM   C18F12757   0.892   6.091   9.014  0.6345 -0.2109  0.0009
  120OSM   H18F12758   0.975   6.148   8.967  0.9543 -0.2219  0.5455
  120OSM   H18G12759   0.798   6.114   8.960  0.5954 -2.9267 -1.1630
  120OSM   H18H12760   0.911   5.982   9.002 -0.3143 -0.5032  1.0984
  121OSM      N12761   5.708   1.969  10.840 -0.5695  1.0376  0.1135
  121OSM    C1512762   5.609   1.989  10.729 -0.3629 -0.7841  1.1105
  121OSM   H15A12763   5.507   1.987  10.764 -1.4525  2.1004 -1.6624
  121OSM   H15B12764   5.625   1.918  10.650 -1.1600  2.0312 -1.6957
  121OSM   H15C12765   5.615   2.084  10.677  0.6236 -0.1091  2.4177
  121OSM    C1412766   5.689   2.080  10.944  0.0487 -0.9921 -0.6617
  121OSM   H14A12767   5.605   2.048  11.005  0.7650 -1.2941  0.1623
  121OSM   H14B12768   5.670   2.174  10.894  3.5265 -1.1822 -2.5297
  121OSM   H14C12769   5.774   2.115  10.999 -0.7524  2.8699 -1.7455
  121OSM    C1312770   5.661   1.847  10.918  0.0576  0.3194 -0.5723
  121OSM   H13A12771   5.738   1.824  10.990  0.3490  0.9017 -0.6946
  121OSM   H13B12772   5.650   1.769  10.844 -2.4008  0.8952 -0.8754
  121OSM   H13C12773   5.566   1.874  10.961 -0.4083 -0.4923 -1.0798
  121OSM    C1212774   5.852   1.960  10.798  0.7244 -0.2215  0.6430
  121OSM   H12A12775   5.911   1.958  10.888  0.6692 -1.7402  0.6531
  121OSM   H12B12776   5.884   2.050  10.747  1.4412 -0.2478  1.0460
  121OSM    C1112777   5.896   1.843  10.715  0.8161 -0.1774  0.0798
  121OSM   H11A12778   6.000   1.859  10.678  0.1234 -0.3454 -1.9937
  121OSM   H11B12779   5.839   1.832  10.620  2.2142 -0.6443 -0.7256
  121OSM      P12780   5.978   1.690  10.913 -0.2657 -0.0033  0.4652
  121OSM    O1312781   5.949   1.787  11.021 -0.0114  0.7225 -0.6241
  121OSM    O1412782   5.961   1.546  10.926 -0.9575 -0.4346  0.3279
  121OSM    O1112783   6.122   1.714  10.847 -0.1406 -0.6754 -0.4573
  121OSM    O1212784   5.886   1.726  10.788 -0.5334  0.0556 -0.1767
  121OSM    C1S12785   6.173   1.619  10.759 -0.1319 -0.0971  0.1664
  121OSM    H1S12786   6.100   1.582  10.684  1.4202  0.0865 -1.4910
  121OSM    H1T12787   6.223   1.535  10.811 -0.4647 -0.4807 -0.1290
  121OSM     NF12788   6.317   1.596  10.554  0.2427  0.2877 -0.3714
  121OSM    HNF12789   6.397   1.545  10.585  2.2039  1.6439 -3.0227
  121OSM    C2S12790   6.272   1.688  10.656  0.5239  0.6193 -0.0201
  121OSM    H2S12791   6.217   1.773  10.610  1.6419  1.9135  1.0124
  121OSM    C3S12792   6.395   1.738  10.735 -0.4344  0.1972 -0.8519
  121OSM    H3S12793   6.443   1.648  10.780 -1.0255 -0.1033 -0.8210
  121OSM     O312794   6.358   1.817  10.847 -0.2401 -0.8027  0.3973
  121OSM    HO312795   6.266   1.796  10.865 -0.0925 -1.3950  0.4697
  121OSM    C4S12796   6.502   1.815  10.655  0.1932  0.0850  0.6740
  121OSM    H4S12797   6.460   1.904  10.606 -0.0063  0.9273  2.3467
  121OSM    C5S12798   6.637   1.800  10.646  0.1322 -0.6764 -0.1694
  121OSM    H5S12799   6.682   1.711  10.694 -1.6298 -1.6706 -0.3106
  121OSM    C6S12800   6.718   1.901  10.566  0.2837  0.4086 -0.2193
  121OSM    H6S12801   6.805   1.953  10.613 -0.3700  2.4129 -1.1882
  121OSM    H6T12802   6.652   1.984  10.534  0.3957 -0.1943 -2.0915
  121OSM    C7S12803   6.774   1.833  10.440  0.4306  0.2938 -0.2613
  121OSM    H7S12804   6.700   1.766  10.391  1.9634 -0.9832 -0.8661
  121OSM    H7T12805   6.867   1.777  10.465  0.6100  0.0847 -1.3919
  121OSM    C8S12806   6.799   1.953  10.346  0.0321 -0.0299 -0.5455
  121OSM    H8S12807   6.897   1.995  10.378  0.4287  0.5411 -2.4590
  121OSM    H8T12808   6.713   2.020  10.326 -1.5449 -2.0463 -0.6724
  121OSM    C9S12809   6.830   1.889  10.206  0.4579 -0.1849  0.3909
  121OSM    H9S12810   6.735   1.864  10.154  0.9966 -1.0818 -0.1861
  121OSM    H9T12811   6.881   1.794  10.234 -0.6346 -0.4278  1.6216
  121OSM   C10S12812   6.900   1.972  10.108  0.4768  0.7348 -0.4763
  121OSM   H10S12813   6.998   1.993  10.156  1.0501 -1.9453 -0.4243
  121OSM   H10T12814   6.855   2.068  10.074 -1.6291  0.1168  0.5080
  121OSM   C11S12815   6.922   1.898   9.975 -0.2680  0.4157 -0.3055
  121OSM   H11S12816   6.821   1.866   9.942  1.1064 -2.4299 -1.9666
  121OSM   H11T12817   6.982   1.804   9.981  1.8009  1.7634  1.0261
  121OSM   C12S12818   6.997   1.982   9.876 -0.8468  0.4178  0.5973
  121OSM   H12S12819   7.099   1.997   9.918 -1.1227 -0.0128  1.4484
  121OSM   H12T12820   6.955   2.084   9.862  1.2854  0.7280 -4.5113
  121OSM   C13S12821   6.997   1.920   9.739 -0.4209 -0.3013  0.5997
  121OSM   H13S12822   6.892   1.921   9.701 -0.6125  1.0770  1.1510
  121OSM   H13T12823   7.054   1.825   9.731  1.8970  1.1206 -0.4737
  121OSM   C14S12824   7.062   2.014   9.632 -0.2308  0.8642 -0.0112
  121OSM   H14S12825   7.172   2.022   9.650 -0.2231  3.4644 -0.9551
  121OSM   H14T12826   7.026   2.119   9.634 -2.4273  0.1197 -0.0476
  121OSM   C15S12827   7.045   1.967   9.488  0.4841 -0.1626 -0.0326
  121OSM   H15S12828   6.942   1.996   9.457 -1.2460 -2.3104  3.3043
  121OSM   H15T12829   7.058   1.857   9.476 -1.4696 -0.2852 -1.3142
  121OSM   C16S12830   7.141   2.048   9.396 -0.0614 -0.9707  0.2981
  121OSM   H16S12831   7.235   2.072   9.449  1.8360 -0.3666 -3.1752
  121OSM   H16T12832   7.081   2.141   9.386  1.0366 -0.2669  0.1784
  121OSM   C17S12833   7.167   1.998   9.255  0.4067 -0.6808 -0.2904
  121OSM   H17S12834   7.074   2.020   9.199 -0.5318 -1.6704  0.8655
  121OSM   H17T12835   7.164   1.888   9.272 -0.2496 -0.6174 -0.0001
  121OSM   C18S12836   7.288   2.043   9.185  0.0632  0.0248  0.0688
  121OSM   H18S12837   7.300   2.012   9.079 -0.1756  2.2221 -0.6374
  121OSM   H18T12838   7.379   2.006   9.236  0.9835 -0.0706 -1.6182
  121OSM   H18U12839   7.292   2.153   9.198  0.9368  0.3253 -2.4336
  121OSM    C1F12840   6.233   1.546  10.463 -0.3931  0.2772 -0.4461
  121OSM     OF12841   6.116   1.583  10.463 -0.7700  0.5544 -0.4983
  121OSM    C2F12842   6.276   1.445  10.356  0.6143 -0.6348  0.0235
  121OSM    H2F12843   6.358   1.383  10.397  0.6201  0.7936  2.2474
  121OSM    H2G12844   6.302   1.492  10.258 -1.5813 -0.4859 -0.5136
  121OSM    C3F12845   6.158   1.341  10.321  0.2768  0.8721  0.1843
  121OSM    H3F12846   6.061   1.393  10.306  0.0829  0.7308  0.8999
  121OSM    H3G12847   6.154   1.285  10.417 -0.2950  1.0165  0.2427
  121OSM    C4F12848   6.205   1.246  10.208  0.7083  0.3896 -0.1397
  121OSM    H4F12849   6.307   1.207  10.228  2.0117  2.3187 -2.7100
  121OSM    H4G12850   6.220   1.321  10.128  1.4071  1.1051  0.6549
  121OSM    C5F12851   6.105   1.138  10.158 -0.2045 -0.1872  0.0872
  121OSM    H5F12852   6.010   1.189  10.132  0.2665  1.5457  1.6568
  121OSM    H5G12853   6.075   1.057  10.228  2.4961 -0.7220  0.6904
  121OSM    C6F12854   6.168   1.067  10.034  0.2827 -0.4086  0.1653
  121OSM    H6F12855   6.132   0.962  10.039  0.3029 -0.3695  1.2699
  121OSM    H6G12856   6.277   1.053  10.047  0.2537  0.2740  1.2627
  121OSM    C7F12857   6.137   1.134   9.897  0.1149 -0.4474  0.0138
  121OSM    H7F12858   6.184   1.233   9.883  1.4072 -1.2359 -1.3619
  121OSM    H7G12859   6.026   1.136   9.893  0.0304 -1.8638  1.1129
  121OSM    C8F12860   6.185   1.041   9.778  0.2672 -0.4104 -0.1156
  121OSM    H8F12861   6.122   0.951   9.789  0.4232 -0.5594 -0.4341
  121OSM    H8G12862   6.286   0.998   9.788  0.5167  0.3336  0.6636
  121OSM    C9F12863   6.168   1.100   9.643 -0.4935  0.3354  0.3888
  121OSM    H9F12864   6.125   1.199   9.621  0.7475  0.2803 -2.4662
  121OSM   C10F12865   6.207   1.029   9.528 -0.3504  0.1514  0.2342
  121OSM   H10F12866   6.203   1.076   9.428  1.5751  1.2863  0.6693
  121OSM   C11F12867   6.276   0.897   9.521  0.1817  0.0010 -0.0405
  121OSM   H11F12868   6.229   0.822   9.589  3.9415 -1.6952  0.8393
  121OSM   H11G12869   6.373   0.914   9.573 -1.2020  0.4163  2.5336
  121OSM   C12F12870   6.309   0.828   9.388  1.1062 -0.7070  0.1384
  121OSM   H12F12871   6.332   0.723   9.416  2.0720 -0.5457 -0.0546
  121OSM   H12G12872   6.401   0.875   9.348  0.1221  0.8188 -0.3787
  121OSM   C13F12873   6.209   0.833   9.281 -0.1432  0.3493  1.0066
  121OSM   H13F12874   6.175   0.936   9.255 -1.5044 -0.0427  1.2046
  121OSM   H13G12875   6.116   0.773   9.293 -0.9834  1.1449 -1.2371
  121OSM   C14F12876   6.275   0.774   9.152 -0.3135  0.1333  0.0512
  121OSM   H14F12877   6.293   0.666   9.172 -2.0943  0.4152  3.6317
  121OSM   H14G12878   6.366   0.831   9.123 -0.1323 -1.1329 -1.9569
  121OSM   C15F12879   6.182   0.778   9.034 -0.6536  0.2227 -0.0919
  121OSM   H15F12880   6.113   0.865   9.038  0.1539  0.7751  2.3811
  121OSM   H15G12881   6.123   0.684   9.038 -0.4061 -0.0826 -2.3944
  121OSM   C16F12882   6.243   0.783   8.892 -0.0378  0.1461  0.4231
  121OSM   H16F12883   6.324   0.708   8.882 -0.4229 -0.1211 -0.8574
  121OSM   H16G12884   6.285   0.884   8.876  3.1455 -0.9546  1.4521
  121OSM   C17F12885   6.129   0.744   8.795  0.1340 -1.0611  0.7382
  121OSM   H17F12886   6.063   0.833   8.799 -0.7061 -1.6653  0.4022
  121OSM   H17G12887   6.068   0.661   8.835 -1.0838 -0.4840  0.1181
  121OSM   C18F12888   6.177   0.710   8.660 -0.4836  0.2183  0.6826
  121OSM   H18F12889   6.253   0.785   8.628 -2.3150  1.0261 -1.9514
  121OSM   H18G12890   6.091   0.696   8.592 -0.6188 -0.1419  0.9300
  121OSM   H18H12891   6.225   0.610   8.656 -0.8065  0.1067 -0.4575
  122OSM      N12892   0.506   6.165  10.932  0.0767 -0.0184  0.4887
  122OSM    C1512893   0.517   6.291  11.015  0.2244  0.1399  0.4680
  122OSM   H15A12894   0.618   6.329  11.021 -0.2775  1.8744 -1.3548
  122OSM   H15B12895   0.487   6.275  11.118  2.3610 -0.9557  0.9502
  122OSM   H15C12896   0.455   6.358  10.958  0.6634  0.8362  0.7963
  122OSM    C1412897   0.578   6.052  11.002 -1.0215  0.2661 -0.5592
  122OSM   H14A12898   0.539   6.034  11.101  0.7429 -1.3797 -0.1557
  122OSM   H14B12899   0.680   6.074  11.029 -0.6416 -2.9872  0.8488
  122OSM   H14C12900   0.572   5.966  10.936 -0.4953 -0.7608  0.7236
  122OSM    C1312901   0.363   6.126  10.923  0.0449 -0.0110 -0.4966
  122OSM   H13A12902   0.364   6.029  10.874  1.2585 -0.1083 -0.3046
  122OSM   H13B12903   0.307   6.194  10.861  0.4152  2.9415  2.2928
  122OSM   H13C12904   0.317   6.115  11.020  0.5855 -1.7715 -0.4091
  122OSM    C1212905   0.562   6.196  10.797 -0.3464 -0.3500  0.3063
  122OSM   H12A12906   0.528   6.126  10.722  1.2353  0.5234 -1.2460
  122OSM   H12B12907   0.668   6.180  10.811 -0.7356 -2.8747  0.6480
  122OSM    C1112908   0.532   6.337  10.736  0.5085 -0.5481  1.0557
  122OSM   H11A12909   0.422   6.352  10.738  0.7164  1.2282 -0.0161
  122OSM   H11B12910   0.563   6.322  10.630  4.3493 -0.9628  2.1683
  122OSM      P12911   0.548   6.593  10.788  0.3382  0.0472  0.1230
  122OSM    O1312912   0.406   6.607  10.827 -0.0099 -0.0221 -0.4483
  122OSM    O1412913   0.648   6.683  10.853 -0.4458  0.0059 -0.2314
  122OSM    O1112914   0.564   6.625  10.635 -0.3824 -0.4662 -0.2478
  122OSM    O1212915   0.599   6.443  10.806 -0.1582  0.0761 -0.1131
  122OSM    C1S12916   0.686   6.608  10.564  0.5037 -0.2939  0.0837
  122OSM    H1S12917   0.737   6.513  10.590  1.4752  0.1527 -0.1374
  122OSM    H1T12918   0.761   6.683  10.599 -0.0747  0.9086 -1.1863
  122OSM     NF12919   0.771   6.589  10.323  0.0654 -0.0285 -0.1533
  122OSM    HNF12920   0.817   6.659  10.268 -0.3411 -0.8574 -1.5607
  122OSM    C2S12921   0.657   6.621  10.411 -0.3507  0.1758 -0.0616
  122OSM    H2S12922   0.568   6.556  10.408 -0.8999  0.8789  0.7049
  122OSM    C3S12923   0.609   6.772  10.387  0.3536  0.4798 -0.2360
  122OSM    H3S12924   0.688   6.850  10.397  0.6068  0.5322 -2.5437
  122OSM     O312925   0.504   6.811  10.474  0.6443 -0.0486  0.2117
  122OSM    HO312926   0.504   6.739  10.537 -0.4336 -1.4276 -1.3239
  122OSM    C4S12927   0.559   6.792  10.241 -0.9704 -0.5421  0.3522
  122OSM    H4S12928   0.467   6.741  10.209 -1.2895 -0.0960  0.5495
  122OSM    C5S12929   0.629   6.874  10.156  0.3822 -0.6864  0.3714
  122OSM    H5S12930   0.716   6.929  10.193  0.5963 -1.5569  1.1964
  122OSM    C6S12931   0.596   6.901  10.007  0.5675  0.3134 -0.4670
  122OSM    H6S12932   0.660   6.842   9.937  0.2316  0.0105 -0.5267
  122OSM    H6T12933   0.604   7.010   9.989  2.6898  0.1879 -0.3258
  122OSM    C7S12934   0.452   6.862   9.964  0.1452 -0.3516  0.0061
  122OSM    H7S12935   0.384   6.923  10.027  1.0992  0.4625  0.2691
  122OSM    H7T12936   0.427   6.755   9.980  1.3413 -0.9265 -1.7881
  122OSM    C8S12937   0.435   6.890   9.815  0.6501 -0.1087 -0.0845
  122OSM    H8S12938   0.486   6.811   9.755  1.3668  0.2939 -0.0052
  122OSM    H8T12939   0.481   6.988   9.788  1.3265 -0.9044 -1.9203
  122OSM    C9S12940   0.291   6.891   9.759 -1.0367 -0.2082  0.3776
  122OSM    H9S12941   0.240   6.972   9.815  1.8828  1.4902  0.6704
  122OSM    H9T12942   0.255   6.790   9.786  1.6253 -1.9553 -2.3083
  122OSM   C10S12943   0.283   6.915   9.604  0.1197 -0.3678  0.1891
  122OSM   H10S12944   0.352   6.844   9.554  0.9703 -0.1105  0.9952
  122OSM   H10T12945   0.321   7.018   9.587 -1.7580  0.0317 -1.8869
  122OSM   C11S12946   0.132   6.911   9.560 -0.1085 -0.1875  0.3842
  122OSM   H11S12947   0.066   6.964   9.631 -0.9280 -1.8339  0.8656
  122OSM   H11T12948   0.099   6.805   9.557 -0.3277 -0.1152  0.2309
  122OSM   C12S12949   0.129   6.970   9.414  0.2984  0.5484 -0.6342
  122OSM   H12S12950   0.186   7.064   9.399 -0.5463  0.9111 -1.6522
  122OSM   H12T12951   0.022   6.987   9.387  0.1754 -0.2534 -0.6683
  122OSM   C13S12952   0.182   6.878   9.298 -0.5941 -0.2200  0.1168
  122OSM   H13S12953   0.133   6.780   9.313 -0.5336  0.0755  2.3905
  122OSM   H13T12954   0.285   6.858   9.336 -0.0827 -0.8278 -1.5422
  122OSM   C14S12955   0.167   6.924   9.155  0.3662 -0.2665  0.0322
  122OSM   H14S12956   0.223   6.853   9.091 -1.1159 -0.5288 -1.0035
  122OSM   H14T12957   0.208   7.026   9.139  0.1451 -0.1295  0.3208
  122OSM   C15S12958   0.023   6.935   9.105  0.4999  0.1947  0.1135
  122OSM   H15S12959  -0.022   7.010   9.174  1.8706  0.2145  0.9934
  122OSM   H15T12960  -0.033   6.841   9.121  0.2745  0.0029 -1.6713
  122OSM   C16S12961   0.019   6.957   8.953  0.2285 -0.9552  0.8019
  122OSM   H16S12962  -0.082   6.963   8.906  0.7574 -0.5386 -0.3057
  122OSM   H16T12963   0.067   6.868   8.906 -1.7433 -0.9151 -1.3999
  122OSM   C17S12964   0.103   7.078   8.900  0.6015  0.3909  1.2016
  122OSM   H17S12965   0.200   7.091   8.952  1.6283  2.7820 -1.2167
  122OSM   H17T12966   0.053   7.172   8.932  1.3043  0.2218  2.8411
  122OSM   C18S12967   0.121   7.071   8.750  0.3506  0.3802 -0.0362
  122OSM   H18S12968   0.190   6.992   8.714 -0.3596  0.0321 -0.6331
  122OSM   H18T12969   0.181   7.159   8.716  2.4702 -1.1662 -0.4009
  122OSM   H18U12970   0.033   7.076   8.683  0.1505  1.3151  0.2868
  122OSM    C1F12971   0.807   6.462  10.311 -0.4643 -0.0013  0.0093
  122OSM     OF12972   0.731   6.372  10.362 -0.4615 -0.1792 -0.0058
  122OSM    C2F12973   0.931   6.429  10.232  0.5473  0.6115  0.3713
  122OSM    H2F12974   1.023   6.482  10.266  1.7307 -0.6786 -0.7180
  122OSM    H2G12975   0.913   6.458  10.126 -2.3529 -3.7499 -0.4534
  122OSM    C3F12976   0.943   6.272  10.227  0.3032 -0.1334 -0.0672
  122OSM    H3F12977   0.851   6.220  10.192  0.5508  1.0688 -2.5825
  122OSM    H3G12978   0.958   6.235  10.331  0.5085  0.4348  0.1085
  122OSM    C4F12979   1.056   6.224  10.138 -0.4992  0.3140  0.2376
  122OSM    H4F12980   1.023   6.227  10.032  1.1804  1.6419 -0.2651
  122OSM    H4G12981   1.069   6.114  10.153 -0.9478  0.0047 -1.4825
  122OSM    C5F12982   1.187   6.307  10.142  0.2702 -0.3684 -0.1034
  122OSM    H5F12983   1.239   6.296  10.240  0.1015 -1.8812 -0.1682
  122OSM    H5G12984   1.162   6.410  10.109 -2.3623 -1.3274 -1.1913
  122OSM    C6F12985   1.296   6.253  10.039 -0.1192  0.0903 -1.3035
  122OSM    H6F12986   1.259   6.252   9.934  0.3065 -0.6327 -1.4484
  122OSM    H6G12987   1.324   6.152  10.076  1.5333  2.0909  3.3290
  122OSM    C7F12988   1.419   6.345  10.030  0.0264 -0.0161 -0.1282
  122OSM    H7F12989   1.508   6.283  10.005  2.1420  2.6620  0.4095
  122OSM    H7G12990   1.449   6.380  10.132 -0.8741 -0.0651  0.1526
  122OSM    C8F12991   1.398   6.457   9.927 -0.1594 -0.1072  0.0564
  122OSM    H8F12992   1.297   6.501   9.939 -0.7533 -1.4423  0.0508
  122OSM    H8G12993   1.407   6.413   9.826 -2.2339  0.6699 -0.4927
  122OSM    C9F12994   1.502   6.562   9.952  1.3113 -0.6867 -0.7049
  122OSM    H9F12995   1.509   6.602  10.054  0.0409  0.1843 -0.9415
  122OSM   C10F12996   1.561   6.622   9.852  0.3480  0.7861 -0.3222
  122OSM   H10F12997   1.638   6.694   9.885 -0.8095  2.2723 -0.8418
  122OSM   C11F12998   1.554   6.610   9.705  0.4238 -0.3540 -0.1339
  122OSM   H11F12999   1.481   6.529   9.681  1.3063 -0.5737 -2.1671
  122OSM   H11G13000   1.654   6.592   9.662  0.2891  2.4271 -1.6474
  122OSM   C12F13001   1.496   6.737   9.642  0.6258  0.1339  0.1807
  122OSM   H12F13002   1.564   6.825   9.650  1.5967 -0.5679 -0.4047
  122OSM   H12G13003   1.405   6.765   9.700  0.5551  1.8044 -0.6902
  122OSM   C13F13004   1.451   6.723   9.494  0.0875  0.1926  0.9987
  122OSM   H13F13005   1.414   6.820   9.454 -0.7154 -0.7440 -0.5526
  122OSM   H13G13006   1.367   6.651   9.498 -0.1514  0.4739  1.0875
  122OSM   C14F13007   1.558   6.662   9.402  0.3505  0.1284  0.4885
  122OSM   H14F13008   1.513   6.676   9.302 -0.4906  0.2212  0.8831
  122OSM   H14G13009   1.584   6.555   9.418  0.4300 -0.0491 -0.7779
  122OSM   C15F13010   1.686   6.744   9.383  0.0852 -0.3583 -0.7704
  122OSM   H15F13011   1.747   6.742   9.476  0.5328  0.0521 -1.0510
  122OSM   H15G13012   1.650   6.848   9.368 -1.1794 -0.5757  0.7035
  122OSM   C16F13013   1.789   6.709   9.276  0.4316  0.2316 -0.4072
  122OSM   H16F13014   1.809   6.600   9.271 -0.1973  0.1173 -0.4681
  122OSM   H16G13015   1.885   6.761   9.300 -0.1506  1.3655 -0.4952
  122OSM   C17F13016   1.756   6.747   9.131  0.1504  0.1856 -0.1037
  122OSM   H17F13017   1.753   6.858   9.125  1.0415  0.1369 -1.7880
  122OSM   H17G13018   1.655   6.703   9.116  0.1205  0.4810 -0.7576
  122OSM   C18F13019   1.846   6.689   9.030  0.0576  0.6839 -0.1719
  122OSM   H18F13020   1.812   6.708   8.926  0.3690  1.2066 -0.1800
  122OSM   H18G13021   1.856   6.579   9.039 -1.0435  0.5123 -0.9174
  122OSM   H18H13022   1.942   6.743   9.040  1.1170 -1.1913  0.0295
  123OSM      N13023   4.067   4.845   5.770 -0.3849 -0.2100  0.0212
  123OSM    C1513024   4.139   4.714   5.786  0.4079 -0.0395 -0.0365
  123OSM   H15A13025   4.229   4.715   5.726 -0.1247 -1.6060 -0.8639
  123OSM   H15B13026   4.061   4.643   5.769 -1.0336  1.5622 -0.2358
  123OSM   H15C13027   4.164   4.702   5.891 -1.2860  2.9908  0.7898
  123OSM    C1413028   4.010   4.843   5.632  0.2347 -0.7946  0.1923
  123OSM   H14A13029   3.970   4.939   5.601  0.4759 -0.7541  0.0057
  123OSM   H14B13030   3.934   4.768   5.620  1.7364 -2.4642  0.9406
  123OSM   H14C13031   4.084   4.822   5.557 -1.6205  0.8687 -2.1678
  123OSM    C1313032   3.951   4.853   5.863  0.3862  0.0080  0.1329
  123OSM   H13A13033   3.888   4.939   5.848 -2.2822 -2.0864 -1.3226
  123OSM   H13B13034   3.984   4.853   5.966 -0.3861  0.2527  0.3839
  123OSM   H13C13035   3.890   4.763   5.856  1.0744 -0.4365 -0.1481
  123OSM    C1213036   4.173   4.957   5.787 -0.3001  0.4505 -0.4137
  123OSM   H12A13037   4.125   5.047   5.752 -1.5516 -0.3915 -0.8886
  123OSM   H12B13038   4.254   4.928   5.721 -0.0467 -2.1429  0.9569
  123OSM    C1113039   4.224   4.977   5.931 -0.5286 -0.1422  0.1257
  123OSM   H11A13040   4.136   5.027   5.976 -1.5378 -0.9797 -0.8491
  123OSM   H11B13041   4.314   5.038   5.911  0.0986 -0.6254  1.4351
  123OSM      P13042   4.414   4.809   5.993 -0.2622  0.1671  0.0409
  123OSM    O1313043   4.420   4.674   6.054 -0.5285 -0.2593 -0.2250
  123OSM    O1413044   4.450   4.815   5.850 -0.2937  0.3867 -0.0434
  123OSM    O1113045   4.487   4.921   6.073  0.0083 -0.1881  0.2051
  123OSM    O1213046   4.258   4.850   5.989 -0.0291 -0.3917  0.1039
  123OSM    C1S13047   4.428   4.980   6.191 -0.2036  0.4944 -0.2466
  123OSM    H1S13048   4.318   4.966   6.186 -0.3291  1.5349 -0.7748
  123OSM    H1T13049   4.432   5.091   6.179  1.2453  0.5807  0.9113
  123OSM     NF13050   4.411   4.956   6.433 -0.2061  0.1371 -0.0867
  123OSM    HNF13051   4.436   5.041   6.478 -1.7007  0.0118  1.0280
  123OSM    C2S13052   4.496   4.923   6.319  0.2315  0.1664  0.6363
  123OSM    H2S13053   4.499   4.813   6.312  0.5645  0.2018  0.1917
  123OSM    C3S13054   4.642   4.986   6.329 -0.0112  0.7417  0.0785
  123OSM    H3S13055   4.623   5.094   6.347 -1.1062  0.9141 -1.9377
  123OSM     O313056   4.712   4.955   6.211 -0.3870 -0.5181  0.2657
  123OSM    HO313057   4.647   4.946   6.141 -0.5899 -1.9828  0.6253
  123OSM    C4S13058   4.721   4.947   6.454 -0.5050  0.4294 -0.0525
  123OSM    H4S13059   4.687   4.990   6.550  1.5915 -0.9324  1.3433
  123OSM    C5S13060   4.819   4.847   6.459  0.1390  0.5174  0.0122
  123OSM    H5S13061   4.837   4.776   6.377 -0.6229  0.4394 -0.0908
  123OSM    C6S13062   4.900   4.792   6.579  0.2698  0.6832 -0.0784
  123OSM    H6S13063   5.008   4.819   6.578  0.4646 -0.0465  1.1273
  123OSM    H6T13064   4.910   4.681   6.586 -2.1226  0.4523  0.0595
  123OSM    C7S13065   4.835   4.827   6.713 -0.3850 -0.1322 -0.6125
  123OSM    H7S13066   4.728   4.798   6.711 -1.2192  2.8084 -0.8843
  123OSM    H7T13067   4.835   4.938   6.724  0.6745 -0.1840 -0.0363
  123OSM    C8S13068   4.907   4.775   6.839 -0.4467  0.3217 -0.3837
  123OSM    H8S13069   5.013   4.805   6.819  0.0283 -0.5812  0.6999
  123OSM    H8T13070   4.906   4.664   6.846 -0.3153  0.2587 -1.2800
  123OSM    C9S13071   4.850   4.837   6.961  0.0891 -0.0198  0.7481
  123OSM    H9S13072   4.743   4.809   6.968 -0.0572  0.3345 -0.0185
  123OSM    H9T13073   4.862   4.947   6.948  0.9343 -0.1942  0.0109
  123OSM   C10S13074   4.922   4.789   7.086  0.0115 -0.1886 -0.4518
  123OSM   H10S13075   5.029   4.816   7.070 -0.8580  3.0486 -1.0287
  123OSM   H10T13076   4.919   4.678   7.086 -0.9681 -0.1672  0.4341
  123OSM   C11S13077   4.878   4.853   7.222  0.0217 -0.6223 -0.1740
  123OSM   H11S13078   4.777   4.815   7.247 -0.4601  1.0376  0.4525
  123OSM   H11T13079   4.868   4.962   7.205  0.5103 -0.4915  0.3694
  123OSM   C12S13080   4.975   4.825   7.340  0.3204  0.1237  0.7736
  123OSM   H12S13081   5.067   4.887   7.334  1.9202 -2.2034  0.6119
  123OSM   H12T13082   4.997   4.716   7.338 -0.3900 -0.0163  0.4001
  123OSM   C13S13083   4.906   4.854   7.481  0.4766  0.1529  0.1975
  123OSM   H13S13084   4.811   4.798   7.494 -0.2213  1.4703  0.7887
  123OSM   H13T13085   4.874   4.960   7.488 -0.3503 -0.1853  1.5066
  123OSM   C14S13086   5.001   4.815   7.587  0.3044  0.0613 -0.7039
  123OSM   H14S13087   5.099   4.866   7.594  0.3624  0.1442 -1.9255
  123OSM   H14T13088   5.008   4.704   7.583  3.5918  0.2207 -0.1383
  123OSM   C15S13089   4.933   4.829   7.720  0.4254 -0.0093 -0.1258
  123OSM   H15S13090   4.839   4.772   7.730 -0.2399  1.1226  0.1617
  123OSM   H15T13091   4.896   4.931   7.744  1.8285  0.2885  0.8410
  123OSM   C16S13092   5.011   4.775   7.836 -0.3039 -0.0535 -0.4242
  123OSM   H16S13093   5.103   4.837   7.841 -2.5147  3.3840 -0.9982
  123OSM   H16T13094   5.035   4.670   7.807  0.3572 -0.1176  0.3221
  123OSM   C17S13095   4.940   4.768   7.977 -0.1259 -0.5134  0.0019
  123OSM   H17S13096   5.011   4.738   8.057  0.6794  0.5524 -0.3026
  123OSM   H17T13097   4.856   4.696   7.975 -0.7772  0.2734 -1.5720
  123OSM   C18S13098   4.886   4.903   8.023  0.4142  0.0881 -0.6681
  123OSM   H18S13099   4.794   4.924   7.965  0.0273  0.0420 -0.0679
  123OSM   H18T13100   4.958   4.987   8.011 -0.0224  0.8854  1.9827
  123OSM   H18U13101   4.855   4.897   8.129  1.8680  0.8144 -0.1874
  123OSM    C1F13102   4.290   4.913   6.462  0.2739  0.8622  0.5864
  123OSM     OF13103   4.233   4.838   6.385 -0.0046  0.4286  0.1796
  123OSM    C2F13104   4.222   4.962   6.590 -1.0766  0.4150  0.3840
  123OSM    H2F13105   4.256   5.065   6.615 -0.7424  0.2667  0.5433
  123OSM    H2G13106   4.254   4.900   6.677 -3.7866 -1.3607  0.1594
  123OSM    C3F13107   4.072   4.966   6.584  0.1376  0.6238 -0.1565
  123OSM    H3F13108   4.027   4.879   6.530 -0.6955 -1.1545  3.2400
  123OSM    H3G13109   4.044   5.061   6.534  0.4094 -0.3706 -2.2819
  123OSM    C4F13110   4.005   4.975   6.717  0.1569 -0.2859 -0.3539
  123OSM    H4F13111   3.895   4.964   6.701 -0.0154  0.4823  0.3047
  123OSM    H4G13112   4.016   5.077   6.758 -1.5509 -0.7794  1.4276
  123OSM    C5F13113   4.048   4.874   6.822 -0.1862 -0.1404  0.1629
  123OSM    H5F13114   4.156   4.875   6.847 -0.3942 -3.9596  1.6482
  123OSM    H5G13115   4.018   4.776   6.778 -1.2970 -0.1364  0.8892
  123OSM    C6F13116   3.963   4.894   6.950 -0.0874 -0.3340 -0.3310
  123OSM    H6F13117   3.855   4.906   6.927 -0.4500 -1.2864  0.8061
  123OSM    H6G13118   3.989   4.995   6.988  3.0517 -0.9649 -0.6416
  123OSM    C7F13119   3.972   4.787   7.054  0.2181 -0.0648  0.0941
  123OSM    H7F13120   3.940   4.695   7.001  1.3789 -1.3187  1.5082
  123OSM    H7G13121   3.905   4.793   7.142  0.8555  0.1389  0.5769
  123OSM    C8F13122   4.117   4.757   7.096 -0.2191  0.3109  0.6344
  123OSM    H8F13123   4.168   4.856   7.097  0.6985 -0.1506  0.4276
  123OSM    H8G13124   4.159   4.689   7.018 -1.9647 -0.9800  0.7876
  123OSM    C9F13125   4.119   4.676   7.224  0.2373 -0.6737 -0.3184
  123OSM    H9F13126   4.110   4.567   7.212  1.7707 -0.7672 -0.7501
  123OSM   C10F13127   4.130   4.716   7.345  0.2758 -0.0062  0.2850
  123OSM   H10F13128   4.124   4.641   7.425  2.1474  0.7546  1.1556
  123OSM   C11F13129   4.145   4.855   7.386  0.3571 -0.0730  0.2499
  123OSM   H11F13130   4.079   4.921   7.326 -1.1278 -1.2911  0.5158
  123OSM   H11G13131   4.250   4.887   7.372  0.6847 -1.9834 -1.8075
  123OSM   C12F13132   4.126   4.882   7.538  0.2683 -0.1357  0.4686
  123OSM   H12F13133   4.139   4.987   7.569 -1.2269 -0.4017  2.0278
  123OSM   H12G13134   4.215   4.833   7.584  0.4842 -0.2648 -0.0829
  123OSM   C13F13135   3.991   4.839   7.600  0.4144  0.1935  0.7685
  123OSM   H13F13136   3.988   4.728   7.602 -0.0475  0.1871  0.0561
  123OSM   H13G13137   3.898   4.862   7.544  1.1586  1.1204 -0.0969
  123OSM   C14F13138   3.968   4.896   7.740  0.0881 -0.5979 -0.5065
  123OSM   H14F13139   3.863   4.885   7.773  1.5066  0.1388  4.6419
  123OSM   H14G13140   3.993   5.004   7.747  1.2899 -0.5324 -4.5306
  123OSM   C15F13141   4.045   4.824   7.846  0.0110 -0.2203  0.1309
  123OSM   H15F13142   4.151   4.858   7.840  0.2398 -0.6117  1.6758
  123OSM   H15G13143   4.054   4.714   7.835 -1.5855 -0.8021  3.7740
  123OSM   C16F13144   4.003   4.843   7.996 -0.3734 -0.2634 -0.4424
  123OSM   H16F13145   3.904   4.792   8.002 -0.6772  0.0967 -2.1200
  123OSM   H16G13146   3.985   4.951   8.018  2.3039 -0.1278  1.2966
  123OSM   C17F13147   4.100   4.776   8.094 -0.6168 -0.1857 -0.6242
  123OSM   H17F13148   4.194   4.835   8.094 -0.3535 -0.6139 -0.1992
  123OSM   H17G13149   4.115   4.671   8.062  3.0476  0.0778 -0.0045
  123OSM   C18F13150   4.046   4.766   8.241  0.2387  0.8326 -0.0367
  123OSM   H18F13151   3.940   4.735   8.230  0.6159 -0.7944  0.7421
  123OSM   H18G13152   4.047   4.869   8.284 -0.0927  0.4741  0.8408
  123OSM   H18H13153   4.099   4.694   8.307 -0.3984  0.0333 -0.3890
  124OSM      N13154   1.172   2.879   6.011  0.6115 -0.1395 -0.6425
  124OSM    C1513155   1.311   2.874   6.058  0.6722 -0.1929  0.3499
  124OSM   H15A13156   1.331   2.892   6.163  0.5836 -2.3182  0.7589
  124OSM   H15B13157   1.379   2.933   5.999 -0.4643  0.4853 -0.2819
  124OSM   H15C13158   1.343   2.771   6.050  0.2999 -0.5945  3.2885
  124OSM    C1413159   1.121   3.020   6.008  0.7467 -0.3571  0.2301
  124OSM   H14A13160   1.186   3.085   5.952  1.5661 -0.0492  1.5280
  124OSM   H14B13161   1.122   3.060   6.108  0.1396  0.9466 -0.2771
  124OSM   H14C13162   1.020   3.024   5.970  1.1606 -2.5365 -1.1923
  124OSM    C1313163   1.163   2.833   5.872  0.5477 -0.2383 -0.2765
  124OSM   H13A13164   1.061   2.827   5.838  0.7997 -0.0573 -1.0959
  124OSM   H13B13165   1.196   2.732   5.854  0.8583 -0.5456  1.9754
  124OSM   H13C13166   1.216   2.901   5.806 -1.7300  1.1636 -0.7191
  124OSM    C1213167   1.087   2.794   6.098  0.0451  0.5638 -0.3143
  124OSM   H12A13168   1.125   2.693   6.096  2.2037  1.2851  1.6587
  124OSM   H12B13169   0.984   2.797   6.067  0.0680 -1.4256 -0.6428
  124OSM    C1113170   1.087   2.814   6.260 -0.1085  0.5184  0.7590
  124OSM   H11A13171   1.192   2.828   6.294 -0.0059 -1.7024  1.4336
  124OSM   H11B13172   1.060   2.722   6.315  0.6087 -0.3923 -0.4015
  124OSM      P13173   0.865   2.918   6.308 -0.1973  0.2996  0.3732
  124OSM    O1313174   0.812   3.055   6.269  0.1976  0.4933  0.1079
  124OSM    O1413175   0.813   2.804   6.234  0.7061  0.0098  0.3664
  124OSM    O1113176   0.847   2.881   6.460  0.1706 -0.4156 -0.5147
  124OSM    O1213177   1.019   2.930   6.294  0.1941  1.1070  0.2324
  124OSM    C1S13178   0.933   2.948   6.559 -0.0813 -0.2404 -0.7714
  124OSM    H1S13179   0.955   3.055   6.537 -2.1701  0.1492 -1.1014
  124OSM    H1T13180   1.027   2.889   6.557  0.7897  1.1261 -1.4797
  124OSM     NF13181   0.903   3.049   6.779  0.4866 -0.0521 -0.7781
  124OSM    HNF13182   0.949   3.014   6.860 -1.7788 -1.4287 -0.0276
  124OSM    C2S13183   0.858   2.943   6.692  0.4276  0.4011 -0.2431
  124OSM    H2S13184   0.751   2.960   6.665 -0.7929 -1.3401  3.1500
  124OSM    C3S13185   0.875   2.801   6.756  0.3002 -0.2907  0.3399
  124OSM    H3S13186   0.981   2.785   6.786  0.2646 -0.0273  0.6112
  124OSM     O313187   0.846   2.688   6.665  0.0166  0.5591 -0.4996
  124OSM    HO313188   0.811   2.723   6.582 -0.6607 -2.3657 -1.4941
  124OSM    C4S13189   0.803   2.786   6.881  0.4422  0.4492 -0.1860
  124OSM    H4S13190   0.873   2.802   6.965 -1.8710  1.1852  1.6465
  124OSM    C5S13191   0.668   2.783   6.907  0.3597  0.4307 -0.6925
  124OSM    H5S13192   0.591   2.804   6.831 -1.3659 -0.1485  0.8498
  124OSM    C6S13193   0.614   2.764   7.048 -0.3456 -0.2627  0.0362
  124OSM    H6S13194   0.687   2.725   7.121  1.5450  1.8604 -0.6785
  124OSM    H6T13195   0.525   2.697   7.048  1.0648 -2.2324  3.2076
  124OSM    C7S13196   0.559   2.899   7.100  0.2112 -0.0894 -0.1566
  124OSM    H7S13197   0.500   2.942   7.016 -0.6749  0.2576  0.6390
  124OSM    H7T13198   0.626   2.986   7.119 -1.0478  0.8135  0.2424
  124OSM    C8S13199   0.475   2.885   7.231  0.1608 -0.2674  0.0354
  124OSM    H8S13200   0.399   2.804   7.218  0.7067 -0.4324 -2.4210
  124OSM    H8T13201   0.424   2.982   7.246 -0.6723 -0.9790  2.0550
  124OSM    C9S13202   0.562   2.852   7.353 -0.1503  0.9907 -0.3913
  124OSM    H9S13203   0.626   2.942   7.367 -0.4682  1.1375  0.1296
  124OSM    H9T13204   0.628   2.765   7.332 -0.3202  0.6095  0.6554
  124OSM   C10S13205   0.486   2.824   7.483 -0.3964  0.0305 -0.3789
  124OSM   H10S13206   0.418   2.739   7.461  0.8397 -1.4931  1.5843
  124OSM   H10T13207   0.432   2.919   7.504 -0.8381 -0.8083  2.5002
  124OSM   C11S13208   0.581   2.791   7.598  0.2976  0.2958  0.0508
  124OSM   H11S13209   0.627   2.884   7.637 -0.7362  1.8194 -2.2694
  124OSM   H11T13210   0.666   2.733   7.557 -0.1548 -1.2169  1.1761
  124OSM   C12S13211   0.523   2.699   7.714 -0.5126  0.0170 -0.3526
  124OSM   H12S13212   0.539   2.596   7.677 -0.4234 -0.1782  0.2286
  124OSM   H12T13213   0.413   2.715   7.721 -0.4952  0.7318 -1.5266
  124OSM   C13S13214   0.585   2.721   7.852 -0.4458  0.1331  0.1388
  124OSM   H13S13215   0.539   2.810   7.900  0.8210  0.8728  0.0106
  124OSM   H13T13216   0.694   2.741   7.845  0.0030 -2.5318 -1.0901
  124OSM   C14S13217   0.577   2.600   7.947 -0.5453  0.4760 -1.0164
  124OSM   H14S13218   0.635   2.511   7.913  0.3372  0.2040  1.1477
  124OSM   H14T13219   0.469   2.576   7.957 -1.2192  2.2840 -3.5487
  124OSM   C15S13220   0.657   2.631   8.071  0.1321 -0.4819 -0.3800
  124OSM   H15S13221   0.609   2.716   8.125 -1.5196 -2.4269  1.3040
  124OSM   H15T13222   0.761   2.646   8.038  0.1069 -1.4001 -0.8954
  124OSM   C16S13223   0.661   2.508   8.165 -0.3856 -0.5989  0.1803
  124OSM   H16S13224   0.709   2.426   8.108  0.8487  0.0275  0.2922
  124OSM   H16T13225   0.557   2.482   8.191 -0.2457 -0.0963  1.2798
  124OSM   C17S13226   0.742   2.524   8.299  0.0389  0.3279  0.6155
  124OSM   H17S13227   0.756   2.420   8.336  0.9807  0.1122 -0.2928
  124OSM   H17T13228   0.682   2.558   8.386 -0.0249 -1.1760  1.1739
  124OSM   C18S13229   0.878   2.588   8.291  0.1498 -0.6332  0.3895
  124OSM   H18S13230   0.932   2.531   8.212  1.7434  0.5968  0.5515
  124OSM   H18T13231   0.936   2.570   8.384  0.4193 -1.5244  0.0586
  124OSM   H18U13232   0.867   2.697   8.274 -0.7138 -0.6333  0.9321
  124OSM    C1F13233   0.864   3.178   6.761 -0.0188 -0.5324  0.1320
  124OSM     OF13234   0.814   3.222   6.661 -0.2259 -0.1367  0.2791
  124OSM    C2F13235   0.894   3.263   6.878  0.2881  0.1699 -0.0221
  124OSM    H2F13236   0.918   3.367   6.846 -0.0290  0.8385  1.8504
  124OSM    H2G13237   0.986   3.230   6.931 -0.0761 -0.1662  0.4128
  124OSM    C3F13238   0.768   3.267   6.969 -0.5053  0.4910 -0.1039
  124OSM    H3F13239   0.723   3.166   6.977 -1.7646  1.1040  0.7505
  124OSM    H3G13240   0.690   3.337   6.931 -0.0181  1.1776  0.1620
  124OSM    C4F13241   0.807   3.308   7.113 -0.1272  0.1912  0.5616
  124OSM    H4F13242   0.848   3.411   7.116  0.2500  0.0570  0.0191
  124OSM    H4G13243   0.887   3.238   7.145 -0.2858 -1.1011 -1.7249
  124OSM    C5F13244   0.694   3.301   7.212  0.2404  0.1302 -0.0573
  124OSM    H5F13245   0.643   3.202   7.211  0.9287 -0.2214 -0.3506
  124OSM    H5G13246   0.625   3.379   7.173 -2.0419 -1.3426  0.9258
  124OSM    C6F13247   0.730   3.342   7.358 -0.2713  0.3096  0.1217
  124OSM    H6F13248   0.641   3.385   7.408 -0.6800 -3.5730  2.8999
  124OSM    H6G13249   0.804   3.426   7.355  1.2727 -1.0066  0.7963
  124OSM    C7F13250   0.772   3.220   7.445  0.3787  0.3375  0.0179
  124OSM    H7F13251   0.840   3.157   7.383 -0.6734 -0.1802 -0.6258
  124OSM    H7G13252   0.693   3.145   7.463 -0.9418  1.4535 -1.0218
  124OSM    C8F13253   0.814   3.260   7.591 -0.6376  0.0540  0.5295
  124OSM    H8F13254   0.887   3.342   7.583 -0.5617  0.2258  2.7484
  124OSM    H8G13255   0.876   3.177   7.632  0.1511  1.3428  1.9878
  124OSM    C9F13256   0.703   3.312   7.677 -0.5971  0.4286  0.0029
  124OSM    H9F13257   0.643   3.388   7.626  0.1220  1.6710  0.9582
  124OSM   C10F13258   0.649   3.263   7.784  0.5912  0.4840 -0.5590
  124OSM   H10F13259   0.568   3.325   7.825  2.6144  2.1630  1.0875
  124OSM   C11F13260   0.689   3.131   7.854 -0.0164 -0.5644 -0.4756
  124OSM   H11F13261   0.779   3.092   7.802  0.1336 -0.1152 -0.5567
  124OSM   H11G13262   0.603   3.060   7.848 -0.4874 -0.1400  1.1108
  124OSM   C12F13263   0.723   3.158   8.002  0.6268 -0.3855  0.2824
  124OSM   H12F13264   0.636   3.203   8.055  0.8571  1.0847 -0.5382
  124OSM   H12G13265   0.797   3.241   8.000 -0.8691  0.9651 -1.4360
  124OSM   C13F13266   0.798   3.047   8.081 -0.0265 -0.7345  0.2020
  124OSM   H13F13267   0.883   3.017   8.017  0.8892  2.9264 -0.4204
  124OSM   H13G13268   0.736   2.959   8.108 -0.5985 -0.1591  0.8038
  124OSM   C14F13269   0.842   3.108   8.209 -0.5648 -0.1809 -0.0437
  124OSM   H14F13270   0.764   3.175   8.251  0.0819 -1.1835  2.9099
  124OSM   H14G13271   0.929   3.170   8.177 -1.0871  1.0200  0.8518
  124OSM   C15F13272   0.887   3.009   8.311 -0.6718  0.1360 -0.5456
  124OSM   H15F13273   0.966   2.942   8.273  1.4168  2.3135 -0.1722
  124OSM   H15G13274   0.806   2.938   8.338  0.6564 -0.5384  1.8338
  124OSM   C16F13275   0.921   3.068   8.441 -0.1388  0.6037 -0.3008
  124OSM   H16F13276   0.827   3.102   8.490  0.5297  0.1762  1.2900
  124OSM   H16G13277   0.985   3.159   8.440  1.1234 -0.2540  0.5999
  124OSM   C17F13278   0.972   2.962   8.545 -0.1122 -0.4741  1.2811
  124OSM   H17F13279   0.991   3.023   8.635 -0.4051  0.6995  0.5652
  124OSM   H17G13280   1.069   2.917   8.514 -0.4187 -1.7265  2.1060
  124OSM   C18F13281   0.884   2.842   8.575 -0.1974  0.5816  0.3545
  124OSM   H18F13282   0.788   2.876   8.619  0.4486  1.5604  1.0098
  124OSM   H18G13283   0.927   2.778   8.655 -0.4671 -1.9815 -1.4817
  124OSM   H18H13284   0.869   2.779   8.484  2.2509 -0.3116  0.5352
  125OSM      N13285   6.747   4.618   6.370  0.8139 -0.2618 -0.3405
  125OSM    C1513286   6.792   4.687   6.499  0.2563  0.6812  0.6789
  125OSM   H15A13287   6.744   4.782   6.515 -0.2561  0.1668  2.2600
  125OSM   H15B13288   6.899   4.704   6.491  0.7130 -2.7069 -1.7145
  125OSM   H15C13289   6.780   4.631   6.591  0.7547 -0.7273 -0.0914
  125OSM    C1413290   6.592   4.603   6.374  0.4195  0.1381 -0.6446
  125OSM   H14A13291   6.568   4.560   6.470  0.1888  0.7954 -0.4033
  125OSM   H14B13292   6.553   4.538   6.297  1.9311 -0.9308 -0.5275
  125OSM   H14C13293   6.547   4.701   6.373 -0.6673 -0.3446 -0.6101
  125OSM    C1313294   6.783   4.703   6.257 -0.0982  0.0065 -0.2436
  125OSM   H13A13295   6.734   4.799   6.251  0.4997  0.3314  0.0728
  125OSM   H13B13296   6.775   4.646   6.165 -0.3354  0.9654 -0.8205
  125OSM   H13C13297   6.890   4.720   6.254 -0.1910  1.7096  3.2117
  125OSM    C1213298   6.818   4.483   6.359  0.3334  0.3435 -0.2951
  125OSM   H12A13299   6.816   4.458   6.254  0.9014 -0.7491 -0.0477
  125OSM   H12B13300   6.765   4.411   6.419  0.9263  1.4496  1.6149
  125OSM    C1113301   6.962   4.478   6.406 -0.2960  0.6461 -0.7783
  125OSM   H11A13302   7.007   4.379   6.384  2.5805  2.1593 -1.9299
  125OSM   H11B13303   6.963   4.475   6.518  0.3345 -2.0289 -0.8248
  125OSM      P13304   7.164   4.555   6.252 -0.0260 -0.0240  0.4673
  125OSM    O1313305   7.110   4.477   6.138  0.1752  0.5709 -0.3742
  125OSM    O1413306   7.224   4.684   6.229 -0.2238 -0.1450  0.3894
  125OSM    O1113307   7.260   4.461   6.336  0.5909 -0.1315  0.1329
  125OSM    O1213308   7.044   4.585   6.358 -0.2151 -0.2067  0.4643
  125OSM    C1S13309   7.325   4.506   6.448 -0.5899  0.8301  0.1535
  125OSM    H1S13310   7.320   4.617   6.461 -2.5731  0.7656  0.1092
  125OSM    H1T13311   7.434   4.483   6.445 -0.9030 -0.5177 -2.8761
  125OSM     NF13312   7.320   4.508   6.702  0.1332  0.5301 -0.5993
  125OSM    HNF13313   7.379   4.450   6.758 -1.1086 -0.3883 -0.2060
  125OSM    C2S13314   7.271   4.450   6.585  0.1500 -0.2442  0.5119
  125OSM    H2S13315   7.163   4.476   6.579  0.2169 -0.1793 -0.4317
  125OSM    C3S13316   7.290   4.300   6.591 -1.4188  0.3850  0.8221
  125OSM    H3S13317   7.395   4.289   6.625 -1.1440 -0.5809 -0.2961
  125OSM     O313318   7.273   4.229   6.470  0.3737  0.6612 -0.4397
  125OSM    HO313319   7.305   4.295   6.408  1.4119  1.5978  1.0679
  125OSM    C4S13320   7.211   4.249   6.709 -0.9276 -0.3194  0.1706
  125OSM    H4S13321   7.279   4.251   6.795  0.7439 -0.6301 -1.1193
  125OSM    C5S13322   7.088   4.195   6.721 -0.4479  0.0029  0.3343
  125OSM    H5S13323   7.020   4.197   6.635  0.2865 -0.4602 -0.2592
  125OSM    C6S13324   7.027   4.150   6.856  0.3574 -0.1084 -0.4535
  125OSM    H6S13325   6.981   4.050   6.840  0.5138  0.0423 -1.9877
  125OSM    H6T13326   6.938   4.212   6.879 -0.1169 -1.1745  0.6285
  125OSM    C7S13327   7.122   4.142   6.981  0.0912 -0.1864 -0.8000
  125OSM    H7S13328   7.162   4.245   6.988  0.8979 -0.6888  2.4881
  125OSM    H7T13329   7.209   4.074   6.966  1.5424  1.0280  1.8197
  125OSM    C8S13330   7.047   4.111   7.113 -0.4778 -0.4625 -0.7291
  125OSM    H8S13331   7.010   4.006   7.106 -0.9929 -0.4117  0.8662
  125OSM    H8T13332   6.948   4.162   7.120 -0.5518 -0.7227  0.2605
  125OSM    C9S13333   7.129   4.138   7.239 -0.0597 -0.4509 -0.4038
  125OSM    H9S13334   7.159   4.243   7.258 -1.1988 -0.4289  1.4743
  125OSM    H9T13335   7.222   4.081   7.218  0.3297  0.2924 -0.7086
  125OSM   C10S13336   7.057   4.087   7.364 -0.1860  0.1077  0.0633
  125OSM   H10S13337   7.021   3.983   7.345 -0.0249 -0.1203  0.9891
  125OSM   H10T13338   6.973   4.156   7.388  0.4684  0.5386  1.1485
  125OSM   C11S13339   7.152   4.099   7.483  0.0161 -1.1334  0.5757
  125OSM   H11S13340   7.179   4.207   7.487 -0.2863 -1.0114 -0.4879
  125OSM   H11T13341   7.243   4.040   7.464  0.3978 -0.3331 -0.1089
  125OSM   C12S13342   7.081   4.054   7.610 -0.3677 -0.5080  0.5514
  125OSM   H12S13343   7.047   3.949   7.614  1.9952 -1.5320 -3.3161
  125OSM   H12T13344   6.994   4.121   7.623 -0.3630 -0.7894  2.1185
  125OSM   C13S13345   7.177   4.074   7.722 -0.6708  0.2193  0.0405
  125OSM   H13S13346   7.200   4.182   7.733  0.0578  0.2426 -1.4731
  125OSM   H13T13347   7.264   4.012   7.694 -1.7040  0.0685 -3.0518
  125OSM   C14S13348   7.116   4.041   7.856 -0.7865  0.2386  0.2593
  125OSM   H14S13349   7.062   3.944   7.849  1.4669 -0.8476 -3.6863
  125OSM   H14T13350   7.035   4.114   7.878 -0.9326  0.1955 -0.1334
  125OSM   C15S13351   7.218   4.029   7.964  0.0512 -0.1153 -0.6703
  125OSM   H15S13352   7.309   4.085   7.934  1.4541 -0.9399  1.8385
  125OSM   H15T13353   7.247   3.922   7.964  0.0646 -0.1110 -1.7345
  125OSM   C16S13354   7.165   4.072   8.092  0.0567 -0.2995  0.0954
  125OSM   H16S13355   7.058   4.044   8.088  0.1450 -0.4382 -2.2290
  125OSM   H16T13356   7.169   4.183   8.090  1.8718 -0.3449  0.2422
  125OSM   C17S13357   7.236   4.034   8.214 -0.6470 -0.7974  0.1236
  125OSM   H17S13358   7.203   4.100   8.298  2.0376 -1.1177  1.4792
  125OSM   H17T13359   7.344   4.058   8.210 -0.9747  1.1037  1.8029
  125OSM   C18S13360   7.207   3.887   8.241 -0.4446  0.0561  0.2940
  125OSM   H18S13361   7.098   3.866   8.239 -0.0589 -2.1757  1.2464
  125OSM   H18T13362   7.235   3.869   8.347  1.0910 -0.7058 -0.2232
  125OSM   H18U13363   7.275   3.816   8.190 -1.7404  0.9883 -2.8612
  125OSM    C1F13364   7.291   4.634   6.738  0.6988  0.3349 -0.4517
  125OSM     OF13365   7.201   4.702   6.684  0.1346 -0.2593  0.2179
  125OSM    C2F13366   7.362   4.683   6.856  0.0424 -0.4747  0.2615
  125OSM    H2F13367   7.459   4.630   6.852  0.0869 -0.4329  0.7298
  125OSM    H2G13368   7.308   4.643   6.945 -1.5585 -0.2133 -0.5733
  125OSM    C3F13369   7.346   4.837   6.862 -0.0495  0.3388  0.2474
  125OSM    H3F13370   7.238   4.858   6.877 -0.4804 -0.9122 -0.9991
  125OSM    H3G13371   7.387   4.879   6.768  2.2766 -0.6153  0.8024
  125OSM    C4F13372   7.427   4.895   6.979  0.2012 -0.6388  0.4317
  125OSM    H4F13373   7.532   4.912   6.948 -0.0509  0.0448 -0.0648
  125OSM    H4G13374   7.426   4.816   7.057 -0.2943 -1.1248 -0.0587
  125OSM    C5F13375   7.372   5.023   7.039 -0.1177  0.3731  0.5036
  125OSM    H5F13376   7.261   5.021   7.046 -0.0101 -1.0126  2.1968
  125OSM    H5G13377   7.402   5.104   6.969 -0.8585 -1.6679 -2.2904
  125OSM    C6F13378   7.435   5.050   7.181 -0.5013 -0.5920  0.5308
  125OSM    H6F13379   7.430   5.159   7.199  0.8823 -0.0059 -2.2803
  125OSM    H6G13380   7.543   5.031   7.199  0.2242  2.2002 -0.6368
  125OSM    C7F13381   7.352   4.982   7.290  0.0345 -0.7126 -0.2666
  125OSM    H7F13382   7.353   4.872   7.271 -0.6587 -0.5769 -1.1447
  125OSM    H7G13383   7.245   5.011   7.288 -0.7183 -3.2371  0.7811
  125OSM    C8F13384   7.410   4.993   7.421 -0.3248  0.4541 -0.3133
  125OSM    H8F13385   7.515   4.958   7.429 -0.2368  1.0109  1.3876
  125OSM    H8G13386   7.362   4.918   7.487  0.5774  1.7199  1.8506
  125OSM    C9F13387   7.406   5.136   7.487  0.0043  0.1285 -0.0083
  125OSM    H9F13388   7.363   5.213   7.421 -0.9766 -1.1199 -0.8705
  125OSM   C10F13389   7.428   5.160   7.619 -0.4233 -0.3106  0.1999
  125OSM   H10F13390   7.419   5.263   7.657 -0.4368 -0.8746  1.7604
  125OSM   C11F13391   7.472   5.054   7.718 -0.2354  0.1900 -0.3986
  125OSM   H11F13392   7.549   5.096   7.787 -1.0511 -0.1377  0.7365
  125OSM   H11G13393   7.527   4.973   7.667  0.1045 -0.9756  1.7330
  125OSM   C12F13394   7.369   4.994   7.814 -0.4188  0.3824 -0.0819
  125OSM   H12F13395   7.305   4.926   7.756  1.7881 -0.5932 -1.4357
  125OSM   H12G13396   7.300   5.067   7.861 -1.8952 -2.3900  2.2084
  125OSM   C13F13397   7.446   4.914   7.922 -0.0982 -0.6402  0.1428
  125OSM   H13F13398   7.527   4.979   7.963  1.4901 -1.1359 -2.1553
  125OSM   H13G13399   7.484   4.817   7.885 -1.0681  0.2195 -3.3148
  125OSM   C14F13400   7.362   4.878   8.047 -0.2418 -0.0649 -0.2049
  125OSM   H14F13401   7.264   4.834   8.016  0.2726 -0.5143 -1.2060
  125OSM   H14G13402   7.339   4.970   8.105  0.3590 -0.6607  0.9772
  125OSM   C15F13403   7.429   4.764   8.137  0.2317 -0.2294  0.6258
  125OSM   H15F13404   7.521   4.809   8.180  0.3463  0.6608 -0.5194
  125OSM   H15G13405   7.460   4.677   8.075 -1.1750  0.2861 -0.8494
  125OSM   C16F13406   7.335   4.714   8.244 -0.4196 -0.3857  0.1161
  125OSM   H16F13407   7.266   4.641   8.197  0.7514 -0.0594 -2.2025
  125OSM   H16G13408   7.285   4.804   8.285 -0.7098 -0.6500  0.3401
  125OSM   C17F13409   7.411   4.632   8.361 -0.1425 -0.6929 -0.0984
  125OSM   H17F13410   7.345   4.599   8.444 -1.8766  0.9916 -0.7847
  125OSM   H17G13411   7.488   4.702   8.400 -1.2450 -0.2124  1.2092
  125OSM   C18F13412   7.477   4.498   8.312 -0.6388  0.0327 -1.1259
  125OSM   H18F13413   7.520   4.442   8.398  1.0716 -0.5607 -2.3335
  125OSM   H18G13414   7.555   4.513   8.234  0.2687 -0.0108 -0.2261
  125OSM   H18H13415   7.400   4.431   8.266 -2.9315  0.5941  1.7819
  126OSM      N13416   5.349   4.115   6.514  0.2549 -0.6200  1.0597
  126OSM    C1513417   5.474   4.146   6.441 -0.7373  0.2981 -0.5118
  126OSM   H15A13418   5.525   4.063   6.395  0.5877  0.3627  0.8138
  126OSM   H15B13419   5.540   4.197   6.510 -1.3100  0.0715  0.2116
  126OSM   H15C13420   5.454   4.217   6.362  2.4167  1.9932  0.1041
  126OSM    C1413421   5.388   4.028   6.625 -0.3742 -0.8713  0.3400
  126OSM   H14A13422   5.415   4.091   6.709  1.3946  0.1348 -0.9386
  126OSM   H14B13423   5.465   3.954   6.607  1.3280  0.7118  0.8781
  126OSM   H14C13424   5.304   3.965   6.648 -1.2005  0.2588  0.4793
  126OSM    C1313425   5.291   4.243   6.552  0.1669  0.4473 -0.1812
  126OSM   H13A13426   5.193   4.240   6.597  0.7736  0.9413  1.1943
  126OSM   H13B13427   5.289   4.309   6.466  1.6826  0.0626 -0.5236
  126OSM   H13C13428   5.366   4.299   6.605 -0.4502  0.3622  0.7876
  126OSM    C1213429   5.248   4.038   6.424 -0.2830 -1.0225  0.5006
  126OSM   H12A13430   5.299   3.948   6.391 -0.7811 -1.5707  1.2087
  126OSM   H12B13431   5.239   4.094   6.332  1.0442  1.3667  1.7605
  126OSM    C1113432   5.112   4.006   6.480 -0.8359  0.2417  0.4132
  126OSM   H11A13433   5.049   3.970   6.396  1.2881  2.5403 -2.2772
  126OSM   H11B13434   5.067   4.103   6.508 -4.2616  0.0999 -4.0668
  126OSM      P13435   5.111   3.768   6.591  0.0831 -0.1604 -0.1230
  126OSM    O1313436   4.966   3.731   6.585  0.0252  0.1151  0.2142
  126OSM    O1413437   5.208   3.716   6.492 -0.7393  0.5531  0.2142
  126OSM    O1113438   5.159   3.724   6.732 -0.6243  0.0342 -0.0982
  126OSM    O1213439   5.113   3.922   6.595 -0.2662  0.2532  0.2126
  126OSM    C1S13440   5.127   3.792   6.854  0.0422  0.0378 -0.2157
  126OSM    H1S13441   5.044   3.865   6.851 -1.3717 -1.4844  0.9510
  126OSM    H1T13442   5.222   3.839   6.888  0.0768 -0.3764  0.2611
  126OSM     NF13443   5.042   3.769   7.075 -0.2612 -0.1736  0.4244
  126OSM    HNF13444   5.108   3.792   7.146 -1.1421 -1.6260  1.7314
  126OSM    C2S13445   5.080   3.688   6.961 -0.1802 -0.1278 -0.0442
  126OSM    H2S13446   5.004   3.624   6.912  0.0133  0.8532 -1.6485
  126OSM    C3S13447   5.205   3.596   6.988 -0.1256 -0.0711  0.1737
  126OSM    H3S13448   5.296   3.659   6.980 -1.0394  1.4637  1.6466
  126OSM     O313449   5.217   3.510   6.874 -1.1511  0.6581  0.6322
  126OSM    HO313450   5.163   3.548   6.804 -3.1377 -3.1670 -0.0450
  126OSM    C4S13451   5.194   3.518   7.111 -0.3438  0.0208  1.2876
  126OSM    H4S13452   5.115   3.442   7.117 -0.1043 -0.1945  1.7072
  126OSM    C5S13453   5.275   3.534   7.214 -0.4781 -0.2041 -0.3643
  126OSM    H5S13454   5.359   3.604   7.210 -1.9582  1.5884 -0.8698
  126OSM    C6S13455   5.255   3.449   7.338  0.3494 -0.5773  0.0491
  126OSM    H6S13456   5.351   3.401   7.365  0.3176 -1.4156 -1.2855
  126OSM    H6T13457   5.171   3.378   7.323  0.5843 -0.4824 -1.7480
  126OSM    C7S13458   5.228   3.545   7.456 -0.2762  0.2870 -0.1494
  126OSM    H7S13459   5.127   3.590   7.444 -0.0941  0.9454  0.7559
  126OSM    H7T13460   5.301   3.628   7.466 -1.0557  0.8394  0.9886
  126OSM    C8S13461   5.218   3.454   7.588 -0.4381 -0.0338 -0.5802
  126OSM    H8S13462   5.159   3.366   7.555  0.9644 -1.2276  0.0632
  126OSM    H8T13463   5.162   3.511   7.665  1.6704  2.5108 -0.8750
  126OSM    C9S13464   5.359   3.415   7.641 -0.1412 -0.2925 -0.1699
  126OSM    H9S13465   5.431   3.497   7.622 -1.0156  0.3580 -0.7102
  126OSM    H9T13466   5.395   3.324   7.589  1.0561 -0.3591  0.7548
  126OSM   C10S13467   5.358   3.384   7.792 -0.5404 -0.1898 -0.4494
  126OSM   H10S13468   5.286   3.302   7.811 -0.0798 -0.4970 -0.0291
  126OSM   H10T13469   5.314   3.472   7.843 -2.3416 -1.5096  0.3093
  126OSM   C11S13470   5.498   3.342   7.845 -0.1056 -0.4754 -0.2057
  126OSM   H11S13471   5.567   3.398   7.778 -3.5328  0.5478 -2.9853
  126OSM   H11T13472   5.509   3.232   7.830  0.3949 -0.2970 -1.2120
  126OSM   C12S13473   5.506   3.383   7.988 -0.4673 -0.3972  0.6626
  126OSM   H12S13474   5.431   3.317   8.037  1.0862 -1.8234  1.1444
  126OSM   H12T13475   5.488   3.492   8.006 -1.9959 -0.6116  0.5303
  126OSM   C13S13476   5.649   3.358   8.049 -0.4047  0.5588 -0.4962
  126OSM   H13S13477   5.717   3.436   8.010  1.3703 -0.2733  0.8589
  126OSM   H13T13478   5.682   3.260   8.009 -0.3801  0.8292 -1.1316
  126OSM   C14S13479   5.633   3.361   8.204 -0.7636  0.1028 -0.3983
  126OSM   H14S13480   5.532   3.325   8.234 -0.1053 -0.7421  0.8204
  126OSM   H14T13481   5.636   3.468   8.234 -1.5202  0.7034 -2.3959
  126OSM   C15S13482   5.743   3.276   8.284  0.7723  0.4368  0.1472
  126OSM   H15S13483   5.842   3.304   8.242  1.0586 -1.0105 -0.1523
  126OSM   H15T13484   5.723   3.169   8.261 -0.5433  0.5682  0.6508
  126OSM   C16S13485   5.746   3.282   8.439 -0.1749 -1.0392 -0.2010
  126OSM   H16S13486   5.799   3.376   8.465 -2.2738 -0.3974  1.9625
  126OSM   H16T13487   5.808   3.201   8.485  1.0366 -0.3163 -0.5322
  126OSM   C17S13488   5.607   3.259   8.508 -0.2698 -0.1147 -0.0333
  126OSM   H17S13489   5.569   3.163   8.466 -0.7335 -0.1790  0.5288
  126OSM   H17T13490   5.537   3.340   8.481 -0.3533 -0.1440  0.0981
  126OSM   C18S13491   5.611   3.258   8.665 -0.2531  0.3190  0.3939
  126OSM   H18S13492   5.646   3.358   8.700 -0.3624  0.0607  1.2594
  126OSM   H18T13493   5.682   3.176   8.690  1.9884  1.9759 -0.3980
  126OSM   H18U13494   5.509   3.248   8.706 -0.2649  4.1283  1.4723
  126OSM    C1F13495   4.929   3.834   7.085  0.7549 -0.2206  0.3003
  126OSM     OF13496   4.844   3.823   6.998  0.0619 -0.1258 -0.2491
  126OSM    C2F13497   4.901   3.924   7.204 -0.3775 -0.0793 -0.3889
  126OSM    H2F13498   4.825   4.000   7.179 -1.6309 -0.7328  1.3244
  126OSM    H2G13499   4.989   3.983   7.236 -0.8495  1.4849 -1.9045
  126OSM    C3F13500   4.855   3.846   7.332 -0.2407 -0.4918 -0.1686
  126OSM    H3F13501   4.933   3.778   7.371 -0.9779 -0.2488  1.7801
  126OSM    H3G13502   4.767   3.788   7.298 -0.4479  0.5573 -1.4958
  126OSM    C4F13503   4.816   3.937   7.453 -0.0308  0.1345 -1.5957
  126OSM    H4F13504   4.740   4.005   7.409 -0.7302 -0.2468 -0.9966
  126OSM    H4G13505   4.897   4.003   7.489 -0.3441 -1.3413  2.0625
  126OSM    C5F13506   4.763   3.862   7.581 -0.1096 -0.6566  0.4070
  126OSM    H5F13507   4.688   3.786   7.549 -0.6143  0.6068 -1.4808
  126OSM    H5G13508   4.711   3.934   7.648  1.1335 -0.8020  1.5425
  126OSM    C6F13509   4.883   3.803   7.648 -0.2749  0.1826 -0.5988
  126OSM    H6F13510   4.962   3.880   7.658  0.3930 -0.7761  1.6453
  126OSM    H6G13511   4.926   3.725   7.581  0.6281  1.0209 -0.9941
  126OSM    C7F13512   4.856   3.743   7.788  0.4705  0.1325  0.5130
  126OSM    H7F13513   4.941   3.685   7.831  0.0489 -1.3924 -0.6602
  126OSM    H7G13514   4.767   3.678   7.773 -0.6038  1.7190 -0.1390
  126OSM    C8F13515   4.816   3.845   7.896  0.3577 -0.1468 -0.1595
  126OSM    H8F13516   4.777   3.781   7.978 -2.1171 -0.5031 -1.5468
  126OSM    H8G13517   4.731   3.901   7.852 -0.5755 -0.3518  1.3510
  126OSM    C9F13518   4.926   3.923   7.958  0.3675  0.6200  0.2279
  126OSM    H9F13519   4.977   3.981   7.879 -1.4000  1.9985  0.0686
  126OSM   C10F13520   4.970   3.913   8.083  0.3488  0.6922 -0.1868
  126OSM   H10F13521   5.065   3.961   8.110  1.7585 -2.4453  0.6876
  126OSM   C11F13522   4.911   3.832   8.193 -0.5438  0.2277  0.0548
  126OSM   H11F13523   4.805   3.806   8.171  0.0985 -1.8933 -0.7187
  126OSM   H11G13524   4.911   3.903   8.278  0.9420  1.7117 -1.1748
  126OSM   C12F13525   4.975   3.694   8.230 -0.3472 -0.4009  0.4532
  126OSM   H12F13526   4.952   3.619   8.151  0.6157  0.0870 -0.3095
  126OSM   H12G13527   4.924   3.652   8.320  1.4339  0.7036  2.0372
  126OSM   C13F13528   5.123   3.698   8.274  0.7655  0.3200  0.0663
  126OSM   H13F13529   5.156   3.779   8.343  1.4535 -1.0899  1.4211
  126OSM   H13G13530   5.189   3.684   8.186 -1.9166 -2.2481 -1.6011
  126OSM   C14F13531   5.159   3.575   8.365 -0.4258  0.0137  0.2688
  126OSM   H14F13532   5.117   3.478   8.332  2.0061 -1.2270  0.7119
  126OSM   H14G13533   5.120   3.592   8.468 -3.9045 -0.3629 -0.9348
  126OSM   C15F13534   5.313   3.552   8.377  0.3622  0.0275  0.4722
  126OSM   H15F13535   5.362   3.519   8.282 -2.8975 -0.3971 -1.1495
  126OSM   H15G13536   5.326   3.470   8.450  1.5932 -2.2812 -2.2628
  126OSM   C16F13537   5.387   3.673   8.442 -0.6979  0.0107  0.3497
  126OSM   H16F13538   5.319   3.723   8.515 -0.9928  0.7240 -0.3914
  126OSM   H16G13539   5.396   3.745   8.357  1.8975  0.5997  1.0933
  126OSM   C17F13540   5.512   3.643   8.518 -0.9240  0.2874  0.3967
  126OSM   H17F13541   5.592   3.588   8.464  0.3041  0.0643  2.3698
  126OSM   H17G13542   5.483   3.568   8.595  1.2985 -2.0848 -0.9677
  126OSM   C18F13543   5.584   3.761   8.592 -0.0437 -0.4339 -0.1163
  126OSM   H18F13544   5.512   3.841   8.619  2.4475  0.8889  2.9171
  126OSM   H18G13545   5.647   3.805   8.511 -0.7499  2.0003  0.6044
  126OSM   H18H13546   5.643   3.718   8.675  0.0320 -0.8020 -0.3609
  127OSM      N13547   5.786   1.693   6.054  0.1144 -0.0093 -0.0799
  127OSM    C1513548   5.661   1.739   5.981  0.1055  0.1534 -0.4463
  127OSM   H15A13549   5.589   1.755   6.060  2.4490  0.3709  1.6783
  127OSM   H15B13550   5.619   1.666   5.913 -0.1204 -1.3120  1.2228
  127OSM   H15C13551   5.671   1.832   5.926  0.0065  1.5569  1.8383
  127OSM    C1413552   5.749   1.563   6.128 -0.3154 -0.7954  0.4916
  127OSM   H14A13553   5.726   1.487   6.055 -0.1590  1.0520 -1.5423
  127OSM   H14B13554   5.668   1.581   6.197 -2.3589 -0.9122 -1.7827
  127OSM   H14C13555   5.834   1.525   6.182  0.0723  0.5103  0.8126
  127OSM    C1313556   5.893   1.673   5.956 -0.2514 -0.6188 -0.0158
  127OSM   H13A13557   5.930   1.769   5.923  0.9519 -0.5089  1.5475
  127OSM   H13B13558   5.872   1.607   5.874 -2.9144 -0.3712  0.4195
  127OSM   H13C13559   5.986   1.638   5.997  0.6616  0.1561 -1.3821
  127OSM    C1213560   5.827   1.792   6.162  0.1412  0.5473  0.2824
  127OSM   H12A13561   5.916   1.747   6.203 -0.5377 -0.7813  0.3215
  127OSM   H12B13562   5.751   1.790   6.238  0.0394 -4.2107  0.1984
  127OSM    C1113563   5.850   1.939   6.127 -0.0261  0.0845 -0.2455
  127OSM   H11A13564   5.855   1.992   6.225 -0.0590  0.0361 -0.2178
  127OSM   H11B13565   5.759   1.981   6.079  0.3524 -1.2338 -2.1670
  127OSM      P13566   6.109   1.947   6.117 -0.1247  0.1521  0.0372
  127OSM    O1313567   6.170   1.835   6.050  0.2816  0.2072  0.3080
  127OSM    O1413568   6.188   2.065   6.127  0.1431  0.6560 -0.5692
  127OSM    O1113569   6.080   1.893   6.263 -0.2787  0.2104 -0.0177
  127OSM    O1213570   5.962   1.965   6.048  0.1567 -0.0313  0.4657
  127OSM    C1S13571   6.092   1.969   6.381  0.0585  1.1893 -0.6545
  127OSM    H1S13572   5.996   2.020   6.402  0.4319  1.5127  0.2727
  127OSM    H1T13573   6.177   2.040   6.382  1.0872 -0.0358 -0.2505
  127OSM     NF13574   6.109   1.968   6.625 -0.2213  0.3385 -0.8992
  127OSM    HNF13575   6.193   1.975   6.678 -0.9738  1.0470  0.2232
  127OSM    C2S13576   6.101   1.880   6.508  0.4659 -0.1638  0.9442
  127OSM    H2S13577   6.005   1.825   6.513  0.2085  0.1426 -0.5470
  127OSM    C3S13578   6.222   1.782   6.488 -0.3321  0.0727  0.3816
  127OSM    H3S13579   6.303   1.858   6.480 -0.1104 -0.2105 -0.1109
  127OSM     O313580   6.209   1.697   6.372  0.1165 -0.7929  0.1096
  127OSM    HO313581   6.148   1.750   6.321  1.8570 -0.0764 -1.3025
  127OSM    C4S13582   6.233   1.697   6.614 -0.3518  0.1327 -0.8123
  127OSM    H4S13583   6.284   1.763   6.687 -1.6476 -0.1127  0.3307
  127OSM    C5S13584   6.175   1.580   6.661  0.1920  0.3218  0.4186
  127OSM    H5S13585   6.102   1.521   6.605  1.1455 -0.8237  0.3470
  127OSM    C6S13586   6.209   1.522   6.797  0.1491 -0.5089 -0.0687
  127OSM    H6S13587   6.293   1.577   6.845  1.5233 -1.2672 -1.5826
  127OSM    H6T13588   6.240   1.415   6.803  1.0269 -0.1267  3.6654
  127OSM    C7S13589   6.111   1.558   6.910  0.0401 -0.0301  0.3987
  127OSM    H7S13590   6.018   1.498   6.898  1.4665 -2.2852  0.3423
  127OSM    H7T13591   6.082   1.665   6.903  1.0840  0.1139 -2.4481
  127OSM    C8S13592   6.176   1.527   7.043 -0.2456 -0.1848  0.2371
  127OSM    H8S13593   6.259   1.597   7.065  0.0735 -0.1464 -1.0208
  127OSM    H8T13594   6.210   1.421   7.031 -0.6619 -0.4152  1.0752
  127OSM    C9S13595   6.081   1.529   7.161 -0.7361 -0.2273  0.7282
  127OSM    H9S13596   5.987   1.472   7.144 -0.6454 -0.5241  1.2248
  127OSM    H9T13597   6.051   1.634   7.182  0.5654  0.4583 -0.8025
  127OSM   C10S13598   6.154   1.473   7.290 -0.4291 -0.3654  0.2165
  127OSM   H10S13599   6.254   1.515   7.313  0.7033 -2.7179 -0.2522
  127OSM   H10T13600   6.180   1.367   7.268  0.2366 -0.0374 -0.5697
  127OSM   C11S13601   6.074   1.474   7.422 -0.2149 -0.2218 -0.5349
  127OSM   H11S13602   5.977   1.419   7.417  0.1198 -1.0689  1.6849
  127OSM   H11T13603   6.029   1.575   7.435  0.1884  0.0012 -0.8618
  127OSM   C12S13604   6.147   1.436   7.547  1.0092  0.6151  0.1120
  127OSM   H12S13605   6.232   1.503   7.572  0.8127  0.0882  2.2780
  127OSM   H12T13606   6.194   1.339   7.517 -0.2067 -0.0308  0.2652
  127OSM   C13S13607   6.049   1.422   7.665  0.4994 -0.1821  0.5049
  127OSM   H13S13608   5.974   1.342   7.645 -0.5194  0.7732  0.4887
  127OSM   H13T13609   5.999   1.519   7.681 -1.5012 -1.1298  0.1278
  127OSM   C14S13610   6.119   1.397   7.796 -0.0538 -0.7023 -0.1494
  127OSM   H14S13611   6.206   1.466   7.806 -0.5129 -0.3157  1.3916
  127OSM   H14T13612   6.164   1.295   7.803 -2.4534 -1.8755 -1.3490
  127OSM   C15S13613   6.023   1.433   7.915  0.2625 -0.1863 -0.5029
  127OSM   H15S13614   5.919   1.403   7.887 -0.0923  0.6457 -0.0844
  127OSM   H15T13615   6.035   1.543   7.914  1.9252 -0.3564 -0.5679
  127OSM   C16S13616   6.063   1.372   8.046  0.6051 -0.0689 -0.6173
  127OSM   H16S13617   6.171   1.350   8.045  0.4859 -0.6778 -0.0746
  127OSM   H16T13618   6.015   1.273   8.057  0.4171 -0.3291 -3.2729
  127OSM   C17S13619   6.051   1.461   8.172 -0.1261  0.2730 -0.6675
  127OSM   H17S13620   6.104   1.557   8.152  0.7216 -0.2299 -0.9003
  127OSM   H17T13621   6.106   1.413   8.256  0.2667  0.0700 -1.0298
  127OSM   C18S13622   5.905   1.499   8.210 -0.1887  0.4658 -0.0993
  127OSM   H18S13623   5.875   1.561   8.122 -1.7015 -2.0873 -1.4730
  127OSM   H18T13624   5.903   1.546   8.310  1.1883  0.0913  0.1125
  127OSM   H18U13625   5.842   1.407   8.212 -2.3190  1.9000  2.8260
  127OSM    C1F13626   5.999   2.036   6.662 -0.2489  0.2809  0.4671
  127OSM     OF13627   5.887   2.026   6.610  0.6131 -0.3149  0.3907
  127OSM    C2F13628   6.011   2.139   6.764 -0.9261 -0.4495  0.5420
  127OSM    H2F13629   5.912   2.190   6.758 -1.1471 -0.8863  0.4850
  127OSM    H2G13630   6.094   2.206   6.734 -0.7335 -1.2062 -0.6641
  127OSM    C3F13631   6.028   2.070   6.901 -0.5989 -0.0359 -0.0912
  127OSM    H3F13632   6.055   2.153   6.969 -0.4635  1.2947 -1.7420
  127OSM    H3G13633   6.114   2.000   6.900 -0.1003  0.5504  1.1959
  127OSM    C4F13634   5.915   1.977   6.949  0.1982  0.2752 -0.1533
  127OSM    H4F13635   5.895   1.892   6.880 -0.4973 -0.0127  0.3922
  127OSM    H4G13636   5.824   2.040   6.959  0.3537  0.5100 -0.2185
  127OSM    C5F13637   5.936   1.911   7.083  0.0752  0.0378 -0.0590
  127OSM    H5F13638   6.001   1.966   7.155 -0.0878  0.1815 -0.0189
  127OSM    H5G13639   5.993   1.817   7.071 -0.5161 -0.6527  2.1657
  127OSM    C6F13640   5.808   1.871   7.155 -0.2943  0.2146 -0.1248
  127OSM    H6F13641   5.753   1.801   7.088  0.2252 -0.6352  0.3180
  127OSM    H6G13642   5.747   1.963   7.160  0.0563  0.3906  1.2018
  127OSM    C7F13643   5.829   1.822   7.294 -0.1291 -0.5122 -0.5320
  127OSM    H7F13644   5.893   1.731   7.295  0.1914 -0.2807  1.8060
  127OSM    H7G13645   5.728   1.796   7.330 -0.5046  2.7331  0.9851
  127OSM    C8F13646   5.883   1.923   7.400  0.1721  0.1034 -0.1443
  127OSM    H8F13647   5.969   1.983   7.363 -0.7898 -0.1699 -2.9392
  127OSM    H8G13648   5.922   1.867   7.487 -0.0536  0.5561  0.2479
  127OSM    C9F13649   5.785   2.029   7.440 -0.0476 -0.0935 -0.5344
  127OSM    H9F13650   5.744   2.083   7.353 -3.5024  0.2029  1.1992
  127OSM   C10F13651   5.732   2.059   7.561 -0.1283 -0.3633 -0.5273
  127OSM   H10F13652   5.645   2.127   7.569  0.3498  0.4031 -1.6704
  127OSM   C11F13653   5.754   1.992   7.697 -0.2613  0.9544  0.3717
  127OSM   H11F13654   5.762   2.066   7.780  0.2758 -0.1550  1.3314
  127OSM   H11G13655   5.848   1.935   7.711 -1.4047 -0.4493  2.6644
  127OSM   C12F13656   5.638   1.891   7.722  0.1245  0.0323 -0.3476
  127OSM   H12F13657   5.636   1.819   7.637  1.1754  0.4475 -0.7371
  127OSM   H12G13658   5.547   1.954   7.723  0.0051 -0.1337 -0.7915
  127OSM   C13F13659   5.629   1.801   7.844 -0.3452  0.5297  0.0023
  127OSM   H13F13660   5.721   1.738   7.844  0.4840  1.7025 -0.4176
  127OSM   H13G13661   5.541   1.735   7.833 -0.3404  0.9340 -2.8226
  127OSM   C14F13662   5.608   1.865   7.986  0.5333 -0.0936 -0.2977
  127OSM   H14F13663   5.528   1.940   7.972  0.6058 -0.3953 -2.5510
  127OSM   H14G13664   5.698   1.925   8.012 -0.4513  0.9919  0.6555
  127OSM   C15F13665   5.567   1.765   8.097 -1.1355  0.0666  0.2463
  127OSM   H15F13666   5.651   1.695   8.117 -0.5937  0.3354 -1.0328
  127OSM   H15G13667   5.483   1.705   8.055 -1.2969  0.2331  0.3364
  127OSM   C16F13668   5.523   1.847   8.212  0.5559 -0.2695 -0.3344
  127OSM   H16F13669   5.445   1.919   8.178 -0.6780 -2.0599 -1.4470
  127OSM   H16G13670   5.604   1.906   8.258 -0.5706  0.7679  0.3533
  127OSM   C17F13671   5.457   1.748   8.320  0.2859 -0.1367 -1.0793
  127OSM   H17F13672   5.543   1.687   8.354  0.1751 -0.4749 -1.4007
  127OSM   H17G13673   5.391   1.669   8.278 -0.8141  0.2516 -0.1053
  127OSM   C18F13674   5.387   1.810   8.438 -0.7845  0.0585  0.1688
  127OSM   H18F13675   5.459   1.873   8.496 -0.6619  0.3945 -0.3367
  127OSM   H18G13676   5.338   1.744   8.512 -0.4567  1.2875  1.5050
  127OSM   H18H13677   5.312   1.889   8.414 -0.9993 -0.7723 -2.0020
  128OSM      N13678   1.083   5.182   6.108 -0.0053 -0.1023 -0.1785
  128OSM    C1513679   1.163   5.059   6.148 -0.8062 -0.1683 -0.0583
  128OSM   H15A13680   1.132   4.974   6.090 -0.3075 -1.3082  1.3199
  128OSM   H15B13681   1.143   5.042   6.253 -0.3094  2.6576  0.5501
  128OSM   H15C13682   1.268   5.080   6.135 -0.2872 -2.8696 -0.3785
  128OSM    C1413683   1.067   5.185   5.965 -0.4551 -0.2098  0.0869
  128OSM   H14A13684   1.158   5.207   5.912 -0.1223 -1.9805 -0.0838
  128OSM   H14B13685   0.986   5.247   5.929 -1.1034 -1.2614 -0.2647
  128OSM   H14C13686   1.029   5.087   5.942 -0.3615  0.2000 -1.8596
  128OSM    C1313687   0.948   5.166   6.167  0.3750  0.0696 -0.4829
  128OSM   H13A13688   0.896   5.074   6.144  1.2815 -0.2349 -1.3381
  128OSM   H13B13689   0.881   5.243   6.131  0.1750  1.1077  2.0209
  128OSM   H13C13690   0.957   5.182   6.273  0.2389 -1.3628 -0.2417
  128OSM    C1213691   1.145   5.307   6.172  0.0940  0.1588  0.3615
  128OSM   H12A13692   1.158   5.288   6.277 -0.7896  1.1050  0.6614
  128OSM   H12B13693   1.077   5.392   6.173  1.4957  1.3614 -1.8942
  128OSM    C1113694   1.267   5.357   6.112 -0.1625  0.1574  0.2964
  128OSM   H11A13695   1.286   5.460   6.148  0.4282  0.1238  0.1008
  128OSM   H11B13696   1.262   5.364   6.001 -0.8555  0.0658  0.3201
  128OSM      P13697   1.521   5.301   6.152 -0.0599  0.3025  0.0433
  128OSM    O1313698   1.597   5.176   6.125  0.9102 -0.1850 -0.0174
  128OSM    O1413699   1.537   5.403   6.050  0.5037  0.9920 -0.3094
  128OSM    O1113700   1.541   5.366   6.302 -0.0274 -0.5122  0.4850
  128OSM    O1213701   1.367   5.260   6.152  0.2604  0.3613  0.1122
  128OSM    C1S13702   1.486   5.278   6.404  0.0964  0.5867 -0.3273
  128OSM    H1S13703   1.543   5.183   6.395  1.0564  1.3121 -2.0725
  128OSM    H1T13704   1.377   5.266   6.383  0.1926  1.9410 -1.6767
  128OSM     NF13705   1.458   5.249   6.635  0.2187  0.2148 -0.3719
  128OSM    HNF13706   1.361   5.233   6.652  0.4708 -0.4099  0.5024
  128OSM    C2S13707   1.489   5.348   6.539 -0.1708  0.2642  0.0778
  128OSM    H2S13708   1.589   5.388   6.564 -0.0696 -0.6527  1.1665
  128OSM    C3S13709   1.391   5.470   6.545  0.2719 -0.4055  0.2041
  128OSM    H3S13710   1.285   5.438   6.551  0.1083  0.0550 -0.3181
  128OSM     O313711   1.389   5.547   6.424  0.4093  0.0605 -0.3288
  128OSM    HO313712   1.454   5.501   6.371  1.2443  0.0717  0.6473
  128OSM    C4S13713   1.426   5.554   6.669 -0.0796  0.6819  0.2063
  128OSM    H4S13714   1.359   5.554   6.755 -0.2738  1.7661  0.0672
  128OSM    C5S13715   1.542   5.633   6.669 -0.2630  0.0003 -0.2453
  128OSM    H5S13716   1.610   5.629   6.583 -0.4084  3.5588 -0.5895
  128OSM    C6S13717   1.592   5.712   6.789  0.0251 -0.5316  0.4208
  128OSM    H6S13718   1.595   5.818   6.759  0.5050 -0.5146  0.5292
  128OSM    H6T13719   1.698   5.696   6.816  0.0774 -0.1919  0.4185
  128OSM    C7S13720   1.501   5.691   6.914 -0.4066  0.3329  0.3069
  128OSM    H7S13721   1.517   5.589   6.954 -1.0794  0.1902  0.2095
  128OSM    H7T13722   1.394   5.704   6.888 -0.4553  2.1274  1.3564
  128OSM    C8S13723   1.535   5.803   7.016  0.4027 -0.5794  0.3533
  128OSM    H8S13724   1.520   5.904   6.974 -1.1327 -0.7164  0.5438
  128OSM    H8T13725   1.645   5.799   7.034  0.0742  1.9686  3.3545
  128OSM    C9S13726   1.464   5.779   7.152  0.2245  0.4168  0.2002
  128OSM    H9S13727   1.503   5.677   7.169  1.8796  1.4099  2.7325
  128OSM    H9T13728   1.354   5.769   7.142  0.2946  1.2747 -1.5707
  128OSM   C10S13729   1.518   5.873   7.265 -0.4083 -0.2055 -0.1057
  128OSM   H10S13730   1.485   5.977   7.243  3.1938  0.9227 -0.4288
  128OSM   H10T13731   1.629   5.872   7.267 -0.3741 -1.3651 -1.7708
  128OSM   C11S13732   1.465   5.835   7.404 -0.0150  0.8040 -0.7247
  128OSM   H11S13733   1.538   5.756   7.433 -0.8380 -0.7009 -2.6300
  128OSM   H11T13734   1.368   5.782   7.399  0.5397 -0.2822 -0.0759
  128OSM   C12S13735   1.479   5.940   7.518  0.3604  0.4865 -0.1780
  128OSM   H12S13736   1.402   6.016   7.495  0.7104  0.5251 -1.2548
  128OSM   H12T13737   1.580   5.987   7.516 -0.1226  1.5501  0.4572
  128OSM   C13S13738   1.446   5.891   7.657 -0.3841 -0.6108  0.3019
  128OSM   H13S13739   1.493   5.792   7.677 -0.1614 -0.6415 -0.3393
  128OSM   H13T13740   1.337   5.873   7.661 -0.5984  0.4784 -0.4218
  128OSM   C14S13741   1.488   5.985   7.764 -0.3326 -0.5376  0.5277
  128OSM   H14S13742   1.448   6.084   7.733  3.1214  1.4651  2.2392
  128OSM   H14T13743   1.597   5.995   7.778 -0.1173 -2.5224  0.4092
  128OSM   C15S13744   1.433   5.942   7.899  0.0575 -1.4936  0.3417
  128OSM   H15S13745   1.439   5.832   7.915 -2.7292 -1.5452  1.3488
  128OSM   H15T13746   1.325   5.968   7.890  0.6076  1.1373  1.0488
  128OSM   C16S13747   1.504   6.000   8.025  0.5159 -0.9435 -0.2859
  128OSM   H16S13748   1.547   6.100   8.003 -0.9933 -0.3886 -0.8361
  128OSM   H16T13749   1.583   5.923   8.032  0.2349 -1.1563  0.5549
  128OSM   C17S13750   1.397   6.008   8.144  0.3189  0.5050  0.2289
  128OSM   H17S13751   1.324   5.925   8.147 -1.8941  2.4455  1.0196
  128OSM   H17T13752   1.330   6.091   8.113  2.5136  2.1717 -0.1904
  128OSM   C18S13753   1.461   6.021   8.287 -0.8740 -0.2080 -0.3234
  128OSM   H18S13754   1.520   6.116   8.286 -0.9122 -0.1756  0.4564
  128OSM   H18T13755   1.533   5.940   8.312  0.5163  1.1558  0.2170
  128OSM   H18U13756   1.384   6.037   8.365  0.3938  1.1134  0.7050
  128OSM    C1F13757   1.545   5.175   6.692  0.1910  0.4558  0.4737
  128OSM     OF13758   1.660   5.210   6.691 -0.2569 -0.7190  0.0602
  128OSM    C2F13759   1.488   5.059   6.775  0.9280 -0.0313  0.1349
  128OSM    H2F13760   1.446   4.976   6.716 -1.7247  1.3867 -0.0425
  128OSM    H2G13761   1.408   5.096   6.843 -0.5848 -1.4507 -0.8507
  128OSM    C3F13762   1.602   5.012   6.873  0.0922 -0.2513 -0.2372
  128OSM    H3F13763   1.668   5.089   6.919 -0.0421 -0.4015  0.2127
  128OSM    H3G13764   1.667   4.941   6.818  1.4681  0.4643  0.4389
  128OSM    C4F13765   1.538   4.932   6.992 -0.4391 -0.1440 -0.9095
  128OSM    H4F13766   1.615   4.868   7.042  0.4424 -0.2348 -2.3751
  128OSM    H4G13767   1.465   4.853   6.963 -0.3385 -1.5465  2.3319
  128OSM    C5F13768   1.482   5.022   7.106  0.2449 -0.0299  0.3120
  128OSM    H5F13769   1.390   5.076   7.075  0.1354 -0.8352 -0.7943
  128OSM    H5G13770   1.557   5.100   7.131  0.4159 -1.3403  4.2313
  128OSM    C6F13771   1.465   4.944   7.232 -0.5299  0.3350  0.5654
  128OSM    H6F13772   1.554   4.879   7.247  0.2472  0.2661 -3.6773
  128OSM    H6G13773   1.385   4.868   7.219 -0.6396  0.7806 -1.5031
  128OSM    C7F13774   1.452   5.049   7.346 -0.4614 -0.3321  0.1776
  128OSM    H7F13775   1.367   5.119   7.334  0.5384  0.8026 -0.3937
  128OSM    H7G13776   1.543   5.112   7.339 -0.3987 -0.6592 -2.6657
  128OSM    C8F13777   1.442   4.995   7.484 -0.1581  0.1089 -0.0236
  128OSM    H8F13778   1.528   4.927   7.502  1.5093  1.9076 -0.8805
  128OSM    H8G13779   1.343   4.947   7.495  0.1451 -0.1506  1.6723
  128OSM    C9F13780   1.459   5.106   7.590 -0.0548 -0.0519  0.4662
  128OSM    H9F13781   1.425   5.208   7.565  1.3223  0.0947 -0.8888
  128OSM   C10F13782   1.523   5.088   7.707 -0.7093  0.2905 -0.4981
  128OSM   H10F13783   1.520   5.170   7.781 -1.4818 -0.5399  0.3978
  128OSM   C11F13784   1.604   4.974   7.760 -0.2666 -0.1880 -0.0984
  128OSM   H11F13785   1.553   4.878   7.738  1.9487 -0.9405 -2.1219
  128OSM   H11G13786   1.617   4.997   7.868 -3.4469  0.6072  0.1664
  128OSM   C12F13787   1.749   4.965   7.689 -0.5065 -0.0364 -0.2734
  128OSM   H12F13788   1.734   4.975   7.579 -2.6252 -0.9192 -0.0717
  128OSM   H12G13789   1.782   4.862   7.711  1.8485  0.4356 -1.3715
  128OSM   C13F13790   1.852   5.067   7.727 -0.6964 -0.5852  0.2962
  128OSM   H13F13791   1.820   5.170   7.701  0.0231 -0.7599 -1.3399
  128OSM   H13G13792   1.940   5.055   7.660 -1.2465  3.4695 -1.2762
  128OSM   C14F13793   1.891   5.076   7.879  0.0332 -0.7382  0.0973
  128OSM   H14F13794   1.801   5.103   7.938  1.0739 -0.3369  1.5190
  128OSM   H14G13795   1.964   5.159   7.885  0.5308 -1.1347 -0.3810
  128OSM   C15F13796   1.953   4.949   7.941  0.0189  0.0971  0.3237
  128OSM   H15F13797   2.008   4.900   7.858 -0.3057 -1.3293  0.9254
  128OSM   H15G13798   1.870   4.880   7.968 -0.0058 -0.2052 -0.4856
  128OSM   C16F13799   2.061   4.983   8.049 -0.0366 -0.2686 -0.4298
  128OSM   H16F13800   2.020   5.057   8.122  0.2111 -0.7529  0.2056
  128OSM   H16G13801   2.148   5.027   7.996  0.1972 -1.4511 -1.0402
  128OSM   C17F13802   2.104   4.855   8.115  0.0707 -0.4634 -0.5910
  128OSM   H17F13803   2.209   4.858   8.152 -0.8762 -0.1412  2.1807
  128OSM   H17G13804   2.109   4.765   8.051  1.3532 -0.7336 -0.1258
  128OSM   C18F13805   2.023   4.829   8.250 -0.0990 -0.0731 -0.0823
  128OSM   H18F13806   2.016   4.911   8.325  1.8554 -2.1349  2.4393
  128OSM   H18G13807   2.081   4.757   8.311  1.5219  0.3381 -1.0775
  128OSM   H18H13808   1.920   4.798   8.226 -0.5588  1.2185  0.1753
  129OSM      N13809   5.023   2.072   6.126 -0.3481 -0.4796 -0.5249
  129OSM    C1513810   5.004   1.948   6.218  0.2495  0.4266  0.3063
  129OSM   H15A13811   4.909   1.961   6.269  0.4629 -2.3451  1.5132
  129OSM   H15B13812   5.082   1.947   6.293  0.6984 -2.1605 -0.1492
  129OSM   H15C13813   5.017   1.857   6.162  2.4058  1.2833 -0.6163
  129OSM    C1413814   4.918   2.074   6.016 -0.2475 -0.2325  0.4138
  129OSM   H14A13815   4.820   2.066   6.062 -1.2517 -2.5428 -1.9581
  129OSM   H14B13816   4.925   1.983   5.958  3.2149 -0.2258  0.7538
  129OSM   H14C13817   4.920   2.166   5.958  1.1178 -0.9583 -0.7096
  129OSM    C1313818   5.001   2.203   6.202  0.4388 -0.8629 -0.5426
  129OSM   H13A13819   5.014   2.291   6.140  1.4436 -1.2015 -0.8167
  129OSM   H13B13820   5.071   2.214   6.283 -0.2262 -0.2455 -0.0436
  129OSM   H13C13821   4.901   2.218   6.241  0.4133 -1.0787 -0.5254
  129OSM    C1213822   5.161   2.067   6.068 -0.2796 -0.3270  0.3021
  129OSM   H12A13823   5.165   2.145   5.993 -1.9350  0.9494  1.5107
  129OSM   H12B13824   5.176   1.971   6.020 -1.8804 -0.9466  0.9944
  129OSM    C1113825   5.285   2.087   6.165  0.3471  0.3061 -0.7725
  129OSM   H11A13826   5.272   2.180   6.224  1.1211  1.2007 -1.9717
  129OSM   H11B13827   5.374   2.084   6.097  0.1538 -0.4969 -0.9975
  129OSM      P13828   5.363   1.844   6.230  0.1552 -0.3944  0.0160
  129OSM    O1313829   5.325   1.742   6.330 -0.0445  0.2827  0.2539
  129OSM    O1413830   5.339   1.808   6.086  0.0128 -0.1050 -0.2642
  129OSM    O1113831   5.514   1.881   6.253 -0.1015  0.0309  0.1097
  129OSM    O1213832   5.286   1.978   6.259 -0.0810  0.4559  0.0813
  129OSM    C1S13833   5.554   1.965   6.365 -0.3436  0.1201  0.3577
  129OSM    H1S13834   5.481   2.047   6.379 -2.2222 -1.6182  1.0683
  129OSM    H1T13835   5.654   2.004   6.338 -1.2951  3.1808  1.0670
  129OSM     NF13836   5.618   1.997   6.603 -0.6734 -0.2335 -0.6167
  129OSM    HNF13837   5.715   2.019   6.603 -0.0804 -2.7326 -1.3354
  129OSM    C2S13838   5.565   1.901   6.508 -0.5779  0.2482  0.1126
  129OSM    H2S13839   5.463   1.871   6.539 -0.1904 -0.2064  0.9587
  129OSM    C3S13840   5.654   1.771   6.503  0.0749 -0.6640 -0.2528
  129OSM    H3S13841   5.760   1.796   6.484 -0.3921  0.3171 -1.6734
  129OSM     O313842   5.603   1.677   6.409  0.1949  0.5839  0.7521
  129OSM    HO313843   5.533   1.719   6.359 -0.5978 -1.0326  0.4577
  129OSM    C4S13844   5.642   1.715   6.640  0.0097  0.4727 -0.4923
  129OSM    H4S13845   5.541   1.703   6.682 -0.1150 -3.2572 -1.6701
  129OSM    C5S13846   5.748   1.682   6.716 -0.7168  0.7788 -0.3682
  129OSM    H5S13847   5.850   1.701   6.679 -0.2594 -1.1931 -0.1911
  129OSM    C6S13848   5.738   1.608   6.849  0.5430  0.7242 -0.1052
  129OSM    H6S13849   5.808   1.658   6.919 -0.7756  1.4295  0.7245
  129OSM    H6T13850   5.766   1.504   6.823 -1.7031  0.0985 -0.1236
  129OSM    C7S13851   5.599   1.597   6.923 -0.1417  0.5863  0.5584
  129OSM    H7S13852   5.525   1.564   6.847  1.7314  1.5163 -1.7649
  129OSM    H7T13853   5.568   1.698   6.956 -2.0166 -0.4037  1.9471
  129OSM    C8S13854   5.600   1.485   7.030  0.3419 -0.5811  0.4508
  129OSM    H8S13855   5.686   1.419   7.009  1.6490  1.1849  0.1678
  129OSM    H8T13856   5.507   1.425   7.039  0.5984 -0.9642  0.5335
  129OSM    C9S13857   5.612   1.540   7.170 -0.5311 -0.1535  0.6711
  129OSM    H9S13858   5.542   1.626   7.162 -1.0233 -0.7693 -1.8189
  129OSM    H9T13859   5.714   1.584   7.181  0.7412 -2.6957 -0.6245
  129OSM   C10S13860   5.572   1.454   7.284 -0.3913  0.3119 -1.1337
  129OSM   H10S13861   5.634   1.361   7.283 -1.7985 -0.6605 -0.1156
  129OSM   H10T13862   5.470   1.412   7.277 -1.7318  3.2311  0.1713
  129OSM   C11S13863   5.582   1.517   7.427  0.0444  0.6809  0.2214
  129OSM   H11S13864   5.509   1.601   7.428 -0.3935  0.3094 -0.3099
  129OSM   H11T13865   5.679   1.565   7.453  0.6770 -0.6335  0.3000
  129OSM   C12S13866   5.569   1.405   7.535  0.0687 -0.4700 -0.1146
  129OSM   H12S13867   5.669   1.367   7.566 -0.1023 -1.1183 -0.3413
  129OSM   H12T13868   5.501   1.327   7.495 -0.3705  0.3208 -0.9125
  129OSM   C13S13869   5.505   1.454   7.668 -0.4909  0.2967 -0.1528
  129OSM   H13S13870   5.395   1.466   7.660 -0.5293 -0.2967 -0.5314
  129OSM   H13T13871   5.544   1.553   7.700  0.7634 -0.5656  1.0423
  129OSM   C14S13872   5.531   1.359   7.788  0.0604  0.4759 -1.0435
  129OSM   H14S13873   5.639   1.377   7.804  0.0468 -0.1142 -0.2604
  129OSM   H14T13874   5.509   1.251   7.769 -1.3600  0.5232  0.2768
  129OSM   C15S13875   5.463   1.414   7.915  0.5332 -0.1679  0.2881
  129OSM   H15S13876   5.353   1.397   7.909 -0.2538  4.0644  1.0362
  129OSM   H15T13877   5.470   1.523   7.937  0.8872 -0.0516 -0.4117
  129OSM   C16S13878   5.518   1.347   8.040 -0.0285 -0.8723 -0.9486
  129OSM   H16S13879   5.618   1.396   8.051  0.5220 -2.2966  0.6956
  129OSM   H16T13880   5.520   1.237   8.027 -1.6973 -1.0368  0.1069
  129OSM   C17S13881   5.432   1.382   8.160 -0.3349  0.0067  0.0577
  129OSM   H17S13882   5.333   1.332   8.152  0.4428 -1.4330 -0.8342
  129OSM   H17T13883   5.427   1.493   8.163 -0.0231  0.0364 -0.4072
  129OSM   C18S13884   5.497   1.334   8.292 -0.3662 -0.2089  0.5876
  129OSM   H18S13885   5.420   1.368   8.365 -1.5956  1.2837 -1.3493
  129OSM   H18T13886   5.594   1.381   8.319 -1.6776  1.6069  2.4234
  129OSM   H18U13887   5.500   1.223   8.289  0.6118 -0.1651 -0.2165
  129OSM    C1F13888   5.549   2.104   6.648  0.0376 -0.0611  0.0411
  129OSM     OF13889   5.428   2.111   6.618 -0.3099 -0.2339  0.0435
  129OSM    C2F13890   5.621   2.212   6.724 -0.5376  1.0032 -0.3876
  129OSM    H2F13891   5.673   2.275   6.649  2.0353 -1.1151 -0.4358
  129OSM    H2G13892   5.697   2.174   6.795 -1.4270  2.5317  1.4307
  129OSM    C3F13893   5.532   2.299   6.808 -1.1933 -0.2476 -0.2958
  129OSM    H3F13894   5.474   2.242   6.883 -0.8512  0.7209  0.7065
  129OSM    H3G13895   5.460   2.356   6.746 -0.9184  1.1622  0.6611
  129OSM    C4F13896   5.609   2.409   6.889  0.3588 -0.0516  0.3801
  129OSM    H4F13897   5.533   2.489   6.903 -0.7133 -0.6086 -1.9444
  129OSM    H4G13898   5.685   2.450   6.818  1.6601 -0.1728  1.6808
  129OSM    C5F13899   5.673   2.355   7.024  0.3367  0.0775  0.4171
  129OSM    H5F13900   5.730   2.261   7.008  3.3514  2.1856 -1.7086
  129OSM    H5G13901   5.587   2.341   7.093 -0.5619  2.3196 -0.1928
  129OSM    C6F13902   5.778   2.457   7.077  0.5589 -0.0593 -0.3505
  129OSM    H6F13903   5.732   2.491   7.173 -0.7445  0.2289 -1.0684
  129OSM    H6G13904   5.772   2.538   7.002  2.7135  1.6578  1.2498
  129OSM    C7F13905   5.914   2.400   7.109  0.1398 -0.2273 -0.0900
  129OSM    H7F13906   5.984   2.484   7.131  0.4530 -0.3024 -0.7977
  129OSM    H7G13907   5.957   2.345   7.022 -0.3328 -0.8518  0.0644
  129OSM    C8F13908   5.907   2.298   7.225  0.9014  0.2147  0.3824
  129OSM    H8F13909   5.857   2.206   7.188 -0.3711  0.2940  1.8462
  129OSM    H8G13910   5.833   2.339   7.297 -0.0519  1.1726 -1.1292
  129OSM    C9F13911   6.039   2.274   7.296 -0.6124  0.8938  0.4609
  129OSM    H9F13912   6.104   2.202   7.245  0.3422  0.7480  1.8759
  129OSM   C10F13913   6.080   2.324   7.419 -0.2953 -0.4059  0.1811
  129OSM   H10F13914   6.182   2.304   7.456 -0.3133 -2.4652 -0.7747
  129OSM   C11F13915   6.001   2.420   7.513  0.2545  0.5572  0.1987
  129OSM   H11F13916   5.958   2.379   7.607  0.3942 -1.9252 -0.7997
  129OSM   H11G13917   5.914   2.462   7.458 -0.2082 -0.2421  0.3237
  129OSM   C12F13918   6.081   2.550   7.545  0.0503  0.0750 -0.2415
  129OSM   H12F13919   6.169   2.528   7.609  0.2661 -0.5459 -0.7387
  129OSM   H12G13920   6.027   2.614   7.618 -0.8345  1.9715 -2.5046
  129OSM   C13F13921   6.111   2.631   7.422  0.3883 -0.3772  0.0160
  129OSM   H13F13922   6.032   2.683   7.364 -0.1861 -0.4160  0.7558
  129OSM   H13G13923   6.171   2.569   7.352  0.3006 -1.7287  1.1002
  129OSM   C14F13924   6.195   2.745   7.478  0.1033 -1.0345  0.4969
  129OSM   H14F13925   6.279   2.709   7.541  1.4302  0.3863 -0.4324
  129OSM   H14G13926   6.120   2.804   7.535 -0.0232 -2.2967  1.6706
  129OSM   C15F13927   6.257   2.844   7.370  0.2703  0.1072 -0.8949
  129OSM   H15F13928   6.273   2.941   7.421 -2.3197  0.6145 -0.9426
  129OSM   H15G13929   6.185   2.877   7.291 -1.3719  1.3527  1.0788
  129OSM   C16F13930   6.389   2.794   7.312 -0.1331 -0.1143  0.2321
  129OSM   H16F13931   6.355   2.701   7.261 -1.4528  1.1977 -1.3635
  129OSM   H16G13932   6.468   2.778   7.388  0.9717  1.8998 -0.4543
  129OSM   C17F13933   6.442   2.893   7.205 -0.1333 -0.0879 -0.4204
  129OSM   H17F13934   6.362   2.922   7.134  1.5264  2.6776 -1.2540
  129OSM   H17G13935   6.519   2.845   7.142  2.8440 -1.2325  3.8663
  129OSM   C18F13936   6.507   3.016   7.268  0.0483 -0.0198 -0.2468
  129OSM   H18F13937   6.427   3.088   7.296  1.3233  1.0183  0.7691
  129OSM   H18G13938   6.563   3.069   7.188  2.1748  0.4068  1.4801
  129OSM   H18H13939   6.572   3.006   7.357  2.0510 -0.7005 -1.7572
  130OSM      N13940   1.919   3.905   6.325  0.5619  0.3483  0.3198
  130OSM    C1513941   1.944   3.815   6.208  0.2585 -0.4950 -0.2132
  130OSM   H15A13942   2.047   3.782   6.215 -0.0263 -1.7480 -1.7095
  130OSM   H15B13943   1.937   3.855   6.108  0.6541  0.0573 -0.0273
  130OSM   H15C13944   1.873   3.734   6.214 -1.2715  0.8225 -0.0820
  130OSM    C1413945   1.781   3.959   6.319 -0.0365  0.6680 -0.0118
  130OSM   H14A13946   1.780   4.048   6.381 -1.4973 -0.2303  1.2766
  130OSM   H14B13947   1.715   3.890   6.369  1.2143 -1.1560 -0.8245
  130OSM   H14C13948   1.739   3.983   6.222 -1.7872  0.7879  0.7557
  130OSM    C1313949   1.929   3.835   6.456 -0.6581 -0.1578  0.4294
  130OSM   H13A13950   2.032   3.800   6.462 -0.9831 -1.0193  1.1442
  130OSM   H13B13951   1.858   3.754   6.458 -1.0606  0.2312  2.3600
  130OSM   H13C13952   1.911   3.899   6.541 -2.4188 -0.6427  0.4471
  130OSM    C1213953   2.025   4.015   6.313 -0.1958 -0.0513 -0.0297
  130OSM   H12A13954   2.017   4.067   6.218 -2.6028 -1.6571 -0.7554
  130OSM   H12B13955   2.126   3.977   6.322 -0.5642 -0.9001  0.5436
  130OSM    C1113956   2.013   4.132   6.415 -0.3216  0.0253  0.5663
  130OSM   H11A13957   2.105   4.195   6.408 -0.7801  0.7107  0.5945
  130OSM   H11B13958   2.030   4.094   6.518  0.8980 -0.3137  0.2534
  130OSM      P13959   1.881   4.323   6.310 -0.2998  0.0266 -0.0976
  130OSM    O1313960   1.960   4.287   6.188  0.1727 -0.0867 -0.1609
  130OSM    O1413961   1.742   4.370   6.292  0.2729  0.2962  0.1952
  130OSM    O1113962   1.957   4.433   6.392  0.0655 -0.1701  0.3052
  130OSM    O1213963   1.883   4.201   6.409 -0.0078 -0.0555  0.0846
  130OSM    C1S13964   1.891   4.518   6.488 -0.6704 -0.0568 -0.3086
  130OSM    H1S13965   1.783   4.535   6.467 -0.9632 -0.0568  1.1250
  130OSM    H1T13966   1.937   4.619   6.489 -1.9947  0.5835 -1.7085
  130OSM     NF13967   1.808   4.531   6.717 -1.0367  0.1850  0.0984
  130OSM    HNF13968   1.849   4.599   6.777 -1.3253  0.5956 -0.1590
  130OSM    C2S13969   1.903   4.461   6.633 -0.9144  0.4862 -1.3652
  130OSM    H2S13970   1.869   4.355   6.632  0.3351  0.0733 -0.6411
  130OSM    C3S13971   2.059   4.463   6.679 -0.2276 -0.3927 -0.2127
  130OSM    H3S13972   2.093   4.566   6.656  1.8568 -1.0357 -0.0572
  130OSM     O313973   2.140   4.369   6.608 -0.1134 -0.4789 -0.1968
  130OSM    HO313974   2.085   4.351   6.532 -1.3285 -1.1653  0.8314
  130OSM    C4S13975   2.059   4.434   6.825 -0.1012 -0.7075 -0.3981
  130OSM    H4S13976   1.994   4.348   6.846 -0.2682 -0.4924 -0.0172
  130OSM    C5S13977   2.119   4.486   6.930 -0.1809  0.1446 -0.0253
  130OSM    H5S13978   2.180   4.577   6.916  2.4344 -1.5426  0.0819
  130OSM    C6S13979   2.091   4.444   7.070  0.3743  0.5975  0.0391
  130OSM    H6S13980   2.147   4.350   7.090 -0.8543  0.4136  2.7480
  130OSM    H6T13981   1.982   4.430   7.087  0.6498  0.9427  2.2288
  130OSM    C7S13982   2.155   4.542   7.168  0.2139 -0.0974 -0.2757
  130OSM    H7S13983   2.115   4.644   7.147  1.0481  0.0364 -1.2611
  130OSM    H7T13984   2.266   4.537   7.162  0.3993 -0.3149  2.8911
  130OSM    C8S13985   2.124   4.511   7.319  0.0051  0.0223  0.3964
  130OSM    H8S13986   2.198   4.434   7.350 -1.4715 -1.5476  0.1222
  130OSM    H8T13987   2.016   4.486   7.328 -0.0024 -0.4710 -0.8912
  130OSM    C9S13988   2.131   4.635   7.407  0.2762  0.1352 -0.3749
  130OSM    H9S13989   2.071   4.719   7.367 -1.4682 -0.1766  1.4652
  130OSM    H9T13990   2.236   4.670   7.400  0.4462  0.1525  1.8496
  130OSM   C10S13991   2.069   4.615   7.548  0.0812  0.1898  0.3037
  130OSM   H10S13992   1.960   4.593   7.541  0.8436 -3.8816  0.4034
  130OSM   H10T13993   2.071   4.705   7.613 -1.4768 -0.9492  1.9772
  130OSM   C11S13994   2.128   4.501   7.636 -0.1433  0.2238 -0.5588
  130OSM   H11S13995   2.239   4.498   7.623 -0.2237 -1.3605 -0.9149
  130OSM   H11T13996   2.084   4.402   7.613  2.0179 -0.6179 -1.2079
  130OSM   C12S13997   2.113   4.527   7.787  0.1469  0.5022 -0.0535
  130OSM   H12S13998   2.007   4.528   7.819 -0.4971  0.6536 -2.0737
  130OSM   H12T13999   2.158   4.629   7.799 -2.3268  1.4059  1.7990
  130OSM   C13S14000   2.194   4.429   7.877  0.0422  0.8122 -0.2181
  130OSM   H13S14001   2.297   4.415   7.837  0.1003 -1.6979  0.7189
  130OSM   H13T14002   2.140   4.332   7.874  3.1516 -0.9948  0.0882
  130OSM   C14S14003   2.211   4.482   8.026  0.0764 -0.0884  0.5896
  130OSM   H14S14004   2.116   4.527   8.063 -0.6482 -0.0667 -1.2302
  130OSM   H14T14005   2.296   4.553   8.019  0.5210 -0.7495 -0.7972
  130OSM   C15S14006   2.241   4.372   8.127  0.1629  1.0320 -0.2781
  130OSM   H15S14007   2.346   4.336   8.129 -0.1772  0.0685  2.7275
  130OSM   H15T14008   2.176   4.287   8.100  0.3063  0.1196  2.1310
  130OSM   C16S14009   2.217   4.406   8.266  0.6243 -0.0518 -0.1309
  130OSM   H16S14010   2.110   4.435   8.274  1.1983  2.8063 -2.1173
  130OSM   H16T14011   2.283   4.491   8.290  1.7493 -0.2042 -2.5951
  130OSM   C17S14012   2.236   4.284   8.359 -0.6859 -0.6368 -0.9800
  130OSM   H17S14013   2.339   4.244   8.355  0.3214  1.7781 -0.2217
  130OSM   H17T14014   2.164   4.202   8.336 -0.2536 -1.2185 -0.2682
  130OSM   C18S14015   2.205   4.335   8.502  0.1982  0.5831 -0.4422
  130OSM   H18S14016   2.107   4.386   8.511 -0.4390 -1.0230  2.0279
  130OSM   H18T14017   2.290   4.402   8.530  1.1348  0.0325 -1.9176
  130OSM   H18U14018   2.203   4.253   8.577 -0.7835 -2.3541 -3.5638
  130OSM    C1F14019   1.682   4.518   6.707  0.5075  0.6211  0.2162
  130OSM     OF14020   1.645   4.427   6.631  0.1308 -0.4920  0.0193
  130OSM    C2F14021   1.585   4.627   6.763  0.7775 -0.0658 -0.0896
  130OSM    H2F14022   1.588   4.717   6.698 -1.2185 -0.3276 -0.5623
  130OSM    H2G14023   1.624   4.648   6.865  1.8332 -2.7293  0.1017
  130OSM    C3F14024   1.440   4.559   6.782 -0.1559  0.1577 -0.9086
  130OSM    H3F14025   1.407   4.537   6.678 -0.9503 -2.2064 -0.1933
  130OSM    H3G14026   1.381   4.632   6.840 -0.9075 -1.7678  0.8182
  130OSM    C4F14027   1.424   4.432   6.872  0.2640 -0.1976 -0.3343
  130OSM    H4F14028   1.520   4.378   6.883 -0.1354 -1.2745 -1.9629
  130OSM    H4G14029   1.355   4.371   6.811 -1.1065  1.9803 -1.0373
  130OSM    C5F14030   1.359   4.442   7.016 -0.0731  0.2180 -0.3530
  130OSM    H5F14031   1.338   4.340   7.053 -2.2814  0.2473 -1.4573
  130OSM    H5G14032   1.264   4.500   7.011  0.4206  1.3372  2.3697
  130OSM    C6F14033   1.447   4.530   7.107 -0.4240  0.2344 -0.1800
  130OSM    H6F14034   1.392   4.536   7.203 -1.3415 -1.2076 -0.6031
  130OSM    H6G14035   1.451   4.631   7.061 -0.2319  0.8320  1.1197
  130OSM    C7F14036   1.586   4.476   7.132  0.1678  0.4039  0.4982
  130OSM    H7F14037   1.634   4.446   7.036  0.4875  1.0584  0.4473
  130OSM    H7G14038   1.577   4.382   7.189 -5.1917 -0.1097 -0.9327
  130OSM    C8F14039   1.689   4.570   7.198 -0.0621 -0.5732  0.4847
  130OSM    H8F14040   1.706   4.650   7.122 -1.3141  0.0057  0.8206
  130OSM    H8G14041   1.790   4.523   7.205 -0.6877 -1.8162  1.3175
  130OSM    C9F14042   1.657   4.631   7.333 -0.3836  0.8530 -0.9309
  130OSM    H9F14043   1.675   4.739   7.337  0.2508  0.7450 -0.7356
  130OSM   C10F14044   1.604   4.582   7.445 -0.0928 -0.3390  0.1359
  130OSM   H10F14045   1.587   4.650   7.529 -0.2525 -1.7475  1.2606
  130OSM   C11F14046   1.569   4.437   7.478 -0.4363  0.0207  0.1923
  130OSM   H11F14047   1.652   4.366   7.457  1.0675  0.9513  2.8001
  130OSM   H11G14048   1.485   4.409   7.410  0.9257 -0.0890 -1.4836
  130OSM   C12F14049   1.534   4.422   7.629  0.6299 -0.6220  0.0199
  130OSM   H12F14050   1.630   4.450   7.679  1.5574  0.7897 -2.4733
  130OSM   H12G14051   1.527   4.312   7.642  1.1387 -0.6090  0.4523
  130OSM   C13F14052   1.426   4.505   7.689  0.9144  0.1928 -0.2509
  130OSM   H13F14053   1.331   4.484   7.636  0.6921  0.1759  0.1540
  130OSM   H13G14054   1.446   4.615   7.686  0.9810  0.1721 -0.5617
  130OSM   C14F14055   1.395   4.478   7.843 -0.1891  0.2785  0.1718
  130OSM   H14F14056   1.322   4.395   7.851 -0.4717  0.5889  0.9037
  130OSM   H14G14057   1.332   4.553   7.895 -2.0950 -1.4989  0.4729
  130OSM   C15F14058   1.512   4.458   7.944  0.5225  0.2804 -0.1090
  130OSM   H15F14059   1.583   4.374   7.924  0.7131  0.1822  0.9968
  130OSM   H15G14060   1.459   4.446   8.040  0.0990  3.0881  0.0336
  130OSM   C16F14061   1.595   4.588   7.935 -0.1326  0.2237 -0.3074
  130OSM   H16F14062   1.529   4.677   7.922 -1.0075 -0.3517  0.1691
  130OSM   H16G14063   1.667   4.580   7.850  1.3178  0.4160  0.8882
  130OSM   C17F14064   1.677   4.626   8.059 -0.1734  0.1218 -0.2059
  130OSM   H17F14065   1.613   4.656   8.145  1.0643  0.1890  0.7031
  130OSM   H17G14066   1.733   4.716   8.024  1.9196 -0.6933  0.9829
  130OSM   C18F14067   1.797   4.534   8.102 -0.3846  0.1781  0.0003
  130OSM   H18F14068   1.894   4.564   8.057  0.0614  0.1558  0.9369
  130OSM   H18G14069   1.777   4.427   8.080  1.5069 -0.0647 -0.5797
  130OSM   H18H14070   1.809   4.534   8.212  0.2713 -1.7508 -0.0546
  131OSM      N14071   6.220   0.787   5.869  0.0483 -0.6231 -0.5210
  131OSM    C1514072   6.301   0.763   5.993 -0.3992 -0.0773 -0.3762
  131OSM   H15A14073   6.248   0.807   6.076 -0.0665 -0.1242 -0.1377
  131OSM   H15B14074   6.397   0.812   5.985  0.4208 -1.9073 -2.3035
  131OSM   H15C14075   6.324   0.662   6.023  1.2244  0.2516 -0.4715
  131OSM    C1414076   6.225   0.934   5.843  0.5376  0.3073  0.5649
  131OSM   H14A14077   6.328   0.967   5.846 -0.1625  2.9641 -2.1661
  131OSM   H14B14078   6.178   0.980   5.929  4.1152  0.0722  2.7134
  131OSM   H14C14079   6.167   0.953   5.754 -1.0839  0.1579  1.5599
  131OSM    C1314080   6.279   0.717   5.762 -0.1926 -0.5367  0.1535
  131OSM   H13A14081   6.242   0.756   5.668 -0.2827 -3.5565 -1.1308
  131OSM   H13B14082   6.255   0.612   5.769 -2.3479  0.0428  2.0670
  131OSM   H13C14083   6.387   0.722   5.757 -0.2023  0.3093  0.7777
  131OSM    C1214084   6.076   0.750   5.890  0.5715  0.0708 -0.6929
  131OSM   H12A14085   6.064   0.643   5.880  2.4645 -0.1435 -0.8122
  131OSM   H12B14086   6.025   0.789   5.804 -0.7407 -2.1016 -0.9500
  131OSM    C1114087   6.006   0.797   6.021 -0.3567  0.2995 -0.2730
  131OSM   H11A14088   6.036   0.723   6.099  0.1949  1.3105  0.4804
  131OSM   H11B14089   5.897   0.783   6.004 -0.1710 -2.3491  0.4426
  131OSM      P14090   5.941   1.039   6.020 -0.0874  0.0116  0.3396
  131OSM    O1314091   6.011   1.170   6.028 -0.3777  0.0886 -0.1046
  131OSM    O1414092   5.883   1.003   5.890  0.4915 -0.0932  1.0211
  131OSM    O1114093   5.837   1.035   6.137  0.0347 -0.0921  0.9309
  131OSM    O1214094   6.042   0.923   6.068 -0.0999  0.1271 -0.2404
  131OSM    C1S14095   5.873   1.078   6.267  0.4919 -0.2934  0.3154
  131OSM    H1S14096   5.850   1.185   6.286 -0.3296 -0.4338  0.1292
  131OSM    H1T14097   5.983   1.061   6.276  1.0054  2.7723  0.2463
  131OSM     NF14098   5.836   1.069   6.503  0.2398  0.1567  0.5549
  131OSM    HNF14099   5.893   1.010   6.561  0.9914 -1.8709 -2.1350
  131OSM    C2S14100   5.789   1.009   6.381 -0.6423  0.2359 -0.6668
  131OSM    H2S14101   5.683   1.039   6.369 -0.8486 -0.1392  0.2321
  131OSM    C3S14102   5.802   0.855   6.376  0.4752 -0.3640 -0.0381
  131OSM    H3S14103   5.910   0.829   6.369  1.2829  2.5607  0.5410
  131OSM     O314104   5.758   0.801   6.250 -0.2100 -0.2049 -0.6539
  131OSM    HO314105   5.750   0.875   6.190 -1.6182 -0.7963 -1.2268
  131OSM    C4S14106   5.738   0.798   6.493  0.2731  0.3889 -0.4560
  131OSM    H4S14107   5.641   0.846   6.511  0.2733  0.3260 -0.2867
  131OSM    C5S14108   5.799   0.723   6.583  0.4907  0.6653  0.0896
  131OSM    H5S14109   5.902   0.689   6.566  0.1350 -0.7426  0.6012
  131OSM    C6S14110   5.726   0.675   6.709  0.7472  0.4614 -0.9066
  131OSM    H6S14111   5.714   0.566   6.692  1.6274  0.6547 -2.9153
  131OSM    H6T14112   5.624   0.717   6.704 -0.3476 -2.0135  0.0026
  131OSM    C7S14113   5.805   0.710   6.830 -0.2110  0.2529  0.2788
  131OSM    H7S14114   5.799   0.820   6.842 -0.8644 -0.0396  3.0333
  131OSM    H7T14115   5.912   0.682   6.822 -0.5056 -1.2265  1.2747
  131OSM    C8S14116   5.751   0.640   6.956  0.5614  0.1417  0.4223
  131OSM    H8S14117   5.641   0.651   6.956  0.3839 -1.5568  0.4801
  131OSM    H8T14118   5.789   0.696   7.044  0.6104 -0.5517  0.8390
  131OSM    C9S14119   5.806   0.499   6.963  0.3105 -0.1101  0.2429
  131OSM    H9S14120   5.889   0.482   6.892  1.2586 -0.1908  1.3570
  131OSM    H9T14121   5.717   0.437   6.938  0.8768 -0.3966 -1.0707
  131OSM   C10S14122   5.872   0.460   7.100 -0.0117  0.1189 -0.5487
  131OSM   H10S14123   5.957   0.527   7.125  0.3334  0.0554 -1.5557
  131OSM   H10T14124   5.903   0.353   7.100 -1.4259 -0.3597  2.3785
  131OSM   C11S14125   5.773   0.474   7.219  0.4275  1.3591  0.0322
  131OSM   H11S14126   5.694   0.398   7.200  2.3209 -0.6652  0.1927
  131OSM   H11T14127   5.715   0.568   7.207  0.9842  1.9755  1.9849
  131OSM   C12S14128   5.813   0.453   7.371  0.1163 -0.6948 -0.3158
  131OSM   H12S14129   5.833   0.347   7.396 -1.4098 -0.4515  2.0915
  131OSM   H12T14130   5.724   0.465   7.436 -0.2176  0.8195 -1.0114
  131OSM   C13S14131   5.933   0.529   7.422 -0.0136  0.4890  0.7626
  131OSM   H13S14132   5.910   0.636   7.405 -0.6151  0.0239 -1.4610
  131OSM   H13T14133   6.023   0.503   7.361  1.0065  0.4973  2.2326
  131OSM   C14S14134   5.972   0.493   7.567  0.7360  0.7263  0.0114
  131OSM   H14S14135   6.077   0.513   7.594  1.5277 -0.7213 -1.8725
  131OSM   H14T14136   5.959   0.384   7.584 -0.1914  0.9907  1.0619
  131OSM   C15S14137   5.882   0.569   7.672  0.3079  0.1571  0.4919
  131OSM   H15S14138   5.774   0.569   7.646 -0.3349 -0.2524  3.0811
  131OSM   H15T14139   5.913   0.676   7.682  0.4690  0.0923  0.6951
  131OSM   C16S14140   5.887   0.505   7.817  0.3246 -0.0472 -0.1344
  131OSM   H16S14141   5.988   0.512   7.862 -0.3632  0.5953  1.3352
  131OSM   H16T14142   5.859   0.397   7.818 -0.0379  0.0411 -0.5940
  131OSM   C17S14143   5.781   0.572   7.908  0.2922  0.4269  0.1544
  131OSM   H17S14144   5.810   0.677   7.928  1.4046  0.0516  0.5753
  131OSM   H17T14145   5.779   0.518   8.006 -0.2862  1.0247  0.4743
  131OSM   C18S14146   5.633   0.576   7.868 -0.3038 -0.1857 -0.0077
  131OSM   H18S14147   5.596   0.473   7.847  1.4437 -0.6731 -0.7743
  131OSM   H18T14148   5.613   0.637   7.777  2.3319 -1.0958 -1.2421
  131OSM   H18U14149   5.583   0.622   7.956  3.6707  1.6921  1.3613
  131OSM    C1F14150   5.797   1.187   6.561  0.0092 -0.3520  0.0498
  131OSM     OF14151   5.720   1.259   6.502 -0.9971  0.4963 -0.3318
  131OSM    C2F14152   5.838   1.213   6.702 -0.0381  0.1220  0.6612
  131OSM    H2F14153   5.759   1.278   6.746  1.0439  1.3964  0.7422
  131OSM    H2G14154   5.929   1.274   6.717  0.4462 -0.6882  1.0402
  131OSM    C3F14155   5.853   1.086   6.780 -0.5546 -0.1581  0.2164
  131OSM    H3F14156   5.930   1.022   6.733  0.9833  1.8880 -0.0760
  131OSM    H3G14157   5.757   1.030   6.774 -0.7793  0.1292  1.0176
  131OSM    C4F14158   5.887   1.114   6.929 -0.2764  0.1367 -0.5757
  131OSM    H4F14159   5.807   1.175   6.977  2.1590  3.1460 -0.2128
  131OSM    H4G14160   5.979   1.175   6.920 -1.4532  1.8805 -0.8885
  131OSM    C5F14161   5.918   0.989   7.012 -0.0914  0.4270  0.0033
  131OSM    H5F14162   5.831   0.920   7.017 -1.1840  1.8031  0.3953
  131OSM    H5G14163   5.926   1.020   7.118  1.7230 -0.8813  0.2764
  131OSM    C6F14164   6.045   0.926   6.966 -0.8803  0.3953  0.1264
  131OSM    H6F14165   6.125   1.002   6.958  0.2721 -0.9295 -1.5678
  131OSM    H6G14166   6.022   0.887   6.864  0.8360  0.8138 -0.4403
  131OSM    C7F14167   6.086   0.810   7.057 -0.3877 -0.1362 -0.0694
  131OSM    H7F14168   6.129   0.733   6.990 -0.4475  1.1853 -1.6640
  131OSM    H7G14169   6.000   0.767   7.112 -1.4865  1.9744 -0.0710
  131OSM    C8F14170   6.184   0.852   7.165  0.5725 -0.2766 -0.3162
  131OSM    H8F14171   6.159   0.938   7.231  0.8020  2.2784 -3.3967
  131OSM    H8G14172   6.274   0.891   7.111 -1.0373  2.1318 -1.3782
  131OSM    C9F14173   6.241   0.743   7.257  0.4188  0.1447  0.4652
  131OSM    H9F14174   6.236   0.646   7.205 -3.2396  1.1858 -1.2818
  131OSM   C10F14175   6.282   0.760   7.384  0.5715 -0.5846 -0.5149
  131OSM   H10F14176   6.334   0.676   7.434 -0.8566 -2.0127 -1.3909
  131OSM   C11F14177   6.284   0.890   7.451 -0.2337 -0.2896  0.1835
  131OSM   H11F14178   6.179   0.925   7.445 -0.1539 -0.2873 -1.4457
  131OSM   H11G14179   6.351   0.957   7.393 -1.3138  0.6759  0.0468
  131OSM   C12F14180   6.334   0.885   7.597 -0.2138 -0.4990 -0.5168
  131OSM   H12F14181   6.291   0.975   7.647  2.2079  0.0687  0.6107
  131OSM   H12G14182   6.445   0.884   7.606 -0.3254 -1.9015  0.8116
  131OSM   C13F14183   6.282   0.762   7.685 -0.4241  0.6962  0.1858
  131OSM   H13F14184   6.325   0.664   7.656 -0.6796 -0.1894  2.6725
  131OSM   H13G14185   6.171   0.760   7.681 -0.3452  0.8305 -3.5956
  131OSM   C14F14186   6.316   0.783   7.830  0.9057  0.5778 -0.2525
  131OSM   H14F14187   6.258   0.867   7.874  2.2179  0.7765  1.1143
  131OSM   H14G14188   6.420   0.822   7.841  2.1553 -2.6421 -0.2950
  131OSM   C15F14189   6.304   0.655   7.915 -0.0659 -0.0236 -0.1047
  131OSM   H15F14190   6.357   0.569   7.869 -0.9375 -2.0321  2.4770
  131OSM   H15G14191   6.197   0.623   7.919  0.4025 -2.1038 -2.9028
  131OSM   C16F14192   6.356   0.674   8.061 -0.1638 -1.0355 -0.0487
  131OSM   H16F14193   6.330   0.779   8.085 -2.5551 -1.7017  0.3901
  131OSM   H16G14194   6.466   0.674   8.044 -0.0921 -0.3069  0.4174
  131OSM   C17F14195   6.310   0.568   8.163 -0.0760  0.3018  0.1697
  131OSM   H17F14196   6.329   0.464   8.129 -1.2768 -0.1702  0.9046
  131OSM   H17G14197   6.203   0.586   8.186 -0.1594 -2.9073  2.6637
  131OSM   C18F14198   6.376   0.572   8.310  0.4296 -0.1285  0.2359
  131OSM   H18F14199   6.486   0.565   8.298  0.3238 -0.4764 -0.5479
  131OSM   H18G14200   6.341   0.479   8.360 -1.0647 -0.4043 -1.2929
  131OSM   H18H14201   6.353   0.663   8.370 -2.0942 -0.2961 -0.4139
  132OSM      N14202   1.505   1.652   6.240  0.1009  0.4411 -0.0005
  132OSM    C1514203   1.360   1.600   6.242  0.3145 -0.0689  0.4084
  132OSM   H15A14204   1.288   1.669   6.203 -1.1615 -1.3872  0.7378
  132OSM   H15B14205   1.323   1.589   6.343  0.8522 -1.8047  0.4387
  132OSM   H15C14206   1.341   1.502   6.201  2.7632 -0.7570  0.8296
  132OSM    C1414207   1.590   1.555   6.317  0.3966  0.2961  0.0754
  132OSM   H14A14208   1.541   1.509   6.401 -0.1223 -1.1023 -0.9760
  132OSM   H14B14209   1.693   1.588   6.330 -0.1049  1.6863  0.6852
  132OSM   H14C14210   1.611   1.475   6.247  1.8573 -0.2468  1.1041
  132OSM    C1314211   1.551   1.653   6.096 -0.3979 -0.0556 -0.0216
  132OSM   H13A14212   1.570   1.560   6.045 -0.7964  0.2097 -0.6505
  132OSM   H13B14213   1.646   1.703   6.087  0.6815 -2.3545 -2.0207
  132OSM   H13C14214   1.485   1.705   6.029  1.0019  0.6041 -0.9010
  132OSM    C1214215   1.527   1.791   6.300  0.2836 -0.1094  0.4222
  132OSM   H12A14216   1.474   1.865   6.241  0.4240 -1.0048 -0.8339
  132OSM   H12B14217   1.633   1.812   6.307  0.5629 -0.7453 -1.5345
  132OSM    C1114218   1.453   1.819   6.438  0.1515 -0.7704 -0.0644
  132OSM   H11A14219   1.467   1.926   6.465 -1.3477 -0.4638 -0.4746
  132OSM   H11B14220   1.505   1.777   6.527 -1.1572  1.7558  1.9639
  132OSM      P14221   1.204   1.884   6.404  0.2521  0.3638 -0.3316
  132OSM    O1314222   1.239   1.944   6.275  0.0794  0.1677  0.0383
  132OSM    O1414223   1.080   1.803   6.396  0.1398 -0.7706 -0.0883
  132OSM    O1114224   1.204   1.985   6.526 -0.8216 -0.0140 -1.0802
  132OSM    O1214225   1.317   1.791   6.446  0.0969 -0.6081 -0.0814
  132OSM    C1S14226   1.156   1.937   6.654  0.5989  0.0597  0.9372
  132OSM    H1S14227   1.147   1.826   6.664  3.6647 -0.2871  0.3554
  132OSM    H1T14228   1.059   1.985   6.682 -0.2901 -1.4850  0.5946
  132OSM     NF14229   1.225   1.912   6.893 -0.1001 -0.5159  1.1690
  132OSM    HNF14230   1.167   1.955   6.962  0.9868  2.4086  0.3252
  132OSM    C2S14231   1.250   1.987   6.767 -0.1951  0.0711 -0.7006
  132OSM    H2S14232   1.344   1.941   6.730 -0.2994  0.1734 -1.0934
  132OSM    C3S14233   1.254   2.141   6.776  0.0444 -0.4720 -0.9659
  132OSM    H3S14234   1.151   2.173   6.806  0.9778  0.2796  1.5651
  132OSM     O314235   1.296   2.210   6.659 -0.1506 -0.1517  0.0660
  132OSM    HO314236   1.281   2.140   6.596 -1.2515  1.0497 -1.0356
  132OSM    C4S14237   1.345   2.183   6.894  0.2781  0.2902 -0.4169
  132OSM    H4S14238   1.439   2.127   6.885 -0.7559 -1.8642  1.4876
  132OSM    C5S14239   1.315   2.273   6.990  0.0837 -0.8109  0.7404
  132OSM    H5S14240   1.224   2.335   6.980  1.6835  1.4021 -0.5910
  132OSM    C6S14241   1.393   2.321   7.107  0.0898 -0.2749  0.0322
  132OSM    H6S14242   1.369   2.427   7.126  1.0910 -0.1386  0.5547
  132OSM    H6T14243   1.501   2.311   7.084 -0.1135  0.1850 -1.1573
  132OSM    C7S14244   1.367   2.243   7.234  0.4752  0.5472  0.1010
  132OSM    H7S14245   1.360   2.135   7.208 -1.8509  0.4439  1.0210
  132OSM    H7T14246   1.266   2.278   7.264  0.6354  1.6537 -0.6311
  132OSM    C8S14247   1.459   2.278   7.356 -0.1957 -0.2163  0.3265
  132OSM    H8S14248   1.492   2.384   7.355  1.4895 -0.7335  0.0441
  132OSM    H8T14249   1.549   2.218   7.331  0.2476 -0.3815  2.2437
  132OSM    C9S14250   1.396   2.224   7.484 -0.5644 -0.7173 -0.7595
  132OSM    H9S14251   1.380   2.115   7.471 -2.7366 -0.4730 -0.3898
  132OSM    H9T14252   1.296   2.272   7.477 -0.6362 -1.1682 -3.7076
  132OSM   C10S14253   1.477   2.266   7.609  0.4583  1.2246 -0.2138
  132OSM   H10S14254   1.475   2.376   7.626 -1.9308  0.9890  1.3933
  132OSM   H10T14255   1.576   2.217   7.614  0.1701  0.5086 -1.4375
  132OSM   C11S14256   1.402   2.213   7.734  0.2806 -0.1242  0.1792
  132OSM   H11S14257   1.408   2.102   7.732 -0.3128 -0.2106  2.3268
  132OSM   H11T14258   1.296   2.242   7.716  0.2493  1.1585  2.3336
  132OSM   C12S14259   1.458   2.261   7.870  0.3182 -0.4882 -0.5833
  132OSM   H12S14260   1.451   2.372   7.868 -0.2731 -0.5274 -0.6719
  132OSM   H12T14261   1.565   2.239   7.890  0.0589 -0.8102  0.4790
  132OSM   C13S14262   1.380   2.203   7.989  0.7542  0.0158 -0.0700
  132OSM   H13S14263   1.417   2.099   8.004  3.4841  1.1875  1.7555
  132OSM   H13T14264   1.272   2.192   7.964  0.9150 -2.7180  0.2199
  132OSM   C14S14265   1.403   2.279   8.118  0.1430 -0.1324 -0.1878
  132OSM   H14S14266   1.311   2.306   8.174  0.0188 -1.6284  0.3421
  132OSM   H14T14267   1.445   2.378   8.092  1.6577 -0.8747 -0.5766
  132OSM   C15S14268   1.502   2.217   8.212  0.1886  0.6256  0.1901
  132OSM   H15S14269   1.593   2.191   8.154  0.1573  1.1782 -0.1092
  132OSM   H15T14270   1.458   2.122   8.249 -0.7063  1.9801  2.6942
  132OSM   C16S14271   1.535   2.306   8.337 -0.4223  0.0622 -0.4813
  132OSM   H16S14272   1.440   2.349   8.375 -0.5869 -0.0105 -0.8088
  132OSM   H16T14273   1.587   2.395   8.293  2.3349 -2.3797 -2.3892
  132OSM   C17S14274   1.612   2.237   8.449  0.1641 -0.0836  0.2774
  132OSM   H17S14275   1.711   2.204   8.409  0.9290 -0.5767  2.5065
  132OSM   H17T14276   1.556   2.148   8.485  1.7137 -0.7921  0.9847
  132OSM   C18S14277   1.637   2.325   8.574  0.1950 -0.2519 -0.0927
  132OSM   H18S14278   1.538   2.363   8.607 -0.6443 -1.2731 -1.3465
  132OSM   H18T14279   1.708   2.407   8.550  1.1516  0.0063  3.3752
  132OSM   H18U14280   1.685   2.263   8.652  0.6358 -1.6928 -1.4809
  132OSM    C1F14281   1.245   1.786   6.913  0.7876  0.1282 -0.0900
  132OSM     OF14282   1.296   1.718   6.829  0.2229  0.1651 -0.7988
  132OSM    C2F14283   1.219   1.733   7.057 -0.6202 -0.2686  0.8969
  132OSM    H2F14284   1.110   1.716   7.074 -0.6862  1.1109  1.9353
  132OSM    H2G14285   1.258   1.815   7.121 -1.3929  0.5477  0.3354
  132OSM    C3F14286   1.301   1.608   7.101 -0.4439  0.4372 -0.2692
  132OSM    H3F14287   1.410   1.612   7.079 -0.1133 -0.0657  1.2615
  132OSM    H3G14288   1.270   1.517   7.045  1.0553  0.6999 -1.5825
  132OSM    C4F14289   1.275   1.569   7.248  0.0660 -0.1914 -0.7027
  132OSM    H4F14290   1.166   1.562   7.268  0.4492  0.4349  1.8187
  132OSM    H4G14291   1.313   1.657   7.305 -0.7704 -0.2932  0.0254
  132OSM    C5F14292   1.348   1.440   7.285 -0.5973 -0.0005 -0.1054
  132OSM    H5F14293   1.444   1.438   7.229  0.5364 -0.7572  1.8246
  132OSM    H5G14294   1.285   1.358   7.243 -1.3208 -1.0338  2.8926
  132OSM    C6F14295   1.369   1.427   7.435  0.2425  0.2564  0.0090
  132OSM    H6F14296   1.382   1.318   7.455  0.1717 -0.1669 -2.2031
  132OSM    H6G14297   1.287   1.471   7.495 -1.5228  0.8454 -2.8051
  132OSM    C7F14298   1.491   1.497   7.494  0.4065 -0.1789 -0.0367
  132OSM    H7F14299   1.482   1.605   7.467  0.9383 -0.3169 -0.7737
  132OSM    H7G14300   1.578   1.461   7.436 -2.5231  1.4791 -5.8937
  132OSM    C8F14301   1.526   1.489   7.646  0.1661  0.0632  0.6107
  132OSM    H8F14302   1.629   1.531   7.655  0.5325 -0.4745 -0.8529
  132OSM    H8G14303   1.532   1.381   7.669 -0.8763  0.1631  1.4051
  132OSM    C9F14304   1.434   1.557   7.751 -0.2714  0.0069 -0.3305
  132OSM    H9F14305   1.367   1.630   7.704 -2.6051 -0.3432  2.3293
  132OSM   C10F14306   1.445   1.535   7.885  0.1924  0.5316  0.5623
  132OSM   H10F14307   1.359   1.573   7.941 -1.5378 -1.9710 -0.2912
  132OSM   C11F14308   1.541   1.434   7.954 -0.0894 -0.1566  0.2090
  132OSM   H11F14309   1.641   1.476   7.974 -0.3208  0.6196 -0.2310
  132OSM   H11G14310   1.567   1.356   7.880  1.5301  1.9748 -1.5660
  132OSM   C12F14311   1.492   1.367   8.084 -0.2870 -1.8163 -0.2802
  132OSM   H12F14312   1.559   1.284   8.114 -0.1591 -1.9254 -0.8637
  132OSM   H12G14313   1.401   1.311   8.055 -0.0049 -4.0031  2.7635
  132OSM   C13F14314   1.442   1.472   8.184  0.4714  0.3699  0.2548
  132OSM   H13F14315   1.378   1.547   8.133 -0.5115 -1.4136 -1.2177
  132OSM   H13G14316   1.527   1.520   8.237 -0.1119  2.1394 -0.3776
  132OSM   C14F14317   1.368   1.396   8.296  0.1378 -0.1463  0.7500
  132OSM   H14F14318   1.444   1.317   8.312 -0.7094 -0.7375  1.8956
  132OSM   H14G14319   1.279   1.348   8.250 -0.0764  0.5925  0.3861
  132OSM   C15F14320   1.324   1.473   8.430 -0.6598 -0.5803  0.2411
  132OSM   H15F14321   1.282   1.400   8.502 -0.1592 -0.3724  0.7442
  132OSM   H15G14322   1.252   1.555   8.410 -0.3727 -0.5078 -0.5221
  132OSM   C16F14323   1.448   1.520   8.511 -0.3462  0.2019 -0.1056
  132OSM   H16F14324   1.424   1.616   8.563 -0.8771 -0.1907  0.3670
  132OSM   H16G14325   1.533   1.538   8.441  0.4874 -0.7280  0.6558
  132OSM   C17F14326   1.513   1.419   8.608  0.6083 -0.2464 -0.4124
  132OSM   H17F14327   1.516   1.323   8.553  0.0126 -0.7806  0.4778
  132OSM   H17G14328   1.445   1.414   8.695 -0.7402 -4.8704 -1.5742
  132OSM   C18F14329   1.646   1.459   8.670  0.3142 -0.3363  0.1361
  132OSM   H18F14330   1.635   1.555   8.724  1.3809  0.3739 -0.8905
  132OSM   H18G14331   1.717   1.481   8.587 -0.3387 -0.5715 -0.4858
  132OSM   H18H14332   1.690   1.382   8.737  0.6145 -1.5904 -1.4724
  133OSM      N14333   1.611   2.210   6.092  0.2275  0.1693  0.2261
  133OSM    C1514334   1.689   2.107   6.030 -0.3672  0.2702  0.2848
  133OSM   H15A14335   1.630   2.036   5.975  0.8287 -1.3798  1.0842
  133OSM   H15B14336   1.750   2.055   6.103  0.3625 -0.9549 -1.1703
  133OSM   H15C14337   1.750   2.150   5.952 -1.3809 -0.1856 -0.7578
  133OSM    C1414338   1.708   2.330   6.119  0.5175 -0.5299  0.1868
  133OSM   H14A14339   1.652   2.408   6.167 -0.7688 -0.2377 -1.7277
  133OSM   H14B14340   1.755   2.372   6.031 -0.8397 -0.4486 -0.5155
  133OSM   H14C14341   1.781   2.280   6.181  0.9185  1.0842  1.0547
  133OSM    C1314342   1.513   2.244   5.986  0.4569 -0.7694  0.5627
  133OSM   H13A14343   1.451   2.324   6.025 -1.0766 -2.5824  1.9204
  133OSM   H13B14344   1.455   2.155   5.969 -0.8817 -0.0747  1.3709
  133OSM   H13C14345   1.566   2.273   5.897  1.1319 -2.7402  0.3224
  133OSM    C1214346   1.533   2.173   6.218 -0.1838 -0.2082  0.4754
  133OSM   H12A14347   1.469   2.091   6.190 -0.3404  0.2177 -0.4419
  133OSM   H12B14348   1.472   2.257   6.246 -1.7386 -1.9375  2.4836
  133OSM    C1114349   1.627   2.144   6.344 -0.7159  0.7347 -0.2975
  133OSM   H11A14350   1.562   2.121   6.432 -1.5116  0.4116 -0.9641
  133OSM   H11B14351   1.683   2.238   6.361  0.6018 -0.0648 -0.1238
  133OSM      P14352   1.861   2.031   6.356  0.0751  0.6041 -0.0439
  133OSM    O1314353   1.936   1.913   6.306 -0.8665 -0.3014 -0.5784
  133OSM    O1414354   1.912   2.164   6.314  0.3486 -0.0576  0.1519
  133OSM    O1114355   1.863   2.030   6.515 -0.2328 -0.2244  0.3558
  133OSM    O1214356   1.712   2.024   6.323  0.3757 -0.2703 -0.0128
  133OSM    C1S14357   1.851   1.898   6.571 -0.6377  0.7460 -0.0700
  133OSM    H1S14358   1.946   1.842   6.560 -0.3970  1.0696  0.3342
  133OSM    H1T14359   1.768   1.838   6.527  0.3939 -0.7190 -0.0515
  133OSM     NF14360   1.839   1.762   6.778 -0.6444  0.7555 -0.1779
  133OSM    HNF14361   1.758   1.727   6.825 -0.0274 -2.4240 -1.4008
  133OSM    C2S14362   1.833   1.895   6.727  0.1457 -0.1442 -0.2521
  133OSM    H2S14363   1.923   1.945   6.767  0.2130 -0.5171  0.0720
  133OSM    C3S14364   1.703   1.967   6.770 -0.0866  0.1926 -0.4837
  133OSM    H3S14365   1.615   1.921   6.719 -1.8552  4.6260 -1.7178
  133OSM     O314366   1.684   2.102   6.719  0.5486  0.3522  0.2908
  133OSM    HO314367   1.747   2.111   6.648  0.4194 -1.0399 -0.0227
  133OSM    C4S14368   1.696   1.957   6.921  0.2734 -0.0796  0.4742
  133OSM    H4S14369   1.779   2.000   6.979  1.1466 -1.0587 -0.0315
  133OSM    C5S14370   1.588   1.896   6.982 -1.2417  0.0605  0.0211
  133OSM    H5S14371   1.503   1.864   6.920 -3.3004  2.6416  1.4364
  133OSM    C6S14372   1.560   1.885   7.130  0.2200 -0.6131  0.8837
  133OSM    H6S14373   1.549   1.777   7.154 -0.4166 -1.7461 -4.1551
  133OSM    H6T14374   1.462   1.932   7.153 -0.4945 -1.6236 -0.0415
  133OSM    C7S14375   1.667   1.930   7.227  0.5333  0.6126 -0.3781
  133OSM    H7S14376   1.658   2.040   7.231 -1.7537  0.4071  1.1417
  133OSM    H7T14377   1.773   1.910   7.200  1.3944  1.7954  2.0045
  133OSM    C8S14378   1.631   1.868   7.368 -0.2046 -0.2022  0.5158
  133OSM    H8S14379   1.662   1.762   7.364 -0.3860 -0.3360  2.2081
  133OSM    H8T14380   1.522   1.872   7.389 -0.6645  0.7220 -1.8679
  133OSM    C9S14381   1.710   1.934   7.479 -0.9961  0.1842  0.1778
  133OSM    H9S14382   1.675   2.039   7.494 -2.1341 -0.5815  3.2345
  133OSM    H9T14383   1.818   1.917   7.459 -0.4753  1.6508  1.6205
  133OSM   C10S14384   1.683   1.863   7.616  0.0996 -0.2079 -0.3305
  133OSM   H10S14385   1.671   1.753   7.606 -1.3954 -0.1742  0.9352
  133OSM   H10T14386   1.585   1.888   7.661 -0.0639 -0.9275 -0.2763
  133OSM   C11S14387   1.778   1.912   7.728 -0.1930 -0.2607  0.2487
  133OSM   H11S14388   1.805   2.020   7.728 -0.1451 -0.2593  1.8135
  133OSM   H11T14389   1.875   1.860   7.721 -1.0969 -1.7812 -1.2847
  133OSM   C12S14390   1.737   1.871   7.873 -0.3396 -0.4368 -0.9820
  133OSM   H12S14391   1.733   1.761   7.862 -1.6081 -0.2627 -2.3374
  133OSM   H12T14392   1.633   1.900   7.897  0.0318  0.8644 -0.8756
  133OSM   C13S14393   1.826   1.924   7.991 -0.0982 -0.2084 -0.0289
  133OSM   H13S14394   1.772   1.919   8.088 -1.2501 -0.7157 -0.6755
  133OSM   H13T14395   1.859   2.027   7.969  0.3141 -0.7387 -1.9691
  133OSM   C14S14396   1.961   1.854   8.010 -0.2227 -0.1627 -0.2542
  133OSM   H14S14397   2.029   1.860   7.923  2.0924 -0.2681  1.4941
  133OSM   H14T14398   1.934   1.746   8.015 -0.8522  0.0085  0.1310
  133OSM   C15S14399   2.050   1.892   8.135  0.6432  0.5935  0.1623
  133OSM   H15S14400   2.006   1.849   8.228  3.5032 -1.3347  0.6986
  133OSM   H15T14401   2.062   2.002   8.145 -0.4906  0.5815  1.8030
  133OSM   C16S14402   2.183   1.815   8.120  0.4441 -0.2492 -0.3387
  133OSM   H16S14403   2.240   1.865   8.039  2.3676 -1.2982  0.3435
  133OSM   H16T14404   2.158   1.708   8.102  1.1861 -0.2796 -1.2301
  133OSM   C17S14405   2.260   1.822   8.255 -0.4151  1.2773 -0.4647
  133OSM   H17S14406   2.181   1.798   8.329 -0.5708  1.7118 -0.4875
  133OSM   H17T14407   2.290   1.925   8.285 -1.6723  1.2430  0.9640
  133OSM   C18S14408   2.382   1.729   8.286  0.0814 -0.4199 -0.1179
  133OSM   H18S14409   2.439   1.769   8.373  0.5022  1.2392 -1.1272
  133OSM   H18T14410   2.456   1.738   8.204 -0.6985  2.1081 -0.6092
  133OSM   H18U14411   2.356   1.622   8.296 -0.0372 -0.4941 -1.1407
  133OSM    C1F14412   1.942   1.682   6.781 -0.2256  0.0118 -0.5295
  133OSM     OF14413   2.051   1.711   6.728 -0.2374 -0.6880  0.9415
  133OSM    C2F14414   1.928   1.553   6.862  0.6126  0.4949  0.0604
  133OSM    H2F14415   2.034   1.529   6.889  0.7532  0.8651 -0.1500
  133OSM    H2G14416   1.891   1.471   6.798 -0.8844  0.0676  1.4593
  133OSM    C3F14417   1.848   1.574   6.995 -0.2745  0.6319  0.4896
  133OSM    H3F14418   1.743   1.581   6.960  0.0223 -1.1988 -0.8256
  133OSM    H3G14419   1.895   1.653   7.059  0.3309 -0.3861  1.3160
  133OSM    C4F14420   1.854   1.442   7.079  0.7770  0.0465 -0.6420
  133OSM    H4F14421   1.959   1.407   7.089  1.5041  2.1157 -0.8963
  133OSM    H4G14422   1.783   1.368   7.035  0.3828 -0.3686  0.6549
  133OSM    C5F14423   1.820   1.465   7.225  0.1751  0.2955 -0.2065
  133OSM    H5F14424   1.721   1.516   7.220 -0.3332 -0.8578 -2.0182
  133OSM    H5G14425   1.895   1.532   7.273 -2.0206  3.1489 -0.5536
  133OSM    C6F14426   1.824   1.336   7.315  1.1223  0.2737  0.0169
  133OSM    H6F14427   1.820   1.372   7.420 -0.0812  0.6576 -0.1549
  133OSM    H6G14428   1.922   1.286   7.298  1.3992  1.0853 -0.7941
  133OSM    C7F14429   1.702   1.246   7.296  0.1331 -0.5178  0.9261
  133OSM    H7F14430   1.725   1.174   7.214  0.1622  1.5995 -0.9814
  133OSM    H7G14431   1.607   1.298   7.269  1.0217  0.7387  0.1545
  133OSM    C8F14432   1.679   1.163   7.422  0.5652 -0.3717  0.3979
  133OSM    H8F14433   1.585   1.104   7.412  0.7906 -0.5851 -0.5551
  133OSM    H8G14434   1.664   1.240   7.500 -0.3997  0.4875 -0.6189
  133OSM    C9F14435   1.792   1.060   7.425  0.3311 -0.3275 -0.3482
  133OSM    H9F14436   1.798   0.996   7.336 -2.8792 -0.1942 -0.6983
  133OSM   C10F14437   1.881   1.050   7.523  0.1933  0.2737  0.2501
  133OSM   H10F14438   1.958   0.972   7.522  0.1745  0.2612 -0.4368
  133OSM   C11F14439   1.867   1.128   7.649 -0.5737 -0.0496 -0.2203
  133OSM   H11F14440   1.784   1.201   7.651  0.0691  0.6765  0.1162
  133OSM   H11G14441   1.959   1.182   7.682  0.8650 -1.8457 -1.1561
  133OSM   C12F14442   1.820   1.043   7.771  0.1197  0.6617  0.0837
  133OSM   H12F14443   1.833   1.113   7.856 -1.5245  1.0785  0.0123
  133OSM   H12G14444   1.888   0.958   7.793 -1.2614 -0.9686 -1.7623
  133OSM   C13F14445   1.670   1.010   7.764  0.4031 -0.6716  0.0143
  133OSM   H13F14446   1.651   0.934   7.685  1.0512 -0.0493 -0.7508
  133OSM   H13G14447   1.609   1.094   7.724  0.5206 -0.2674  0.6837
  133OSM   C14F14448   1.626   0.970   7.905 -0.1085 -0.3906 -0.5450
  133OSM   H14F14449   1.670   1.041   7.978  0.0142 -0.3810 -0.6268
  133OSM   H14G14450   1.672   0.871   7.925  2.1375  0.2611 -2.2295
  133OSM   C15F14451   1.469   0.970   7.918  0.8427  0.3499 -0.3597
  133OSM   H15F14452   1.443   0.915   7.825  0.9771 -1.2676  0.5402
  133OSM   H15G14453   1.429   1.074   7.921  1.9144  0.7788 -0.5164
  133OSM   C16F14454   1.411   0.894   8.038  0.4018  0.3324 -0.4520
  133OSM   H16F14455   1.438   0.786   8.046  0.9821  0.4175 -1.2306
  133OSM   H16G14456   1.301   0.883   8.027  0.3801 -0.9940  0.8941
  133OSM   C17F14457   1.425   0.960   8.175 -0.1637  0.1851 -0.1927
  133OSM   H17F14458   1.375   1.059   8.168  0.0127  0.3766  1.0627
  133OSM   H17G14459   1.531   0.978   8.204  0.7133 -2.0802 -1.8061
  133OSM   C18F14460   1.356   0.873   8.279  0.3921  0.0154 -0.3182
  133OSM   H18F14461   1.248   0.855   8.258 -0.4863 -0.5226  4.0250
  133OSM   H18G14462   1.356   0.918   8.381  0.1742  0.2193 -0.4079
  133OSM   H18H14463   1.408   0.776   8.290 -0.0264 -0.1863 -0.0756
  134OSM      N14464   2.965   4.937   6.345 -0.3680 -0.0869  0.6677
  134OSM    C1514465   2.957   4.816   6.437  0.0913 -0.5379 -0.0347
  134OSM   H15A14466   3.054   4.776   6.463  0.5273 -1.2399 -2.5805
  134OSM   H15B14467   2.894   4.740   6.393 -1.7070 -0.5075  2.3962
  134OSM   H15C14468   2.906   4.841   6.529  2.4887  1.0409  0.9088
  134OSM    C1414469   3.057   5.039   6.408 -0.3629 -0.4301  0.5137
  134OSM   H14A14470   3.151   4.989   6.423 -0.0922 -1.1207 -2.9075
  134OSM   H14B14471   3.020   5.068   6.505  0.0329  0.1622  0.4847
  134OSM   H14C14472   3.069   5.123   6.341 -0.8127 -1.5142 -0.9726
  134OSM    C1314473   3.021   4.891   6.214  0.2451  0.4188  0.4041
  134OSM   H13A14474   3.063   4.969   6.152  0.1207 -1.1108 -1.6508
  134OSM   H13B14475   2.951   4.829   6.160  0.2608  1.3000 -0.6436
  134OSM   H13C14476   3.106   4.827   6.236  1.2429  1.7014  0.3137
  134OSM    C1214477   2.834   4.998   6.322  0.6065 -0.0080  0.2873
  134OSM   H12A14478   2.761   4.930   6.278  0.5738 -0.9464  1.7664
  134OSM   H12B14479   2.843   5.077   6.248  1.4990 -0.6150 -0.2617
  134OSM    C1114480   2.759   5.065   6.441  0.3903 -0.8379 -0.7921
  134OSM   H11A14481   2.683   5.134   6.399  1.4118  0.4469 -0.5408
  134OSM   H11B14482   2.825   5.129   6.503  2.4237 -2.4831 -1.2139
  134OSM      P14483   2.561   4.908   6.482  0.6120 -0.2681 -0.0935
  134OSM    O1314484   2.465   5.017   6.453  0.1437  0.2115 -0.1140
  134OSM    O1414485   2.594   4.818   6.369 -0.3969 -0.5649 -0.1595
  134OSM    O1114486   2.502   4.810   6.587 -0.2467 -0.0215  0.0087
  134OSM    O1214487   2.695   4.969   6.526  0.0427 -0.1556  0.0789
  134OSM    C1S14488   2.550   4.813   6.721 -0.4010 -0.1824  0.1142
  134OSM    H1S14489   2.509   4.904   6.769 -0.8794 -0.2852 -0.1036
  134OSM    H1T14490   2.661   4.804   6.727 -0.3990 -0.2795 -0.0693
  134OSM     NF14491   2.528   4.707   6.952  0.5338 -0.4555  0.2720
  134OSM    HNF14492   2.611   4.663   6.984  0.9191  0.7213  0.9385
  134OSM    C2S14493   2.502   4.687   6.806 -0.6926  0.2807  0.1772
  134OSM    H2S14494   2.391   4.681   6.801 -0.6863 -0.1321  0.5934
  134OSM    C3S14495   2.566   4.562   6.754 -0.1449 -0.4910  0.2683
  134OSM    H3S14496   2.676   4.566   6.767  0.1844  0.5981 -2.5615
  134OSM     O314497   2.540   4.534   6.615  0.7154  0.4983  0.5635
  134OSM    HO314498   2.493   4.616   6.598 -2.5040 -1.2660  0.5717
  134OSM    C4S14499   2.517   4.441   6.822 -0.1302  0.1995  0.7457
  134OSM    H4S14500   2.409   4.429   6.811  0.1068 -1.1725 -0.2390
  134OSM    C5S14501   2.586   4.346   6.886 -0.1953  1.2663 -0.4621
  134OSM    H5S14502   2.695   4.356   6.896  0.0313 -1.7557  0.8167
  134OSM    C6S14503   2.520   4.225   6.952  0.1916 -0.4320 -0.2312
  134OSM    H6S14504   2.587   4.138   6.932  1.4588  0.4635  0.0232
  134OSM    H6T14505   2.421   4.200   6.910  0.6114 -1.6156 -0.5441
  134OSM    C7S14506   2.511   4.239   7.104  0.0209 -0.1936 -0.4047
  134OSM    H7S14507   2.438   4.320   7.130 -0.6022 -0.8669 -0.0383
  134OSM    H7T14508   2.611   4.272   7.140  0.1057  1.3845 -2.0321
  134OSM    C8S14509   2.471   4.106   7.168  0.0107  0.1473  0.1397
  134OSM    H8S14510   2.552   4.032   7.153  0.6757  0.8204  0.4453
  134OSM    H8T14511   2.381   4.052   7.130  1.4621 -0.7511 -2.1528
  134OSM    C9S14512   2.435   4.123   7.312  0.7254  0.1743 -0.0915
  134OSM    H9S14513   2.355   4.201   7.314  3.0395  2.7051 -1.6199
  134OSM    H9T14514   2.519   4.158   7.376  0.3613 -0.7220  0.8853
  134OSM   C10S14515   2.381   3.993   7.369 -0.9993  0.9417  0.3000
  134OSM   H10S14516   2.473   3.940   7.399  1.5565  3.6469 -2.3910
  134OSM   H10T14517   2.326   3.935   7.291 -0.1429  1.5435 -0.7778
  134OSM   C11S14518   2.296   4.018   7.500  0.4862 -0.0775  0.3557
  134OSM   H11S14519   2.247   3.925   7.539 -1.0551  0.6409  0.1496
  134OSM   H11T14520   2.223   4.092   7.461  2.2306 -0.5850 -4.0830
  134OSM   C12S14521   2.376   4.094   7.610  0.3406  0.3076  0.4485
  134OSM   H12S14522   2.390   4.201   7.587  1.3778  0.7928  3.0869
  134OSM   H12T14523   2.471   4.037   7.620  0.5419  0.6989  0.8058
  134OSM   C13S14524   2.310   4.087   7.748  0.7284 -0.5547  0.0257
  134OSM   H13S14525   2.285   3.979   7.759  2.2794 -0.7334  2.1685
  134OSM   H13T14526   2.218   4.150   7.748  0.6362 -0.6776  1.1392
  134OSM   C14S14527   2.408   4.127   7.861 -0.3361 -0.0910  0.2238
  134OSM   H14S14528   2.416   4.237   7.854 -0.7435 -0.0911 -0.2759
  134OSM   H14T14529   2.508   4.082   7.842  0.8696  1.8159  1.8354
  134OSM   C15S14530   2.366   4.073   8.003  0.0467  0.0721 -0.3746
  134OSM   H15S14531   2.273   4.128   8.029  0.3061  0.9773 -1.3504
  134OSM   H15T14532   2.454   4.083   8.071 -0.3532  0.0049  0.1600
  134OSM   C16S14533   2.328   3.916   8.005  0.6591 -0.1559 -0.1981
  134OSM   H16S14534   2.394   3.854   7.941  1.4706  1.3836 -0.8874
  134OSM   H16T14535   2.235   3.900   7.946 -0.7903  2.0757  1.3755
  134OSM   C17S14536   2.315   3.854   8.143 -0.0531 -0.0234  0.5630
  134OSM   H17S14537   2.306   3.743   8.136 -2.0778  0.3230 -3.4197
  134OSM   H17T14538   2.222   3.895   8.187  0.0339 -1.7020  2.4028
  134OSM   C18S14539   2.420   3.890   8.247 -0.2607  0.0484  0.3522
  134OSM   H18S14540   2.408   3.838   8.344  0.5679  0.2299  0.5596
  134OSM   H18T14541   2.425   3.995   8.283  2.3385 -1.3699  4.4952
  134OSM   H18U14542   2.518   3.865   8.199 -0.3211  0.8831 -0.2287
  134OSM    C1F14543   2.450   4.781   7.034 -0.3055 -0.1264 -0.6831
  134OSM     OF14544   2.349   4.827   6.990  0.0400 -0.9804 -0.3504
  134OSM    C2F14545   2.484   4.793   7.180  0.4305 -0.5427 -0.3804
  134OSM    H2F14546   2.391   4.832   7.227  2.0174  3.1476 -0.1530
  134OSM    H2G14547   2.565   4.867   7.197  0.9408 -1.4773  1.4003
  134OSM    C3F14548   2.536   4.661   7.233 -0.0420  0.6121 -1.0738
  134OSM    H3F14549   2.643   4.648   7.204  0.5116  2.4391  0.0261
  134OSM    H3G14550   2.475   4.573   7.205  0.6604 -0.7259  1.4853
  134OSM    C4F14551   2.542   4.667   7.387  0.0232 -0.3257  0.1410
  134OSM    H4F14552   2.446   4.638   7.434  0.1467 -1.0169 -0.0365
  134OSM    H4G14553   2.569   4.771   7.416 -0.5148 -0.3549  0.7712
  134OSM    C5F14554   2.637   4.552   7.434  0.5556 -0.1687 -0.2360
  134OSM    H5F14555   2.733   4.583   7.387  0.6061  0.4711  0.2689
  134OSM    H5G14556   2.596   4.461   7.386  2.7497 -2.0121  1.3233
  134OSM    C6F14557   2.645   4.542   7.592  0.6454 -0.4063  0.0747
  134OSM    H6F14558   2.541   4.539   7.630 -0.1422  2.2675 -1.6959
  134OSM    H6G14559   2.700   4.620   7.649 -1.0485 -0.4942  1.8513
  134OSM    C7F14560   2.713   4.403   7.631  0.6505  0.3779  0.4573
  134OSM    H7F14561   2.818   4.418   7.598  0.9461 -1.2673  0.6293
  134OSM    H7G14562   2.656   4.329   7.571  0.9645  0.9297 -0.5416
  134OSM    C8F14563   2.731   4.364   7.778 -0.0152  0.2398 -0.0586
  134OSM    H8F14564   2.634   4.367   7.830 -1.1728  1.7600 -2.2048
  134OSM    H8G14565   2.785   4.448   7.827  0.6332 -0.8500  1.1248
  134OSM    C9F14566   2.789   4.231   7.784 -0.3218 -0.5172  0.6749
  134OSM    H9F14567   2.767   4.160   7.704  0.0691  0.5760 -0.4079
  134OSM   C10F14568   2.863   4.193   7.888  0.2503  0.0906 -0.1784
  134OSM   H10F14569   2.907   4.092   7.893  1.1792  0.4096 -1.4561
  134OSM   C11F14570   2.903   4.282   8.001 -0.7912  0.5489 -0.1822
  134OSM   H11F14571   2.827   4.360   8.025 -2.7572 -1.3464 -0.1363
  134OSM   H11G14572   2.992   4.344   7.977 -1.0145  0.9162 -0.0576
  134OSM   C12F14573   2.925   4.196   8.124  0.2764 -0.0618  0.2484
  134OSM   H12F14574   2.952   4.265   8.207 -0.3740  1.3852 -0.7217
  134OSM   H12G14575   3.019   4.143   8.098 -0.7795 -2.8350  1.8669
  134OSM   C13F14576   2.802   4.123   8.171  0.0232 -0.6922  0.6969
  134OSM   H13F14577   2.766   4.053   8.093  1.2416  0.9767 -1.4471
  134OSM   H13G14578   2.726   4.200   8.196 -0.1365 -0.0714 -1.5731
  134OSM   C14F14579   2.832   4.054   8.302 -0.5462 -0.1851  0.0489
  134OSM   H14F14580   2.743   3.991   8.321 -1.5138  1.5471  1.4973
  134OSM   H14G14581   2.848   4.132   8.379  1.2269 -0.7861  0.3144
  134OSM   C15F14582   2.956   3.964   8.298 -0.4427 -0.0636  0.8392
  134OSM   H15F14583   3.042   4.034   8.302 -1.0631  0.6099  3.3183
  134OSM   H15G14584   2.958   3.915   8.199  0.4945  1.2784  0.1787
  134OSM   C16F14585   2.951   3.863   8.412  0.5428 -0.5282  0.3886
  134OSM   H16F14586   2.867   3.793   8.393 -1.3257  1.5953  0.6744
  134OSM   H16G14587   2.940   3.919   8.507  0.3271  3.3656 -1.8167
  134OSM   C17F14588   3.077   3.782   8.428 -0.1551  0.0890  0.2031
  134OSM   H17F14589   3.171   3.839   8.442 -0.8300  1.8597 -2.1123
  134OSM   H17G14590   3.096   3.724   8.335 -1.0884  0.0709  0.0117
  134OSM   C18F14591   3.058   3.676   8.539 -0.0803 -0.8237 -0.6225
  134OSM   H18F14592   3.147   3.611   8.549  0.4336 -0.3995 -2.3370
  134OSM   H18G14593   2.971   3.614   8.510  1.0573 -1.7538 -2.1109
  134OSM   H18H14594   3.052   3.728   8.637 -0.3263 -1.5880 -0.2296
  135OSM      N14595   1.900   5.307   6.272  0.0970 -0.2479  0.5182
  135OSM    C1514596   2.041   5.318   6.308  0.1044  1.1219  0.8561
  135OSM   H15A14597   2.070   5.421   6.297  1.7865  0.5722 -0.1295
  135OSM   H15B14598   2.111   5.263   6.247 -0.7626  3.1757 -2.0965
  135OSM   H15C14599   2.052   5.285   6.411  0.3525 -2.0394 -0.1247
  135OSM    C1414600   1.827   5.416   6.352  0.1474 -0.0400  0.4988
  135OSM   H14A14601   1.721   5.399   6.359  0.5714 -1.8391  3.4017
  135OSM   H14B14602   1.845   5.516   6.316 -1.4740 -0.1552 -0.6700
  135OSM   H14C14603   1.855   5.418   6.456 -1.7715  3.1255  1.0009
  135OSM    C1314604   1.893   5.345   6.127 -0.2319 -0.3665  0.2457
  135OSM   H13A14605   1.917   5.449   6.111 -0.5822 -0.1257  1.2664
  135OSM   H13B14606   1.794   5.325   6.089 -0.3242 -0.9460  0.7785
  135OSM   H13C14607   1.953   5.277   6.069 -0.1299 -1.9913  2.2013
  135OSM    C1214608   1.852   5.158   6.298  0.3339  0.1409 -0.5861
  135OSM   H12A14609   1.898   5.080   6.239 -2.8708 -1.3204 -1.2648
  135OSM   H12B14610   1.748   5.150   6.270  0.1746 -0.8965  0.2786
  135OSM    C1114611   1.854   5.112   6.452  0.0341 -0.0529 -0.4309
  135OSM   H11A14612   1.772   5.041   6.472 -0.8515  1.3747  1.0782
  135OSM   H11B14613   1.849   5.194   6.527  0.1039  0.8475 -1.3977
  135OSM      P14614   2.009   4.905   6.408 -0.5119  0.1521  0.3071
  135OSM    O1314615   1.880   4.836   6.378  0.4171 -0.1782 -0.1196
  135OSM    O1414616   2.102   4.917   6.295  0.3136  0.0903 -0.0681
  135OSM    O1114617   2.071   4.822   6.523  0.0395  0.1383 -0.4430
  135OSM    O1214618   1.981   5.044   6.475  0.0593  0.1928 -0.5283
  135OSM    C1S14619   2.180   4.880   6.604  0.1518  0.3060  0.2678
  135OSM    H1S14620   2.244   4.948   6.543  1.4642  0.2433  1.5654
  135OSM    H1T14621   2.248   4.800   6.638 -0.1605 -0.4856 -0.9235
  135OSM     NF14622   2.239   5.012   6.814 -0.4672  0.7847  0.3151
  135OSM    HNF14623   2.260   4.945   6.885  0.2728  0.4753 -0.1935
  135OSM    C2S14624   2.133   4.956   6.731  0.2787  0.0294  0.3385
  135OSM    H2S14625   2.057   5.028   6.694  1.2574  0.0341 -1.7220
  135OSM    C3S14626   2.039   4.857   6.817 -0.1502 -0.0034 -0.2537
  135OSM    H3S14627   2.096   4.774   6.864  0.5655  2.4594  3.4890
  135OSM     O314628   1.929   4.790   6.754 -0.4894 -0.2005  0.1908
  135OSM    HO314629   1.957   4.781   6.663 -1.5175 -0.3227 -0.1127
  135OSM    C4S14630   1.978   4.935   6.941 -0.2045 -0.1622 -0.1762
  135OSM    H4S14631   1.882   4.984   6.915  0.2733 -0.1262 -1.9314
  135OSM    C5S14632   2.017   4.940   7.076  0.0881  0.0153  0.0054
  135OSM    H5S14633   2.084   4.864   7.117  1.4353  1.0353 -0.2681
  135OSM    C6S14634   1.948   5.018   7.188  0.4180  0.2433 -0.2612
  135OSM    H6S14635   1.900   4.956   7.266  1.5269  0.6775  0.7801
  135OSM    H6T14636   1.872   5.089   7.150 -0.4972 -0.2408  0.6514
  135OSM    C7S14637   2.056   5.106   7.262 -0.1347 -0.6487  0.5518
  135OSM    H7S14638   1.995   5.173   7.326  1.9781  1.7961  0.0764
  135OSM    H7T14639   2.105   5.158   7.177 -1.1305  0.5193  0.6932
  135OSM    C8S14640   2.147   5.025   7.351  0.6866 -0.5953  0.1078
  135OSM    H8S14641   2.221   4.975   7.285 -2.1369 -2.5967 -1.6978
  135OSM    H8T14642   2.094   4.945   7.408  0.5119 -0.5625 -0.0074
  135OSM    C9S14643   2.214   5.111   7.463 -0.1810  0.7227  0.6323
  135OSM    H9S14644   2.138   5.146   7.536 -0.3927  2.0226 -0.2028
  135OSM    H9T14645   2.263   5.202   7.423  0.5037  0.2181  0.3208
  135OSM   C10S14646   2.300   5.018   7.550 -0.3095 -0.4531 -0.4322
  135OSM   H10S14647   2.388   4.979   7.495 -2.9320 -0.0979 -5.1110
  135OSM   H10T14648   2.244   4.938   7.603  1.6018 -1.3060  0.3623
  135OSM   C11S14649   2.347   5.091   7.673 -0.0010 -0.4587  0.5087
  135OSM   H11S14650   2.268   5.097   7.751  0.5039 -0.7995  1.0542
  135OSM   H11T14651   2.378   5.192   7.639  1.4638 -1.0631 -0.0094
  135OSM   C12S14652   2.475   5.028   7.735  0.2485  0.0202  0.6828
  135OSM   H12S14653   2.523   5.103   7.802 -1.8610 -0.5946  2.9675
  135OSM   H12T14654   2.550   5.019   7.654 -0.3244  2.5982 -0.1628
  135OSM   C13S14655   2.446   4.895   7.804 -0.2390 -0.2565  0.1480
  135OSM   H13S14656   2.402   4.823   7.732 -0.6589 -0.3696  0.5184
  135OSM   H13T14657   2.375   4.927   7.882  0.9419  2.3068  0.2245
  135OSM   C14S14658   2.568   4.833   7.870 -0.4097  0.5373 -0.2247
  135OSM   H14S14659   2.624   4.912   7.925 -0.1739 -0.0817  0.4282
  135OSM   H14T14660   2.619   4.791   7.780 -0.8886  2.8723 -1.6465
  135OSM   C15S14661   2.528   4.719   7.966  1.0312  0.5504 -0.1401
  135OSM   H15S14662   2.471   4.640   7.914 -1.3444  1.3351  1.1894
  135OSM   H15T14663   2.463   4.751   8.051  0.2393 -2.6065  0.4852
  135OSM   C16S14664   2.651   4.656   8.030  0.3554  0.0580 -0.5097
  135OSM   H16S14665   2.716   4.725   8.089  2.6526 -2.7571  0.4016
  135OSM   H16T14666   2.715   4.606   7.955  0.9415 -0.4963  0.3439
  135OSM   C17S14667   2.620   4.535   8.129 -0.0822 -0.9563  0.6031
  135OSM   H17S14668   2.718   4.487   8.149 -0.0118 -1.5722 -1.1102
  135OSM   H17T14669   2.550   4.466   8.078 -1.8861  1.0057  0.3416
  135OSM   C18S14670   2.577   4.579   8.266  0.0131  0.5481  0.4216
  135OSM   H18S14671   2.671   4.611   8.316  0.6284 -0.9873  0.2702
  135OSM   H18T14672   2.515   4.504   8.319  0.1407 -0.5828 -1.0128
  135OSM   H18U14673   2.504   4.663   8.259 -0.6531  0.0384  1.1700
  135OSM    C1F14674   2.296   5.124   6.779 -0.4099 -0.9744 -0.1523
  135OSM     OF14675   2.263   5.184   6.680  0.3313  0.2283  0.1960
  135OSM    C2F14676   2.419   5.152   6.863  0.1255 -0.1028 -0.3785
  135OSM    H2F14677   2.500   5.176   6.792 -0.9908  1.8297 -1.0205
  135OSM    H2G14678   2.442   5.064   6.927 -1.5189  0.7765  1.4566
  135OSM    C3F14679   2.398   5.266   6.968  0.1001 -0.4949  0.1894
  135OSM    H3F14680   2.301   5.246   7.019 -0.8902  1.0578 -1.0333
  135OSM    H3G14681   2.372   5.360   6.915 -1.1738  0.9835  3.3158
  135OSM    C4F14682   2.515   5.292   7.065 -0.3909  0.0406 -0.1836
  135OSM    H4F14683   2.605   5.312   7.004  0.0105  0.2627  0.4761
  135OSM    H4G14684   2.528   5.198   7.123 -0.7585  0.3669  0.4401
  135OSM    C5F14685   2.492   5.416   7.153  0.0147 -0.4381 -0.6278
  135OSM    H5F14686   2.447   5.495   7.088  0.6133  1.6592  1.4440
  135OSM    H5G14687   2.587   5.457   7.191  0.0994 -1.6630  0.5069
  135OSM    C6F14688   2.400   5.387   7.273  0.7018  0.1703 -0.1670
  135OSM    H6F14689   2.447   5.305   7.330  1.7390  0.8588 -0.0149
  135OSM    H6G14690   2.304   5.353   7.229 -0.7350  1.0803  2.1568
  135OSM    C7F14691   2.395   5.506   7.367  0.1229 -0.3693 -0.0221
  135OSM    H7F14692   2.335   5.584   7.314  1.8183  2.1437  1.6341
  135OSM    H7G14693   2.496   5.550   7.375 -0.2698  0.6611 -0.6128
  135OSM    C8F14694   2.332   5.467   7.498  0.6498 -0.2173  0.4844
  135OSM    H8F14695   2.400   5.389   7.539  0.3556  0.0859  1.5668
  135OSM    H8G14696   2.231   5.423   7.483  1.4708 -2.4755  1.3391
  135OSM    C9F14697   2.336   5.579   7.600 -0.5770 -0.2106  0.1757
  135OSM    H9F14698   2.352   5.679   7.556  0.3776 -0.3445  0.2005
  135OSM   C10F14699   2.333   5.570   7.733 -0.2130 -0.7674 -0.1132
  135OSM   H10F14700   2.343   5.667   7.784 -0.1591 -0.6579 -0.3301
  135OSM   C11F14701   2.305   5.437   7.803  0.3418  0.5550  0.2401
  135OSM   H11F14702   2.384   5.370   7.765 -1.6942 -0.9274 -1.4817
  135OSM   H11G14703   2.207   5.398   7.768  0.8462  0.3230 -0.9181
  135OSM   C12F14704   2.319   5.448   7.959  0.0707  0.6607  0.4680
  135OSM   H12F14705   2.229   5.503   7.994  0.8653  0.8740  2.1936
  135OSM   H12G14706   2.405   5.506   7.997  1.0125 -0.5407  0.1955
  135OSM   C13F14707   2.306   5.310   8.028 -0.0823 -0.2110  0.5423
  135OSM   H13F14708   2.390   5.248   7.987 -1.4076 -1.6020 -0.1225
  135OSM   H13G14709   2.209   5.265   7.998  0.9156 -1.2198 -1.2838
  135OSM   C14F14710   2.325   5.315   8.180  0.0000 -0.0680 -0.4560
  135OSM   H14F14711   2.262   5.388   8.237  0.3655  0.2207 -0.4259
  135OSM   H14G14712   2.430   5.350   8.188  0.7763 -1.8879 -2.3924
  135OSM   C15F14713   2.324   5.177   8.252  0.3542  0.0061  0.0403
  135OSM   H15F14714   2.388   5.106   8.195  1.9454  0.0853  1.6663
  135OSM   H15G14715   2.219   5.141   8.242  0.2414 -0.1270  1.5463
  135OSM   C16F14716   2.354   5.170   8.402  0.5110  0.9036  0.7784
  135OSM   H16F14717   2.293   5.243   8.460  4.2498  2.4008  2.9578
  135OSM   H16G14718   2.455   5.212   8.417  0.0981  1.2709  2.6344
  135OSM   C17F14719   2.344   5.032   8.464 -0.4290  0.3279 -0.3726
  135OSM   H17F14720   2.383   4.956   8.393  0.2341  1.9155 -1.7448
  135OSM   H17G14721   2.235   5.011   8.472 -0.5272 -1.9015 -5.5465
  135OSM   C18F14722   2.402   5.017   8.607  0.1070  0.2339 -0.4542
  135OSM   H18F14723   2.499   5.072   8.607 -0.4507  1.2591  2.0548
  135OSM   H18G14724   2.429   4.911   8.629  0.6903  0.7753  1.5150
  135OSM   H18H14725   2.325   5.063   8.672  1.0722 -1.2115  1.7539
  136OSM      N14726   0.489   6.019   6.002  0.9264  0.9545  0.2044
  136OSM    C1514727   0.388   6.129   6.028 -0.1080 -0.2330 -0.5535
  136OSM   H15A14728   0.429   6.227   6.006 -3.1713  1.0550 -0.7446
  136OSM   H15B14729   0.358   6.131   6.132 -1.4197  0.8364 -0.9387
  136OSM   H15C14730   0.301   6.112   5.967 -0.8990  0.9233  0.2363
  136OSM    C1414731   0.505   6.018   5.856  0.1566 -0.3153 -0.6538
  136OSM   H14A14732   0.589   5.953   5.837  0.8590 -0.2048  1.8957
  136OSM   H14B14733   0.512   6.117   5.813  2.1824 -0.4748 -0.7690
  136OSM   H14C14734   0.423   5.971   5.803 -0.4684  1.4158 -1.2447
  136OSM    C1314735   0.616   6.065   6.066  0.4197  0.3915  0.0800
  136OSM   H13A14736   0.606   6.078   6.172 -0.3956  0.9997 -0.0676
  136OSM   H13B14737   0.643   6.160   6.022  2.0318  1.3627  3.0878
  136OSM   H13C14738   0.696   5.994   6.046 -0.5191 -0.0155 -2.4367
  136OSM    C1214739   0.451   5.888   6.055  0.1387  0.3856  0.1316
  136OSM   H12A14740   0.517   5.810   6.021 -1.2743 -0.2791 -1.1644
  136OSM   H12B14741   0.351   5.873   6.017  0.3445 -0.7114  0.0039
  136OSM    C1114742   0.437   5.868   6.205 -0.0993 -0.2056  0.3701
  136OSM   H11A14743   0.539   5.888   6.245 -0.0715  0.3000  0.0423
  136OSM   H11B14744   0.421   5.760   6.230  0.0845 -0.3595 -0.1704
  136OSM      P14745   0.193   5.925   6.255  0.2303 -0.2234 -0.2750
  136OSM    O1314746   0.150   6.028   6.157  0.1048 -0.1233 -0.9745
  136OSM    O1414747   0.169   5.788   6.223 -0.3247 -0.1912  0.1943
  136OSM    O1114748   0.130   5.952   6.394 -0.4925 -0.7158  0.4221
  136OSM    O1214749   0.344   5.947   6.275 -0.2653  0.3017 -0.4318
  136OSM    C1S14750   0.193   5.942   6.517  0.1168  0.3821 -0.7012
  136OSM    H1S14751   0.304   5.933   6.508  0.1309 -0.5179  0.1827
  136OSM    H1T14752   0.160   5.856   6.580  0.3465  0.8507  0.0746
  136OSM     NF14753   0.239   6.072   6.724 -1.1692  0.0662 -0.6895
  136OSM    HNF14754   0.188   6.053   6.807  0.7013  1.2435  0.7555
  136OSM    C2S14755   0.161   6.071   6.597  0.4514 -1.0758 -0.3346
  136OSM    H2S14756   0.185   6.158   6.532 -1.1715 -0.6221 -0.3303
  136OSM    C3S14757   0.000   6.067   6.616 -0.4040 -0.1920 -0.1376
  136OSM    H3S14758  -0.028   5.985   6.685  2.8306  0.1792  1.7348
  136OSM     O314759  -0.084   6.053   6.505 -0.6295 -0.0272 -0.1282
  136OSM    HO314760  -0.022   6.020   6.439 -1.5029  0.5669 -1.2576
  136OSM    C4S14761  -0.042   6.192   6.685 -0.6010  0.1794  0.2020
  136OSM    H4S14762  -0.045   6.283   6.623  0.1089 -1.6603 -2.6344
  136OSM    C5S14763  -0.092   6.191   6.807  0.2115  0.4442 -0.2876
  136OSM    H5S14764  -0.099   6.093   6.856  0.5640  0.5214 -0.0825
  136OSM    C6S14765  -0.132   6.309   6.887 -0.2959 -0.4846 -0.7778
  136OSM    H6S14766  -0.119   6.290   6.996 -0.6352 -1.7591 -0.9508
  136OSM    H6T14767  -0.238   6.327   6.860 -0.3839  0.4700  0.1721
  136OSM    C7S14768  -0.048   6.443   6.866 -0.5137  0.3079 -0.4757
  136OSM    H7S14769  -0.110   6.517   6.921 -0.6764 -0.4693  0.4117
  136OSM    H7T14770  -0.046   6.475   6.760 -0.7721 -0.9987 -0.8918
  136OSM    C8S14771   0.099   6.426   6.918 -0.4532  0.1755  0.7472
  136OSM    H8S14772   0.158   6.356   6.855 -0.7057  1.9151 -1.4805
  136OSM    H8T14773   0.099   6.386   7.021  2.8859 -1.5777  0.1441
  136OSM    C9S14774   0.176   6.563   6.921  0.2596 -0.3133  0.4492
  136OSM    H9S14775   0.110   6.630   6.980 -1.2204 -1.3722  0.0181
  136OSM    H9T14776   0.196   6.599   6.818  1.2675  1.4074  1.2162
  136OSM   C10S14777   0.315   6.529   6.985  0.4620 -0.8496  0.4484
  136OSM   H10S14778   0.374   6.467   6.915  0.9716  3.0593 -2.7485
  136OSM   H10T14779   0.299   6.460   7.071  0.2977 -1.8586 -0.3876
  136OSM   C11S14780   0.403   6.655   7.011  0.3082  0.0686 -0.3057
  136OSM   H11S14781   0.403   6.708   6.913 -0.3015 -0.6717 -0.7066
  136OSM   H11T14782   0.508   6.625   7.030  1.0990  2.5484 -0.5593
  136OSM   C12S14783   0.369   6.753   7.119  0.4436 -0.1008  0.2827
  136OSM   H12S14784   0.267   6.788   7.090  1.7300  2.0192 -1.7977
  136OSM   H12T14785   0.435   6.842   7.108 -1.2338  0.9650 -1.5091
  136OSM   C13S14786   0.366   6.713   7.260  0.0355  0.6630 -0.0122
  136OSM   H13S14787   0.474   6.697   7.280 -0.0407  0.1564 -0.0159
  136OSM   H13T14788   0.321   6.612   7.263 -0.9253  1.1114  1.4522
  136OSM   C14S14789   0.289   6.802   7.360 -0.6966 -1.2630  0.0840
  136OSM   H14S14790   0.183   6.829   7.344 -0.2649  0.1901 -0.3784
  136OSM   H14T14791   0.340   6.900   7.373 -1.2974 -1.0760  1.1126
  136OSM   C15S14792   0.302   6.746   7.503  0.5243 -0.0865 -0.2800
  136OSM   H15S14793   0.401   6.695   7.506  0.9148  0.7310  1.7925
  136OSM   H15T14794   0.224   6.670   7.526  0.8042 -1.3615 -3.3864
  136OSM   C16S14795   0.296   6.855   7.607  0.1054  0.1346 -0.1927
  136OSM   H16S14796   0.212   6.923   7.584 -0.6089 -0.9233 -0.7480
  136OSM   H16T14797   0.393   6.909   7.612  0.8679 -1.1771 -0.6379
  136OSM   C17S14798   0.267   6.800   7.742  0.2525  0.2661 -0.6343
  136OSM   H17S14799   0.334   6.715   7.765 -0.7975 -0.3584  0.1045
  136OSM   H17T14800   0.172   6.743   7.742 -0.3150  1.2004  0.8890
  136OSM   C18S14801   0.258   6.905   7.845  0.9408 -0.1075 -0.2685
  136OSM   H18S14802   0.346   6.971   7.852  1.3736 -0.7263  0.1714
  136OSM   H18T14803   0.245   6.862   7.947 -0.2717  1.8279  0.4180
  136OSM   H18U14804   0.170   6.971   7.830 -0.0952 -1.0874  1.2228
  136OSM    C1F14805   0.369   6.097   6.727 -0.3742  0.2884 -0.6723
  136OSM     OF14806   0.432   6.116   6.624 -0.4049 -0.5920 -0.5813
  136OSM    C2F14807   0.437   6.077   6.856  0.0951  0.5878 -0.2239
  136OSM    H2F14808   0.448   5.967   6.864  0.9840  0.6609 -0.3740
  136OSM    H2G14809   0.376   6.118   6.939  1.4597  1.5544  0.3150
  136OSM    C3F14810   0.580   6.135   6.877 -0.4064  0.5783 -0.2972
  136OSM    H3F14811   0.573   6.243   6.851 -0.1357 -0.0958 -3.3946
  136OSM    H3G14812   0.642   6.072   6.810 -0.7010 -1.0409  0.9390
  136OSM    C4F14813   0.626   6.109   7.013 -0.1029  0.1883  0.2523
  136OSM    H4F14814   0.732   6.141   7.020 -0.1577  0.5702 -0.6771
  136OSM    H4G14815   0.627   5.998   7.024 -1.4130  0.0878 -0.5082
  136OSM    C5F14816   0.544   6.180   7.124  0.1282 -0.0919  0.7759
  136OSM    H5F14817   0.433   6.173   7.128 -0.0465  1.5509 -0.5068
  136OSM    H5G14818   0.557   6.286   7.096  0.9676 -0.6274 -0.9225
  136OSM    C6F14819   0.591   6.160   7.270  0.0381  0.7273  0.2383
  136OSM    H6F14820   0.695   6.194   7.292  1.1312 -2.6624  0.6571
  136OSM    H6G14821   0.609   6.051   7.279  0.9574  0.9672  1.5274
  136OSM    C7F14822   0.493   6.204   7.376  0.6427 -1.0699  0.6160
  136OSM    H7F14823   0.417   6.126   7.393  0.8375 -1.2297  0.7502
  136OSM    H7G14824   0.447   6.296   7.332  1.3166 -0.7672  0.5370
  136OSM    C8F14825   0.553   6.248   7.516  0.3760  0.1053  0.6158
  136OSM    H8F14826   0.472   6.303   7.568 -2.5093 -2.1042 -1.3859
  136OSM    H8G14827   0.632   6.322   7.488 -0.8055  1.2021  0.1220
  136OSM    C9F14828   0.611   6.140   7.606 -0.1783  0.1385  0.0423
  136OSM    H9F14829   0.695   6.087   7.558 -1.4444  0.0224 -2.0885
  136OSM   C10F14830   0.569   6.095   7.727 -0.2886 -0.0293  0.1740
  136OSM   H10F14831   0.619   6.009   7.776  2.3104  2.4427  2.0449
  136OSM   C11F14832   0.462   6.157   7.809 -0.2028 -0.0628 -0.2007
  136OSM   H11F14833   0.368   6.124   7.760  0.7894 -3.2109 -0.0984
  136OSM   H11G14834   0.475   6.267   7.801 -0.3529  0.0300  0.7391
  136OSM   C12F14835   0.462   6.114   7.959  0.0646 -1.2050  0.1414
  136OSM   H12F14836   0.383   6.177   8.006 -0.7556 -3.0831  1.3352
  136OSM   H12G14837   0.560   6.142   8.002  0.1457 -1.8039  0.3465
  136OSM   C13F14838   0.413   5.967   7.981  0.9556 -0.1988 -0.3974
  136OSM   H13F14839   0.469   5.902   7.911  1.3695 -0.5181  0.2200
  136OSM   H13G14840   0.305   5.966   7.956  1.1952 -0.8610 -1.3972
  136OSM   C14F14841   0.437   5.921   8.127  0.7198  0.7568  0.0111
  136OSM   H14F14842   0.367   5.983   8.187  0.7981  1.9631 -1.1185
  136OSM   H14G14843   0.542   5.952   8.149  1.5532 -2.0688  0.1976
  136OSM   C15F14844   0.411   5.772   8.144 -0.9768  0.0400 -0.1182
  136OSM   H15F14845   0.465   5.719   8.063 -0.7292  2.1180 -1.3548
  136OSM   H15G14846   0.304   5.748   8.126 -1.6227  1.0966  2.0925
  136OSM   C16F14847   0.463   5.714   8.277  0.2746  0.6146 -0.5001
  136OSM   H16F14848   0.573   5.723   8.290  0.2874 -1.9477  1.5907
  136OSM   H16G14849   0.439   5.606   8.275 -0.5444  0.8231 -2.4004
  136OSM   C17F14850   0.406   5.784   8.401 -0.1279 -0.9028 -0.6180
  136OSM   H17F14851   0.298   5.762   8.412 -0.3380 -0.2876 -1.4897
  136OSM   H17G14852   0.415   5.893   8.381 -1.6293 -1.0709 -2.3255
  136OSM   C18F14853   0.492   5.748   8.525 -0.0023 -0.3123  0.1696
  136OSM   H18F14854   0.491   5.645   8.565 -2.2878 -0.2793  0.2631
  136OSM   H18G14855   0.458   5.808   8.612  0.3016  1.8470 -1.1519
  136OSM   H18H14856   0.597   5.778   8.503 -0.4410  0.2351 -1.2511
  137OSM      N14857   3.833   3.614   6.182  0.6783 -0.0186  0.4091
  137OSM    C1514858   3.873   3.700   6.059  0.4159 -0.4880  0.3779
  137OSM   H15A14859   3.878   3.638   5.970 -0.0800 -0.4733  0.3386
  137OSM   H15B14860   3.964   3.755   6.079 -0.5673  0.3963  2.6168
  137OSM   H15C14861   3.786   3.759   6.035  0.5331 -0.2196  0.6117
  137OSM    C1414862   3.696   3.553   6.151  0.9652  0.8081 -0.5132
  137OSM   H14A14863   3.704   3.479   6.073  2.3658  1.1865 -0.7469
  137OSM   H14B14864   3.616   3.621   6.124 -1.3089 -1.7704 -0.4122
  137OSM   H14C14865   3.667   3.505   6.243  0.1581 -1.2240 -1.7887
  137OSM    C1314866   3.927   3.494   6.197 -0.0632 -0.5662 -0.5683
  137OSM   H13A14867   4.024   3.536   6.221 -0.5637 -0.1327  0.7735
  137OSM   H13B14868   3.932   3.431   6.110  1.5865 -2.7302  1.0220
  137OSM   H13C14869   3.900   3.436   6.285 -0.6080 -1.8558 -1.5701
  137OSM    C1214870   3.829   3.701   6.305 -0.1002  0.1256  0.1347
  137OSM   H12A14871   3.741   3.761   6.291  0.0847  0.2325 -0.5746
  137OSM   H12B14872   3.912   3.768   6.315 -0.5660  1.1089 -2.2804
  137OSM    C1114873   3.804   3.634   6.446 -0.1377 -0.2365  0.9464
  137OSM   H11A14874   3.720   3.563   6.434  1.3676 -1.9845  0.5859
  137OSM   H11B14875   3.781   3.717   6.517 -0.9122  2.3166 -2.1410
  137OSM      P14876   4.010   3.590   6.630  0.1851  0.1625 -0.1197
  137OSM    O1314877   4.088   3.467   6.652 -0.1322  0.2819 -0.2875
  137OSM    O1414878   4.085   3.724   6.623 -0.1479  0.1216 -0.5121
  137OSM    O1114879   3.902   3.593   6.740 -0.5498 -0.0215  0.0058
  137OSM    O1214880   3.933   3.571   6.484  0.3650 -0.5397 -0.5829
  137OSM    C1S14881   3.893   3.691   6.835 -0.2135  0.5053 -0.0707
  137OSM    H1S14882   3.872   3.791   6.791  3.3440  1.2695 -0.1758
  137OSM    H1T14883   3.990   3.705   6.885 -0.4710  0.6806  0.3792
  137OSM     NF14884   3.776   3.796   7.022 -0.0326  0.1843  0.3697
  137OSM    HNF14885   3.817   3.797   7.113 -4.3537  1.3186  2.4274
  137OSM    C2S14886   3.783   3.676   6.940 -0.5073  0.1685  0.2295
  137OSM    H2S14887   3.683   3.668   6.891 -0.1468  1.6553 -0.7864
  137OSM    C3S14888   3.816   3.560   7.034  0.0786  0.0591  0.2306
  137OSM    H3S14889   3.911   3.590   7.084 -0.4329 -2.1026  2.6179
  137OSM     O314890   3.846   3.439   6.964  0.3602 -0.5935 -0.3063
  137OSM    HO314891   3.849   3.459   6.871 -0.5833  3.0144  0.3597
  137OSM    C4S14892   3.710   3.524   7.143 -0.6897 -0.0764  0.3174
  137OSM    H4S14893   3.611   3.502   7.101  0.5413 -1.7777 -1.8205
  137OSM    C5S14894   3.720   3.505   7.275 -0.2081 -0.6404 -1.0107
  137OSM    H5S14895   3.817   3.531   7.320 -1.8663  0.2218  2.1429
  137OSM    C6S14896   3.612   3.470   7.377 -0.3151 -0.4929 -0.4025
  137OSM    H6S14897   3.606   3.360   7.381 -3.1861 -0.3678 -0.2993
  137OSM    H6T14898   3.513   3.520   7.371 -0.5172 -0.4949  2.3296
  137OSM    C7S14899   3.692   3.506   7.503  0.5586 -0.1302 -0.1129
  137OSM    H7S14900   3.681   3.615   7.520  0.2357 -0.2891  0.7092
  137OSM    H7T14901   3.803   3.500   7.503  0.5033 -1.3091  0.6687
  137OSM    C8S14902   3.638   3.427   7.617 -0.0134 -0.0150 -0.6619
  137OSM    H8S14903   3.638   3.316   7.612 -0.3321 -0.0282 -0.3527
  137OSM    H8T14904   3.531   3.458   7.613 -0.1147 -0.4733 -1.5672
  137OSM    C9S14905   3.695   3.471   7.757 -0.1609 -0.1941  0.0925
  137OSM    H9S14906   3.676   3.578   7.780 -0.9476 -0.5051  0.8920
  137OSM    H9T14907   3.805   3.457   7.743  0.0869  1.2375  0.4647
  137OSM   C10S14908   3.648   3.393   7.883  0.3325  0.5478  0.0584
  137OSM   H10S14909   3.684   3.288   7.885  2.6850  1.3558  1.5666
  137OSM   H10T14910   3.537   3.385   7.886  0.3674  0.2857  0.7147
  137OSM   C11S14911   3.699   3.456   8.014 -0.0042 -0.4665 -0.6028
  137OSM   H11S14912   3.660   3.559   8.031 -0.1614 -0.4591 -1.0029
  137OSM   H11T14913   3.809   3.467   8.012 -0.1423  1.1416 -0.2379
  137OSM   C12S14914   3.676   3.368   8.139  0.8635  0.1894  0.6036
  137OSM   H12S14915   3.714   3.266   8.116 -0.9195 -0.1962 -0.7731
  137OSM   H12T14916   3.566   3.357   8.148  1.1202 -0.6109  3.0248
  137OSM   C13S14917   3.729   3.427   8.269  0.0217  0.1247  0.1759
  137OSM   H13S14918   3.839   3.443   8.264 -0.1933  0.7950 -3.0864
  137OSM   H13T14919   3.717   3.350   8.348  1.9709 -0.3843  0.0013
  137OSM   C14S14920   3.659   3.548   8.331 -0.8727  1.1347  0.0801
  137OSM   H14S14921   3.566   3.506   8.374  0.1176 -1.9189 -0.6674
  137OSM   H14T14922   3.636   3.626   8.255 -0.2378  1.0938 -0.1516
  137OSM   C15S14923   3.748   3.616   8.436 -0.3446 -0.0153 -0.7432
  137OSM   H15S14924   3.842   3.651   8.388 -0.7315  1.3538 -0.5369
  137OSM   H15T14925   3.766   3.545   8.519 -2.7656 -1.0508 -1.0632
  137OSM   C16S14926   3.676   3.742   8.492 -0.0803  0.6014 -0.5373
  137OSM   H16S14927   3.648   3.807   8.406  1.3843  0.9902 -0.7458
  137OSM   H16T14928   3.749   3.803   8.549  1.3967  0.0214 -1.7605
  137OSM   C17S14929   3.563   3.717   8.583 -0.1354 -0.2583  0.3779
  137OSM   H17S14930   3.596   3.663   8.674 -0.9610 -0.4542  0.5704
  137OSM   H17T14931   3.490   3.649   8.534  0.2514  0.4214 -1.1711
  137OSM   C18S14932   3.489   3.840   8.639  0.5012  0.1984  0.6836
  137OSM   H18S14933   3.460   3.915   8.562 -1.1019 -0.4889  0.6006
  137OSM   H18T14934   3.551   3.898   8.711  1.1939 -1.6902  1.6623
  137OSM   H18U14935   3.397   3.801   8.688  0.2653 -1.5738 -1.1247
  137OSM    C1F14936   3.708   3.909   6.982 -0.1125  0.7843 -0.1070
  137OSM     OF14937   3.662   3.914   6.869  0.3325 -0.0622 -0.4121
  137OSM    C2F14938   3.704   4.020   7.080 -0.6487  0.1606  0.3773
  137OSM    H2F14939   3.809   4.044   7.107  0.0736 -1.0170 -1.3629
  137OSM    H2G14940   3.662   3.968   7.169 -0.0991 -0.2742  0.3814
  137OSM    C3F14941   3.635   4.145   7.021  0.3181  0.0973  0.0061
  137OSM    H3F14942   3.533   4.117   6.989  0.3412 -1.2747  1.0971
  137OSM    H3G14943   3.681   4.181   6.927  0.8793 -0.3767  0.0941
  137OSM    C4F14944   3.628   4.251   7.124 -0.4235  0.4099  0.5388
  137OSM    H4F14945   3.598   4.350   7.084  0.5287  0.0763 -1.0623
  137OSM    H4G14946   3.721   4.262   7.184 -0.0896 -0.3653  0.1727
  137OSM    C5F14947   3.524   4.220   7.229  0.0281 -0.2750  0.3561
  137OSM    H5F14948   3.507   4.111   7.225  0.6612 -0.4698  2.6527
  137OSM    H5G14949   3.433   4.274   7.196  1.5994  2.2471 -0.0091
  137OSM    C6F14950   3.561   4.269   7.364  0.4543  0.1275 -0.6115
  137OSM    H6F14951   3.663   4.241   7.399 -0.8645 -1.3043  2.2660
  137OSM    H6G14952   3.490   4.221   7.435  0.6511 -0.0300 -0.5184
  137OSM    C7F14953   3.542   4.422   7.380  0.2555 -0.3691  0.7288
  137OSM    H7F14954   3.432   4.437   7.378  0.0065 -2.1995 -1.2829
  137OSM    H7G14955   3.576   4.471   7.287 -0.8033  0.0539  0.5571
  137OSM    C8F14956   3.607   4.480   7.506 -0.1513 -0.7538  0.0450
  137OSM    H8F14957   3.716   4.457   7.503  0.5452  2.0142  2.4464
  137OSM    H8G14958   3.563   4.430   7.595  2.5414 -1.4904  1.0330
  137OSM    C9F14959   3.593   4.636   7.511  0.1014  0.1130  0.7223
  137OSM    H9F14960   3.546   4.679   7.421 -1.2204 -0.4356  1.1294
  137OSM   C10F14961   3.620   4.701   7.624 -0.4428 -0.6814 -0.0789
  137OSM   H10F14962   3.603   4.809   7.621  0.4950 -0.5212  0.1552
  137OSM   C11F14963   3.675   4.647   7.751 -0.2816  0.0100  0.8526
  137OSM   H11F14964   3.757   4.711   7.789  1.8611 -3.1072  1.7171
  137OSM   H11G14965   3.736   4.557   7.728 -0.9333 -0.2653  0.2087
  137OSM   C12F14966   3.573   4.632   7.859  0.4804  0.3919  0.1147
  137OSM   H12F14967   3.505   4.547   7.834  0.4743  0.9948 -1.9951
  137OSM   H12G14968   3.500   4.716   7.856  0.2618  0.1512 -2.2152
  137OSM   C13F14969   3.632   4.613   8.001 -0.5208  1.0247  0.5946
  137OSM   H13F14970   3.724   4.676   8.007 -0.4201  0.9991 -0.4921
  137OSM   H13G14971   3.659   4.506   8.004  1.1758  1.4496  0.9956
  137OSM   C14F14972   3.524   4.643   8.112 -0.1192 -0.4404  0.4369
  137OSM   H14F14973   3.438   4.575   8.094  0.7493 -1.2046 -0.9728
  137OSM   H14G14974   3.487   4.747   8.103 -1.5859 -0.8245  1.6727
  137OSM   C15F14975   3.598   4.630   8.245  0.3535  0.0264 -0.5579
  137OSM   H15F14976   3.692   4.688   8.238  0.1851  0.1503 -2.0081
  137OSM   H15G14977   3.630   4.525   8.259 -0.3722  0.0677  1.5966
  137OSM   C16F14978   3.501   4.670   8.356 -0.1736 -0.0666 -0.5718
  137OSM   H16F14979   3.428   4.586   8.369 -0.9145  0.7043  0.3476
  137OSM   H16G14980   3.446   4.762   8.327  3.2358  1.4448 -2.5426
  137OSM   C17F14981   3.567   4.698   8.494  0.1732  0.3125 -0.2327
  137OSM   H17F14982   3.491   4.728   8.570  1.1822  1.3667  0.3789
  137OSM   H17G14983   3.646   4.776   8.489 -0.0903  0.9620  3.7271
  137OSM   C18F14984   3.654   4.585   8.540  0.2821  0.2612 -0.3980
  137OSM   H18F14985   3.605   4.491   8.507 -1.8742  0.9929  0.6202
  137OSM   H18G14986   3.673   4.596   8.649  1.9672 -0.6682 -0.5756
  137OSM   H18H14987   3.751   4.593   8.486  0.8733 -0.8381  0.4680
  138OSM      N14988   4.125   6.029   5.818  0.2467  0.6375 -0.0001
  138OSM    C1514989   4.085   6.168   5.781  0.5377 -0.4600 -0.5055
  138OSM   H15A14990   4.011   6.206   5.849  0.5203  0.5182 -1.0520
  138OSM   H15B14991   4.037   6.171   5.684  1.4645 -0.4995 -0.9781
  138OSM   H15C14992   4.166   6.240   5.780 -2.7950  3.4841  0.4155
  138OSM    C1414993   4.000   5.954   5.840 -0.4150 -0.2715  0.9219
  138OSM   H14A14994   3.938   5.965   5.752 -0.2092 -1.8850  0.5567
  138OSM   H14B14995   3.950   5.997   5.925  1.1551  0.6127  1.4317
  138OSM   H14C14996   4.020   5.848   5.849  1.0634  0.0174  1.1405
  138OSM    C1314997   4.210   5.986   5.700 -0.0094 -0.5269 -1.1453
  138OSM   H13A14998   4.286   6.059   5.677  0.2238 -0.4385 -0.1364
  138OSM   H13B14999   4.152   5.983   5.609 -0.7037 -0.4038 -0.7162
  138OSM   H13C15000   4.252   5.887   5.707  1.8891  0.3348 -0.0028
  138OSM    C1215001   4.203   6.039   5.943  0.6795  0.3061 -0.6165
  138OSM   H12A15002   4.265   6.127   5.928 -2.1319  2.7082  1.1449
  138OSM   H12B15003   4.266   5.952   5.934  0.0900 -0.0251 -1.5166
  138OSM    C1115004   4.132   6.057   6.082  0.1492 -0.3683 -0.5959
  138OSM   H11A15005   4.219   6.073   6.148 -0.1325  0.1245 -0.3352
  138OSM   H11B15006   4.083   5.960   6.101 -0.5702  0.6908  3.3155
  138OSM      P15007   4.074   6.319   6.098 -0.1193  0.2495 -0.5983
  138OSM    O1315008   4.220   6.343   6.073  0.3543  0.0544  0.1518
  138OSM    O1415009   3.981   6.388   6.010 -0.0212  0.2021 -0.6408
  138OSM    O1115010   4.041   6.370   6.250 -0.2878 -0.4845  0.0305
  138OSM    O1215011   4.033   6.166   6.084 -0.1845 -0.1589 -0.3153
  138OSM    C1S15012   3.965   6.291   6.333 -0.2535  0.0140  0.1331
  138OSM    H1S15013   3.994   6.184   6.335  0.3837  0.1834 -0.2014
  138OSM    H1T15014   3.858   6.304   6.304 -0.5289  0.2005  1.1832
  138OSM     NF15015   3.898   6.234   6.567 -0.1424  0.1968  0.2027
  138OSM    HNF15016   3.800   6.252   6.570 -0.3257 -0.4897 -1.1455
  138OSM    C2S15017   3.969   6.338   6.480 -0.2610  0.1992 -0.6387
  138OSM    H2S15018   4.075   6.331   6.512  0.2646  0.0740 -2.3962
  138OSM    C3S15019   3.913   6.476   6.497 -0.7062  0.6357  0.1141
  138OSM    H3S15020   3.813   6.480   6.449 -1.0705  1.8914  0.9643
  138OSM     O315021   3.995   6.574   6.427  0.3837 -0.7917 -0.3511
  138OSM    HO315022   4.055   6.528   6.369  1.1543 -0.8616  0.4944
  138OSM    C4S15023   3.895   6.516   6.643 -0.4905 -1.2866  0.5987
  138OSM    H4S15024   3.791   6.494   6.672 -2.0731  2.6128 -1.7139
  138OSM    C5S15025   3.987   6.566   6.727  0.8616  0.0676 -0.4263
  138OSM    H5S15026   4.090   6.590   6.697 -0.2946  1.5683 -3.3770
  138OSM    C6S15027   3.965   6.599   6.871 -1.3785  0.7334 -0.4590
  138OSM    H6S15028   3.863   6.635   6.896 -2.5388 -1.4999 -1.8415
  138OSM    H6T15029   4.023   6.685   6.910 -0.9070  0.4557 -0.5506
  138OSM    C7S15030   3.996   6.476   6.955  0.1312 -0.6892 -0.5985
  138OSM    H7S15031   4.104   6.458   6.936 -0.3772 -1.6488 -2.7393
  138OSM    H7T15032   3.927   6.390   6.939 -0.6898 -0.1586  0.0223
  138OSM    C8S15033   3.998   6.523   7.103  0.2099  0.3460  0.5282
  138OSM    H8S15034   3.892   6.551   7.124  0.3149  0.4012  1.0091
  138OSM    H8T15035   4.063   6.611   7.124  0.7975  0.0239  0.0562
  138OSM    C9S15036   4.041   6.416   7.205  0.1575 -0.8966 -0.6472
  138OSM    H9S15037   4.150   6.396   7.197  0.2434 -1.0774  0.8535
  138OSM    H9T15038   3.985   6.323   7.179 -0.6132  0.4432 -4.1418
  138OSM   C10S15039   4.011   6.468   7.349 -0.0183  0.2167 -0.0568
  138OSM   H10S15040   3.917   6.527   7.354 -1.1917 -1.7061  1.0525
  138OSM   H10T15041   4.094   6.535   7.381  0.3915  0.1798 -1.0195
  138OSM   C11S15042   4.011   6.354   7.455  0.0407 -0.4264 -0.3439
  138OSM   H11S15043   4.111   6.305   7.450 -0.0919 -0.4799 -4.4567
  138OSM   H11T15044   3.938   6.275   7.428 -0.1488 -0.0297 -0.9984
  138OSM   C12S15045   3.987   6.409   7.592  0.3292  0.7345  0.6605
  138OSM   H12S15046   3.884   6.447   7.604 -0.7926 -1.4978 -1.4012
  138OSM   H12T15047   4.061   6.491   7.606  3.1671 -1.6573  0.1717
  138OSM   C13S15048   4.005   6.306   7.703  0.5841  0.8522 -0.5669
  138OSM   H13S15049   4.098   6.246   7.690 -1.4225 -2.3769 -0.4661
  138OSM   H13T15050   3.918   6.237   7.703 -0.1236  1.7120  1.6435
  138OSM   C14S15051   4.014   6.376   7.837 -0.1074  0.2663 -0.1232
  138OSM   H14S15052   3.918   6.421   7.867 -0.1456  1.2553 -1.6834
  138OSM   H14T15053   4.088   6.458   7.848 -1.2322  1.3544 -0.6185
  138OSM   C15S15054   4.046   6.283   7.953  0.2607  0.2978 -0.8855
  138OSM   H15S15055   4.156   6.294   7.968  0.2666 -0.8784 -0.0402
  138OSM   H15T15056   4.020   6.177   7.933  1.8288 -0.2028 -0.2917
  138OSM   C16S15057   3.966   6.321   8.083  0.3063  0.3895  0.1679
  138OSM   H16S15058   3.865   6.275   8.083  0.8373 -0.7976  0.6051
  138OSM   H16T15059   3.960   6.431   8.091  2.0483  0.5638 -0.8947
  138OSM   C17S15060   4.018   6.265   8.221 -0.1199 -0.0030  0.9511
  138OSM   H17S15061   4.120   6.307   8.230  0.7521 -1.8877  0.0746
  138OSM   H17T15062   4.015   6.154   8.213  0.5646  0.1106 -1.1646
  138OSM   C18S15063   3.929   6.319   8.336 -0.3549  0.0744  0.1742
  138OSM   H18S15064   3.959   6.426   8.344  2.9384 -0.8001  0.4659
  138OSM   H18T15065   3.947   6.267   8.433 -1.1025 -1.0287 -0.2715
  138OSM   H18U15066   3.824   6.303   8.307 -1.1605 -1.7760  3.7692
  138OSM    C1F15067   3.951   6.111   6.596  0.9002 -0.2340  0.6127
  138OSM     OF15068   4.057   6.071   6.548 -0.4411 -0.1589 -0.1387
  138OSM    C2F15069   3.867   6.026   6.692 -0.5024 -0.0878 -0.8054
  138OSM    H2F15070   3.872   5.922   6.654 -0.2684  0.7350 -3.0661
  138OSM    H2G15071   3.761   6.056   6.677 -0.5340  2.0266  2.8822
  138OSM    C3F15072   3.899   6.048   6.839  0.0806 -0.4419 -0.6262
  138OSM    H3F15073   3.916   6.155   6.862  0.6760 -0.9609  1.4467
  138OSM    H3G15074   3.998   6.007   6.869  0.5125  0.8630 -0.2675
  138OSM    C4F15075   3.798   5.992   6.938 -0.4176  0.5578  0.3286
  138OSM    H4F15076   3.782   5.884   6.917  1.1499  0.1936  0.9734
  138OSM    H4G15077   3.701   6.036   6.905 -0.2350  0.3821 -0.4359
  138OSM    C5F15078   3.813   6.039   7.074 -0.1710 -0.6771 -0.6965
  138OSM    H5F15079   3.792   6.148   7.077  0.7151 -0.4991  4.5535
  138OSM    H5G15080   3.918   6.011   7.100  0.2365 -0.1464 -1.7288
  138OSM    C6F15081   3.723   5.967   7.174 -0.0140  0.2364 -0.2584
  138OSM    H6F15082   3.701   5.863   7.142 -0.1656  0.4703 -0.9237
  138OSM    H6G15083   3.629   6.025   7.166 -0.1636 -0.0203 -0.3639
  138OSM    C7F15084   3.768   5.968   7.316 -0.6154 -0.6951 -0.8717
  138OSM    H7F15085   3.797   6.071   7.348 -1.5411 -0.5636 -0.4429
  138OSM    H7G15086   3.868   5.920   7.317 -1.0217 -1.5624  1.1468
  138OSM    C8F15087   3.686   5.900   7.431 -0.0993  0.4334  0.0027
  138OSM    H8F15088   3.744   5.874   7.522  0.8094  0.2952 -0.6100
  138OSM    H8G15089   3.657   5.805   7.382 -3.4506  0.2709  2.1314
  138OSM    C9F15090   3.555   5.967   7.472 -0.0117 -0.4495  0.1538
  138OSM    H9F15091   3.495   6.001   7.387  0.7266 -0.4490 -0.3749
  138OSM   C10F15092   3.509   5.984   7.595  0.6317  0.8191 -0.6525
  138OSM   H10F15093   3.416   6.037   7.618 -0.7221 -1.6044 -0.3264
  138OSM   C11F15094   3.580   5.936   7.724  1.1718  0.4489  1.2978
  138OSM   H11F15095   3.632   5.839   7.712  0.3650  0.1405  0.2184
  138OSM   H11G15096   3.496   5.936   7.797  0.7032 -0.0943  0.7607
  138OSM   C12F15097   3.682   6.037   7.761 -0.0037 -0.2721  0.1333
  138OSM   H12F15098   3.642   6.140   7.778  0.3353 -0.3030  1.1261
  138OSM   H12G15099   3.755   6.047   7.678 -1.8724  0.8339 -1.4313
  138OSM   C13F15100   3.750   5.999   7.895 -0.1733 -0.1844  0.0403
  138OSM   H13F15101   3.816   6.085   7.920 -1.0955  0.4175  0.4375
  138OSM   H13G15102   3.810   5.906   7.893  0.1975  0.0311  1.2003
  138OSM   C14F15103   3.650   5.985   8.021 -0.0054 -0.3980  0.6397
  138OSM   H14F15104   3.598   5.889   8.001  2.1078 -1.1616 -1.3619
  138OSM   H14G15105   3.582   6.072   8.032 -0.3309 -0.2873 -1.9114
  138OSM   C15F15106   3.727   5.983   8.155  0.3509  0.1086 -0.1791
  138OSM   H15F15107   3.647   5.989   8.232 -1.7892 -0.8053 -2.2184
  138OSM   H15G15108   3.790   6.073   8.170 -0.8292  0.3311  4.1098
  138OSM   C16F15109   3.806   5.855   8.182  0.3259 -0.8902  0.2401
  138OSM   H16F15110   3.878   5.846   8.098 -1.7362 -1.9965 -1.4688
  138OSM   H16G15111   3.737   5.769   8.168 -1.3733  0.6074 -0.8554
  138OSM   C17F15112   3.873   5.852   8.321 -0.6947  0.4299 -0.1122
  138OSM   H17F15113   3.924   5.950   8.320 -0.0646  0.1069 -0.7537
  138OSM   H17G15114   3.953   5.775   8.313 -0.8100  0.5067 -2.6457
  138OSM   C18F15115   3.782   5.827   8.450  0.4814  0.1754  0.1710
  138OSM   H18F15116   3.705   5.749   8.431  1.0305 -0.3696  0.1442
  138OSM   H18G15117   3.740   5.923   8.486  1.1330 -0.0233  1.4675
  138OSM   H18H15118   3.841   5.798   8.539  0.9876 -2.5676 -0.9999
  139OSM      N15119   2.472   0.822   6.442  0.7555 -0.2087 -0.6061
  139OSM    C1515120   2.423   0.921   6.550  0.3533  0.3829 -0.2443
  139OSM   H15A15121   2.491   0.919   6.634  2.5980 -0.0152 -2.0235
  139OSM   H15B15122   2.327   0.894   6.589  0.4605  1.3263  0.7043
  139OSM   H15C15123   2.434   1.020   6.507  1.2504  0.1906 -0.4896
  139OSM    C1415124   2.415   0.689   6.472 -0.5606  0.1213  0.2922
  139OSM   H14A15125   2.307   0.690   6.466 -0.7256  0.0771  2.9092
  139OSM   H14B15126   2.443   0.649   6.568  0.1130  0.7682  0.3706
  139OSM   H14C15127   2.456   0.611   6.409  0.6638  1.1179 -0.1714
  139OSM    C1315128   2.420   0.867   6.307  0.5896  0.6619 -0.2425
  139OSM   H13A15129   2.314   0.884   6.309  0.4818  0.0387 -0.5063
  139OSM   H13B15130   2.429   0.793   6.228  2.4240  2.4568 -1.7992
  139OSM   H13C15131   2.465   0.958   6.269 -0.5898  0.7444 -1.4767
  139OSM    C1215132   2.629   0.816   6.443  0.2548  0.0331 -0.1818
  139OSM   H12A15133   2.662   0.779   6.539  1.3090 -0.1328 -0.5955
  139OSM   H12B15134   2.667   0.917   6.444 -1.8421  0.8279  0.3579
  139OSM    C1115135   2.682   0.733   6.319  0.6909  0.3162 -0.5148
  139OSM   H11A15136   2.785   0.770   6.296  0.5575  0.6484 -0.5847
  139OSM   H11B15137   2.637   0.762   6.222 -0.3439  1.7765  0.3771
  139OSM      P15138   2.752   0.495   6.260  0.0171  0.3184  0.1985
  139OSM    O1315139   2.660   0.375   6.247  0.1689  0.0540 -0.1715
  139OSM    O1415140   2.801   0.555   6.139 -0.1413  0.1497  0.0027
  139OSM    O1115141   2.869   0.449   6.352  0.3646  0.6880 -0.2332
  139OSM    O1215142   2.682   0.598   6.353  0.1161  0.5931  0.8113
  139OSM    C1S15143   2.903   0.516   6.472 -0.1562  0.5192  0.4894
  139OSM    H1S15144   2.892   0.626   6.464 -0.4719  0.5482  1.2566
  139OSM    H1T15145   3.009   0.502   6.504 -0.2719  1.2945  1.1981
  139OSM     NF15146   2.894   0.533   6.708  0.1293  1.0642  0.5372
  139OSM    HNF15147   2.963   0.476   6.751 -1.1587 -2.2864 -1.6803
  139OSM    C2S15148   2.826   0.470   6.597  0.6116  0.2093 -0.1724
  139OSM    H2S15149   2.719   0.499   6.609  0.6427  0.3627 -0.2616
  139OSM    C3S15150   2.830   0.316   6.603 -1.1414  0.2690 -0.3547
  139OSM    H3S15151   2.939   0.300   6.585 -1.0715  0.7156 -0.3387
  139OSM     O315152   2.769   0.232   6.499 -0.0648  0.3515  0.1382
  139OSM    HO315153   2.724   0.291   6.439 -1.4771 -0.7385  0.1033
  139OSM    C4S15154   2.781   0.271   6.735 -0.8931 -0.1243  0.2467
  139OSM    H4S15155   2.868   0.249   6.798 -0.2362  1.0294 -0.2418
  139OSM    C5S15156   2.648   0.248   6.766  0.6536 -0.4937  0.1084
  139OSM    H5S15157   2.570   0.265   6.690  2.2695  0.9619 -1.2497
  139OSM    C6S15158   2.601   0.205   6.898  0.3295  0.2207  0.3614
  139OSM    H6S15159   2.552   0.105   6.891  0.8199 -0.0248  0.4275
  139OSM    H6T15160   2.524   0.274   6.940  0.3871  0.2762  0.3752
  139OSM    C7S15161   2.705   0.205   7.014 -0.5591 -0.1397  0.4677
  139OSM    H7S15162   2.775   0.291   7.018 -1.6923  0.7725  0.9711
  139OSM    H7T15163   2.770   0.117   6.993  1.2405  2.0023 -3.5365
  139OSM    C8S15164   2.647   0.202   7.161  0.2978 -0.1549  0.0391
  139OSM    H8S15165   2.579   0.116   7.177  0.3699  0.2052  2.5118
  139OSM    H8T15166   2.584   0.291   7.183  0.4342 -0.3396  1.1983
  139OSM    C9S15167   2.767   0.198   7.264 -0.3572  0.2866  0.2198
  139OSM    H9S15168   2.835   0.286   7.256 -0.2261  0.2011  0.3958
  139OSM    H9T15169   2.827   0.113   7.227 -1.8568  0.1090 -1.9683
  139OSM   C10S15170   2.718   0.172   7.411 -0.3859 -0.3161 -0.2410
  139OSM   H10S15171   2.662   0.078   7.434  0.4370 -0.8017 -0.2030
  139OSM   H10T15172   2.653   0.259   7.430  1.2256  0.1615  3.4339
  139OSM   C11S15173   2.832   0.195   7.517  0.3560  0.0048 -0.0213
  139OSM   H11S15174   2.877   0.295   7.501  1.1294 -0.2229  0.6985
  139OSM   H11T15175   2.916   0.122   7.517 -0.4969 -1.0631  3.2877
  139OSM   C12S15176   2.773   0.192   7.654 -0.0868  0.0662 -0.4675
  139OSM   H12S15177   2.729   0.094   7.683  0.3835  0.4345  1.5660
  139OSM   H12T15178   2.686   0.261   7.657 -0.6451 -0.6773  2.8664
  139OSM   C13S15179   2.875   0.228   7.762  0.2571 -0.7763 -0.0514
  139OSM   H13S15180   2.931   0.317   7.728 -2.2984  0.4168 -1.3004
  139OSM   H13T15181   2.948   0.146   7.781  1.1534 -0.4929 -2.1186
  139OSM   C14S15182   2.812   0.276   7.894  0.0936  0.1499  0.2487
  139OSM   H14S15183   2.773   0.379   7.876  0.6501  0.1562 -0.9623
  139OSM   H14T15184   2.897   0.283   7.965 -0.1636 -0.5070  0.6241
  139OSM   C15S15185   2.704   0.187   7.959 -0.1280  0.5845 -0.3252
  139OSM   H15S15186   2.615   0.171   7.894 -0.4367 -4.1111  1.1266
  139OSM   H15T15187   2.675   0.244   8.049  2.1735  0.6620  0.4029
  139OSM   C16S15188   2.761   0.053   8.010 -0.5249 -0.5125 -0.3649
  139OSM   H16S15189   2.863   0.072   8.049 -0.1048 -2.5002 -0.4373
  139OSM   H16T15190   2.765  -0.016   7.923  0.0434 -0.3705 -0.4488
  139OSM   C17S15191   2.687  -0.015   8.125 -0.3796 -0.1065  0.1893
  139OSM   H17S15192   2.736  -0.113   8.144  1.0851  0.5354 -0.2362
  139OSM   H17T15193   2.587  -0.028   8.078 -0.5069  0.0504  0.4147
  139OSM   C18S15194   2.681   0.066   8.252  0.1924  0.2452  0.4828
  139OSM   H18S15195   2.629   0.006   8.330  0.9488  1.8609  2.2906
  139OSM   H18T15196   2.633   0.166   8.240  0.8068  0.7152  1.7923
  139OSM   H18U15197   2.784   0.089   8.285 -0.0542  1.4282  0.4583
  139OSM    C1F15198   2.883   0.660   6.737 -0.1118  0.2950 -1.0926
  139OSM     OF15199   2.800   0.736   6.690  0.3644 -0.2266 -0.6314
  139OSM    C2F15200   2.994   0.710   6.829  0.0133  0.3854  0.2134
  139OSM    H2F15201   3.074   0.756   6.769  0.2448 -2.5173 -1.7606
  139OSM    H2G15202   3.047   0.629   6.885 -0.5649 -0.0132  0.1969
  139OSM    C3F15203   2.939   0.815   6.922 -0.5383  0.7976 -0.5121
  139OSM    H3F15204   2.847   0.786   6.977  0.7298  0.1688  1.3545
  139OSM    H3G15205   2.914   0.900   6.855 -1.6560 -0.0102 -1.1372
  139OSM    C4F15206   3.043   0.873   7.027 -1.2780 -0.2664 -0.2781
  139OSM    H4F15207   3.028   0.983   7.035  1.0952 -0.0122  1.1820
  139OSM    H4G15208   3.143   0.867   6.980 -0.0864 -1.5344  2.3176
  139OSM    C5F15209   3.046   0.814   7.168 -0.0782 -0.0235  0.2643
  139OSM    H5F15210   3.066   0.705   7.156  0.9283  0.5060 -3.2600
  139OSM    H5G15211   2.942   0.825   7.206 -0.2742  1.4026 -0.6439
  139OSM    C6F15212   3.153   0.859   7.265  0.1172 -0.7623 -0.3126
  139OSM    H6F15213   3.138   0.825   7.370 -0.7924  0.2462 -0.1041
  139OSM    H6G15214   3.145   0.970   7.265 -1.2830 -0.8286  1.7576
  139OSM    C7F15215   3.296   0.820   7.222  1.0383  0.2570  0.2920
  139OSM    H7F15216   3.328   0.841   7.118 -2.0909  0.0581 -0.7460
  139OSM    H7G15217   3.295   0.711   7.245 -4.0919  0.0247 -0.6271
  139OSM    C8F15218   3.411   0.879   7.315 -0.0433 -1.0886 -0.4004
  139OSM    H8F15219   3.499   0.821   7.280 -0.4212 -0.1454 -3.0233
  139OSM    H8G15220   3.385   0.851   7.419 -0.4261  0.9861  0.1000
  139OSM    C9F15221   3.423   1.030   7.292 -0.5120  0.2062  0.2653
  139OSM    H9F15222   3.352   1.070   7.219 -0.8050 -0.6093  0.0955
  139OSM   C10F15223   3.515   1.117   7.354  0.0645 -0.3487 -0.0898
  139OSM   H10F15224   3.511   1.226   7.344 -0.5614 -0.1252  2.3027
  139OSM   C11F15225   3.615   1.064   7.449  0.1437  0.2334 -0.0592
  139OSM   H11F15226   3.712   1.114   7.428 -0.8347  1.4739 -1.7290
  139OSM   H11G15227   3.625   0.953   7.451  2.8552  0.4617  0.6984
  139OSM   C12F15228   3.583   1.098   7.597  0.8083 -0.5556  0.2580
  139OSM   H12F15229   3.659   1.055   7.666 -0.6319 -0.9497  1.6229
  139OSM   H12G15230   3.488   1.048   7.623  2.0212 -3.3313 -0.4522
  139OSM   C13F15231   3.559   1.251   7.629  0.6308 -1.1008  0.0258
  139OSM   H13F15232   3.492   1.296   7.552  1.9597  2.2502  0.7294
  139OSM   H13G15233   3.660   1.297   7.616  0.9599 -1.6949  0.4487
  139OSM   C14F15234   3.499   1.251   7.777 -0.4093 -0.2061 -0.2345
  139OSM   H14F15235   3.429   1.166   7.790 -2.8373  1.6423 -0.8949
  139OSM   H14G15236   3.449   1.348   7.796  1.1224  0.8352 -1.3896
  139OSM   C15F15237   3.613   1.234   7.881  0.3944 -0.4966 -0.3017
  139OSM   H15F15238   3.672   1.328   7.882 -1.9621  1.0166  0.5238
  139OSM   H15G15239   3.684   1.160   7.839  2.2732  0.3783  1.1922
  139OSM   C16F15240   3.559   1.180   8.026  0.7052  0.4019 -0.1413
  139OSM   H16F15241   3.501   1.088   8.004 -1.7948  1.8937  0.0124
  139OSM   H16G15242   3.497   1.262   8.069  1.2449  0.1126  1.2035
  139OSM   C17F15243   3.660   1.147   8.130 -0.5106 -0.6791  0.5925
  139OSM   H17F15244   3.735   1.225   8.157  2.8100 -2.9744 -1.5694
  139OSM   H17G15245   3.726   1.068   8.088 -0.3077  0.3783 -1.1363
  139OSM   C18F15246   3.603   1.103   8.260 -0.3571  0.4520 -0.6751
  139OSM   H18F15247   3.680   1.105   8.340 -1.4684 -0.5909  0.4315
  139OSM   H18G15248   3.565   1.000   8.245  1.8250 -0.3954 -0.5425
  139OSM   H18H15249   3.513   1.159   8.293  1.3243  1.9303  1.6175
  140OSM      N15250   3.101   2.757   6.486 -0.5029  0.4387  0.2287
  140OSM    C1515251   3.049   2.711   6.620  0.1461  0.7423  0.0151
  140OSM   H15A15252   3.109   2.629   6.655 -0.4714 -0.1744 -1.0334
  140OSM   H15B15253   2.958   2.653   6.613  0.1771  0.6842  0.0839
  140OSM   H15C15254   3.034   2.792   6.690  0.8335 -0.3419  1.4335
  140OSM    C1415255   3.138   2.645   6.401  0.4712 -0.2331  0.2344
  140OSM   H14A15256   3.068   2.563   6.391  1.4188 -1.2146  1.4701
  140OSM   H14B15257   3.230   2.598   6.433  1.6982  0.4887 -2.0836
  140OSM   H14C15258   3.167   2.670   6.300 -1.1125 -1.9348 -0.6742
  140OSM    C1315259   2.992   2.832   6.409  0.3728 -0.0050 -0.8603
  140OSM   H13A15260   2.958   2.923   6.457 -0.5248 -1.0645  0.5326
  140OSM   H13B15261   2.908   2.768   6.387 -0.5180  0.4853  1.0541
  140OSM   H13C15262   3.044   2.854   6.317  0.9550  2.2584 -0.0372
  140OSM    C1215263   3.215   2.851   6.516 -0.0154  0.3087 -0.2036
  140OSM   H12A15264   3.286   2.793   6.573  0.8175  2.0612  0.5585
  140OSM   H12B15265   3.177   2.930   6.579 -2.5988 -0.8433 -0.2312
  140OSM    C1115266   3.284   2.928   6.401  0.2361  0.3452 -0.0206
  140OSM   H11A15267   3.330   3.023   6.438  2.0030 -0.9043  1.0696
  140OSM   H11B15268   3.207   2.976   6.337 -3.4554 -3.2429  1.4937
  140OSM      P15269   3.517   2.821   6.376  0.0728  0.3620  0.1439
  140OSM    O1315270   3.576   2.727   6.285 -0.1580  0.7025  0.3395
  140OSM    O1415271   3.575   2.957   6.379  0.4789 -0.8046 -0.6183
  140OSM    O1115272   3.496   2.762   6.525  0.0483 -0.1830  0.9806
  140OSM    O1215273   3.364   2.839   6.324  0.6984  0.0563  0.3929
  140OSM    C1S15274   3.526   2.622   6.555 -0.0738  0.4488  0.1582
  140OSM    H1S15275   3.589   2.585   6.472 -0.1565  0.3462  0.1426
  140OSM    H1T15276   3.432   2.562   6.554 -0.8339  1.6264 -2.3626
  140OSM     NF15277   3.615   2.450   6.708  0.2814  0.2025  0.0406
  140OSM    HNF15278   3.570   2.396   6.779 -0.6211  0.5176 -0.2799
  140OSM    C2S15279   3.598   2.589   6.694 -0.2840  0.3277 -0.1475
  140OSM    H2S15280   3.696   2.640   6.702 -0.4737  0.6172  0.3597
  140OSM    C3S15281   3.511   2.647   6.811  0.0001  0.6501 -0.7456
  140OSM    H3S15282   3.424   2.582   6.832  1.2685 -0.9025 -0.1079
  140OSM     O315283   3.456   2.780   6.788  0.2780  0.2673 -0.4974
  140OSM    HO315284   3.486   2.799   6.699 -0.6235 -1.0150 -1.1010
  140OSM    C4S15285   3.592   2.653   6.936  0.1465  0.0128  0.9965
  140OSM    H4S15286   3.684   2.709   6.913 -0.0942  0.7625  1.8418
  140OSM    C5S15287   3.568   2.598   7.059  0.2939 -0.4693  0.2282
  140OSM    H5S15288   3.471   2.548   7.076  0.4729 -0.9817 -0.2388
  140OSM    C6S15289   3.667   2.612   7.168  0.5093  0.0499 -0.6513
  140OSM    H6S15290   3.688   2.718   7.193 -1.9007  0.2900  0.5126
  140OSM    H6T15291   3.766   2.577   7.133  0.4943 -2.0292  1.3010
  140OSM    C7S15292   3.647   2.543   7.303  0.1635  0.3303  0.3039
  140OSM    H7S15293   3.747   2.539   7.350  1.1946 -0.7812 -1.8764
  140OSM    H7T15294   3.616   2.436   7.295  0.0783  0.4131 -0.6232
  140OSM    C8S15295   3.557   2.620   7.395  1.2817 -0.5889 -0.7347
  140OSM    H8S15296   3.486   2.682   7.337  1.8568  0.7875  0.0034
  140OSM    H8T15297   3.627   2.690   7.446 -2.6988  1.5895  1.9964
  140OSM    C9S15298   3.487   2.541   7.498 -0.1814 -0.4156 -0.7670
  140OSM    H9S15299   3.412   2.469   7.459 -1.8621  0.7451  0.2773
  140OSM    H9T15300   3.417   2.599   7.563 -0.5936 -2.7418  0.9408
  140OSM   C10S15301   3.593   2.481   7.599 -0.0436  0.2316 -0.0110
  140OSM   H10S15302   3.673   2.555   7.621 -0.6409  0.7426  0.4825
  140OSM   H10T15303   3.641   2.390   7.558 -0.5384  0.6038 -1.4404
  140OSM   C11S15304   3.517   2.446   7.732 -0.0322  0.3449  0.3726
  140OSM   H11S15305   3.444   2.364   7.715  1.2792 -0.7836  0.1149
  140OSM   H11T15306   3.448   2.528   7.761  0.0423  0.4627  0.2159
  140OSM   C12S15307   3.614   2.414   7.856 -0.4477  0.3432  0.5676
  140OSM   H12S15308   3.665   2.507   7.890  0.2276  0.4136 -0.6481
  140OSM   H12T15309   3.687   2.334   7.833  0.2674  1.6175 -1.7900
  140OSM   C13S15310   3.529   2.365   7.973 -0.3845 -1.1104 -0.3155
  140OSM   H13S15311   3.438   2.308   7.943 -0.4015 -0.3449 -1.7207
  140OSM   H13T15312   3.484   2.465   7.992  0.6159 -0.9582  1.2854
  140OSM   C14S15313   3.608   2.311   8.093 -0.2537 -0.3723 -0.4081
  140OSM   H14S15314   3.669   2.222   8.066  1.9992  1.3000 -0.9949
  140OSM   H14T15315   3.527   2.290   8.166  0.4143  0.4969  0.6133
  140OSM   C15S15316   3.696   2.422   8.156  0.3602  0.0254  0.1220
  140OSM   H15S15317   3.627   2.509   8.157  0.8263  0.3975  3.8298
  140OSM   H15T15318   3.776   2.446   8.082  0.7331  1.1962  0.8953
  140OSM   C16S15319   3.738   2.389   8.300  0.2135  0.2175  0.4481
  140OSM   H16S15320   3.809   2.304   8.293 -1.9072 -1.8941  3.5390
  140OSM   H16T15321   3.657   2.366   8.372 -0.9410 -0.1518 -0.9352
  140OSM   C17S15322   3.799   2.508   8.373 -0.1722  0.3403 -0.0342
  140OSM   H17S15323   3.720   2.584   8.390 -1.9873 -1.0448 -1.9090
  140OSM   H17T15324   3.876   2.546   8.302  1.1689 -0.6274  0.8730
  140OSM   C18S15325   3.878   2.468   8.502  0.0176  0.7967  0.0755
  140OSM   H18S15326   3.933   2.559   8.534 -0.5053  1.7480 -1.6150
  140OSM   H18T15327   3.952   2.389   8.479  0.5086  0.9917  1.0078
  140OSM   H18U15328   3.806   2.431   8.578  1.8497  0.2676  1.5665
  140OSM    C1F15329   3.695   2.378   6.625  0.5601  0.3256  0.2385
  140OSM     OF15330   3.750   2.433   6.530  0.6303  0.0179  0.9421
  140OSM    C2F15331   3.706   2.237   6.652 -0.5700 -0.0903 -0.5920
  140OSM    H2F15332   3.656   2.174   6.575 -1.7086 -0.9050  0.7835
  140OSM    H2G15333   3.650   2.206   6.743 -1.5139 -2.2859 -1.8724
  140OSM    C3F15334   3.854   2.185   6.682 -0.2037 -0.4861 -0.3966
  140OSM    H3F15335   3.920   2.195   6.592  0.4704 -0.0099  0.1446
  140OSM    H3G15336   3.856   2.075   6.694  1.6189 -0.3968  0.3067
  140OSM    C4F15337   3.931   2.260   6.799  0.1414  0.3342  0.4783
  140OSM    H4F15338   3.915   2.369   6.785  0.6971  0.3589  0.0457
  140OSM    H4G15339   4.040   2.238   6.795  0.4616  1.7419  1.3883
  140OSM    C5F15340   3.880   2.219   6.935  0.5489  0.0502  0.2576
  140OSM    H5F15341   3.890   2.110   6.952  0.4072  0.2225  1.5226
  140OSM    H5G15342   3.775   2.248   6.958  0.9430  0.9393  0.9591
  140OSM    C6F15343   3.967   2.285   7.048  0.4887 -0.4002  0.8661
  140OSM    H6F15344   3.965   2.395   7.031 -1.6326 -0.1105  2.8350
  140OSM    H6G15345   4.072   2.249   7.045  0.2095 -1.1302 -0.2169
  140OSM    C7F15346   3.924   2.249   7.186 -0.6696 -0.7195  1.1979
  140OSM    H7F15347   3.973   2.153   7.211  0.9988  0.3233  2.0319
  140OSM    H7G15348   3.820   2.211   7.194 -0.2634 -2.2991 -0.7650
  140OSM    C8F15349   3.964   2.347   7.300  1.1546 -0.0898  0.6438
  140OSM    H8F15350   3.934   2.449   7.267  1.1739 -0.9952 -2.4136
  140OSM    H8G15351   4.075   2.354   7.293  0.9643  2.5440 -0.1351
  140OSM    C9F15352   3.912   2.302   7.438 -0.2410  0.2922  0.6805
  140OSM    H9F15353   3.818   2.355   7.462 -0.3378  1.2511 -1.7164
  140OSM   C10F15354   3.958   2.222   7.529  0.2195 -0.3568 -0.3364
  140OSM   H10F15355   3.913   2.201   7.628 -1.1553 -2.3130 -1.3417
  140OSM   C11F15356   4.092   2.159   7.517  0.3868  0.2917  0.7086
  140OSM   H11F15357   4.155   2.174   7.608 -0.8750 -0.6233  1.7490
  140OSM   H11G15358   4.152   2.188   7.428 -0.4346  2.6959  0.8965
  140OSM   C12F15359   4.067   2.010   7.510 -0.4462 -0.2146 -0.7121
  140OSM   H12F15360   4.009   1.998   7.416  0.8457  2.6994 -1.9418
  140OSM   H12G15361   3.996   1.971   7.586 -0.6113  0.7045 -0.3877
  140OSM   C13F15362   4.189   1.922   7.510 -0.5324  0.2064  0.4913
  140OSM   H13F15363   4.155   1.819   7.485  0.3626  0.2881 -1.2029
  140OSM   H13G15364   4.231   1.940   7.611  0.1080 -0.4752  0.3506
  140OSM   C14F15365   4.302   1.950   7.408 -0.3116 -0.0074 -0.2618
  140OSM   H14F15366   4.378   1.871   7.424 -0.2826 -0.6173 -3.0361
  140OSM   H14G15367   4.350   2.048   7.429 -0.6626  0.1585 -0.2173
  140OSM   C15F15368   4.248   1.942   7.258  0.2566  0.0964  0.3451
  140OSM   H15F15369   4.334   1.971   7.194  0.3078 -0.0411  0.3505
  140OSM   H15G15370   4.166   2.016   7.254 -1.1331 -1.5045 -1.8514
  140OSM   C16F15371   4.202   1.800   7.219  0.1917 -0.1247  0.0835
  140OSM   H16F15372   4.109   1.774   7.273  1.3349 -2.2890  1.1010
  140OSM   H16G15373   4.281   1.728   7.249  1.0360 -0.0964 -1.9751
  140OSM   C17F15374   4.181   1.794   7.067 -0.0819  1.2282  0.4456
  140OSM   H17F15375   4.277   1.802   7.011  1.0023 -3.7965  1.3994
  140OSM   H17G15376   4.124   1.885   7.041 -0.5249  1.1906  1.2602
  140OSM   C18F15377   4.105   1.676   7.010  0.0477 -0.0340 -0.7911
  140OSM   H18F15378   4.074   1.699   6.906 -1.5223 -1.0721 -0.5739
  140OSM   H18G15379   4.005   1.662   7.055 -0.6663  1.9539 -1.6915
  140OSM   H18H15380   4.172   1.588   7.014  2.1795  1.6258  2.3307
  141OSM      N15381   2.313   4.554   6.262 -0.5302 -0.0857 -0.4701
  141OSM    C1515382   2.321   4.659   6.368  0.0968  0.1602 -0.0882
  141OSM   H15A15383   2.279   4.629   6.462 -0.5887 -1.1634 -0.8020
  141OSM   H15B15384   2.259   4.743   6.341  0.6499 -0.0410 -2.1119
  141OSM   H15C15385   2.424   4.683   6.386  0.1617 -0.6219  0.6033
  141OSM    C1415386   2.171   4.549   6.214 -0.3705  0.1094  0.2620
  141OSM   H14A15387   2.105   4.536   6.299 -1.3243  0.6827 -0.3934
  141OSM   H14B15388   2.150   4.468   6.145 -1.3297  0.9028 -0.3899
  141OSM   H14C15389   2.143   4.641   6.166  1.1196  0.8285  0.7545
  141OSM    C1315390   2.404   4.597   6.147 -0.1883  0.6556 -0.4561
  141OSM   H13A15391   2.405   4.515   6.076 -0.5759  0.4318 -0.1997
  141OSM   H13B15392   2.507   4.620   6.172 -0.2662 -0.6585  1.1302
  141OSM   H13C15393   2.365   4.685   6.097  0.4828  0.4484 -1.3748
  141OSM    C1215394   2.349   4.410   6.318  0.6016 -0.2567 -0.4700
  141OSM   H12A15395   2.287   4.386   6.403 -1.2161 -0.0736 -1.7238
  141OSM   H12B15396   2.450   4.411   6.356  0.6542 -0.0179 -0.6155
  141OSM    C1115397   2.343   4.307   6.204  0.5322 -0.2469 -0.3828
  141OSM   H11A15398   2.423   4.326   6.129  0.3106 -1.6265 -0.9843
  141OSM   H11B15399   2.241   4.295   6.162  1.2558 -1.2878 -1.9088
  141OSM      P15400   2.402   4.057   6.176 -0.0959 -0.1268  0.2492
  141OSM    O1315401   2.272   4.026   6.115 -0.2959 -0.2884  0.5523
  141OSM    O1415402   2.525   4.083   6.102 -0.4445  1.0007  0.1821
  141OSM    O1115403   2.437   3.940   6.271  0.3842 -0.4701 -0.8788
  141OSM    O1215404   2.380   4.184   6.270  0.2757  0.1104  0.1431
  141OSM    C1S15405   2.529   3.932   6.383 -0.7246 -0.4865  0.3511
  141OSM    H1S15406   2.619   3.993   6.361 -0.2235 -0.6064  1.9881
  141OSM    H1T15407   2.565   3.829   6.401  0.9407  0.2764  1.4441
  141OSM     NF15408   2.574   4.001   6.624  0.1618 -0.2652  0.9106
  141OSM    HNF15409   2.572   3.932   6.697 -0.8059 -0.6906  0.4855
  141OSM    C2S15410   2.471   3.992   6.517  0.5859  0.7275 -0.0658
  141OSM    H2S15411   2.434   4.095   6.499 -1.9690  0.0195  0.9320
  141OSM    C3S15412   2.349   3.907   6.563 -0.3963 -0.2591  0.0060
  141OSM    H3S15413   2.381   3.813   6.614  1.1696 -1.1129 -2.4283
  141OSM     O315414   2.260   3.869   6.460  0.9670 -0.2647 -0.1660
  141OSM    HO315415   2.316   3.896   6.386  1.8523 -0.5112  0.4045
  141OSM    C4S15416   2.265   3.983   6.661 -0.1960  0.7078  0.1714
  141OSM    H4S15417   2.233   4.080   6.622 -1.7450  0.1640  0.0607
  141OSM    C5S15418   2.242   3.936   6.789  0.7037  0.1320 -0.6176
  141OSM    H5S15419   2.278   3.835   6.814 -0.7098 -0.4072 -0.6879
  141OSM    C6S15420   2.161   4.008   6.894 -0.8710  0.2976 -0.2269
  141OSM    H6S15421   2.155   4.118   6.879 -0.9396  0.7066  2.5269
  141OSM    H6T15422   2.217   3.985   6.987 -1.9078  0.6609  0.5098
  141OSM    C7S15423   2.010   3.958   6.921  0.2819  0.0913 -0.0035
  141OSM    H7S15424   2.025   3.848   6.922 -0.1244  0.0329 -0.3512
  141OSM    H7T15425   1.939   3.991   6.842  1.5045 -1.4084 -1.7764
  141OSM    C8S15426   1.946   3.989   7.055 -0.0367  1.0108 -0.1263
  141OSM    H8S15427   2.003   3.930   7.131 -1.9210  1.7790  1.9428
  141OSM    H8T15428   1.845   3.947   7.075  1.0020 -0.7062  1.7697
  141OSM    C9S15429   1.942   4.138   7.082  0.8352 -0.7085 -0.4742
  141OSM    H9S15430   1.893   4.179   6.991  0.5169 -0.5542 -0.2334
  141OSM    H9T15431   2.045   4.179   7.091  0.3538  0.9809 -2.4915
  141OSM   C10S15432   1.871   4.180   7.214  0.7692 -0.4947 -0.4411
  141OSM   H10S15433   1.762   4.163   7.198  0.9033  1.4031 -3.5672
  141OSM   H10T15434   1.877   4.289   7.234 -0.3632 -0.7402  1.3318
  141OSM   C11S15435   1.927   4.101   7.332  0.1106 -0.2189  0.4803
  141OSM   H11S15436   2.037   4.110   7.326  0.2733 -2.8144 -0.8067
  141OSM   H11T15437   1.898   3.995   7.319 -1.0649  0.2163 -0.6184
  141OSM   C12S15438   1.881   4.157   7.468  0.0885  0.3415 -0.5928
  141OSM   H12S15439   1.771   4.157   7.460  0.1637  2.2077 -2.0273
  141OSM   H12T15440   1.919   4.260   7.483  0.0871 -0.0852  2.6401
  141OSM   C13S15441   1.916   4.067   7.585 -0.5705 -0.3600 -0.5856
  141OSM   H13S15442   2.025   4.049   7.579 -0.6194 -0.8023 -0.1881
  141OSM   H13T15443   1.865   3.969   7.579  1.9507 -1.8171  1.0924
  141OSM   C14S15444   1.880   4.146   7.719 -1.1282 -0.0890  0.2934
  141OSM   H14S15445   1.771   4.163   7.717 -1.2245 -0.8270 -1.4012
  141OSM   H14T15446   1.927   4.245   7.737 -0.7948 -0.3611  0.9627
  141OSM   C15S15447   1.909   4.047   7.841 -0.2149  0.3236  0.3810
  141OSM   H15S15448   2.011   4.004   7.838  0.3074  1.5880  0.0129
  141OSM   H15T15449   1.842   3.959   7.825 -0.2957  0.4325  0.1186
  141OSM   C16S15450   1.892   4.117   7.979 -0.1906  0.0327  0.3380
  141OSM   H16S15451   1.788   4.154   7.986  0.1637  1.3299 -0.8723
  141OSM   H16T15452   1.950   4.211   7.974 -0.0433 -0.0525  0.4579
  141OSM   C17S15453   1.928   4.030   8.102 -0.0543 -0.5216 -0.1362
  141OSM   H17S15454   2.034   4.004   8.081  0.4708  0.1602  1.5526
  141OSM   H17T15455   1.875   3.933   8.109 -0.5885 -0.0684  2.4884
  141OSM   C18S15456   1.916   4.112   8.229 -0.1804  0.3352  0.2604
  141OSM   H18S15457   1.808   4.126   8.251 -0.4401 -0.2315 -0.6815
  141OSM   H18T15458   1.953   4.217   8.222 -1.7850  0.8494 -0.5469
  141OSM   H18U15459   1.966   4.060   8.314  1.4643 -0.6303 -1.2675
  141OSM    C1F15460   2.685   4.064   6.608 -0.6270  0.0117 -0.0207
  141OSM     OF15461   2.691   4.143   6.512 -0.6711 -0.4409 -0.2471
  141OSM    C2F15462   2.789   4.036   6.705  0.3259 -0.3350 -0.7100
  141OSM    H2F15463   2.837   3.938   6.682  1.4469  0.2271 -0.7713
  141OSM    H2G15464   2.739   4.021   6.803  0.5518 -1.7495 -0.7880
  141OSM    C3F15465   2.894   4.144   6.717  0.1578  0.3020 -0.1164
  141OSM    H3F15466   2.844   4.243   6.720 -1.5057 -0.3459 -3.9050
  141OSM    H3G15467   2.953   4.139   6.623 -2.0320 -0.0271 -1.5044
  141OSM    C4F15468   2.986   4.116   6.835  0.1958  0.7781 -0.7867
  141OSM    H4F15469   3.075   4.182   6.838  2.6863 -2.4446 -0.8890
  141OSM    H4G15470   3.032   4.016   6.853 -0.8233  0.6127  1.0880
  141OSM    C5F15471   2.901   4.156   6.958 -0.2189  0.5844 -0.1087
  141OSM    H5F15472   2.808   4.098   6.976 -0.2282  0.6839  0.1598
  141OSM    H5G15473   2.881   4.265   6.948 -1.9135  0.2191 -0.9185
  141OSM    C6F15474   2.965   4.130   7.091  0.0047 -0.0358  0.3221
  141OSM    H6F15475   3.070   4.165   7.075 -0.7764  1.8885 -0.8323
  141OSM    H6G15476   2.955   4.030   7.137  1.1438 -1.0931 -1.6641
  141OSM    C7F15477   2.899   4.219   7.202  0.4445 -0.0934  0.6407
  141OSM    H7F15478   2.791   4.191   7.209  0.0767  1.2780  0.5025
  141OSM    H7G15479   2.906   4.325   7.171 -0.1126 -0.7734 -1.9407
  141OSM    C8F15480   2.973   4.205   7.331  0.0123 -0.4731 -0.0403
  141OSM    H8F15481   3.003   4.099   7.344 -1.2552 -1.1199 -2.1934
  141OSM    H8G15482   2.894   4.224   7.406 -0.8701  3.9055 -1.9010
  141OSM    C9F15483   3.088   4.303   7.350 -0.8740  0.9252 -0.5961
  141OSM    H9F15484   3.118   4.354   7.258 -0.6476  0.5721 -0.7169
  141OSM   C10F15485   3.164   4.296   7.466 -0.1544 -0.8155  0.7719
  141OSM   H10F15486   3.243   4.371   7.478  0.8308 -2.0448  2.0510
  141OSM   C11F15487   3.136   4.211   7.579  0.0666 -0.6453 -0.4127
  141OSM   H11F15488   3.038   4.158   7.580 -1.0064  1.3240  1.1159
  141OSM   H11G15489   3.132   4.272   7.671  2.7201 -1.9649  0.6455
  141OSM   C12F15490   3.235   4.095   7.609 -0.3178 -0.2756 -0.6773
  141OSM   H12F15491   3.343   4.120   7.611  0.0433 -1.8378 -0.0233
  141OSM   H12G15492   3.226   4.009   7.540  0.8340 -1.9036  1.1367
  141OSM   C13F15493   3.222   4.020   7.744  1.3517 -0.5949 -0.3214
  141OSM   H13F15494   3.140   4.060   7.808 -1.0814 -3.6851 -1.3873
  141OSM   H13G15495   3.321   4.014   7.794  0.6911 -1.4804  0.8966
  141OSM   C14F15496   3.184   3.874   7.736  0.1716 -0.1556  0.4693
  141OSM   H14F15497   3.268   3.824   7.682  0.8439  0.5604  0.8457
  141OSM   H14G15498   3.095   3.860   7.671  0.7867 -1.4607 -0.1167
  141OSM   C15F15499   3.160   3.792   7.861  0.2947  0.3569  0.1627
  141OSM   H15F15500   3.153   3.687   7.827 -0.5704  0.8202 -1.0928
  141OSM   H15G15501   3.067   3.822   7.915  1.3546  2.1426  1.0277
  141OSM   C16F15502   3.284   3.802   7.960  0.0507  0.5112 -1.0169
  141OSM   H16F15503   3.283   3.907   7.994 -1.6344  0.9049 -2.2061
  141OSM   H16G15504   3.380   3.796   7.905 -1.3828 -2.3243 -3.3892
  141OSM   C17F15505   3.261   3.705   8.081  0.4747  0.1757 -0.0255
  141OSM   H17F15506   3.288   3.602   8.049  0.9582 -0.1649  1.4088
  141OSM   H17G15507   3.156   3.709   8.117  0.1873  2.0016 -0.9908
  141OSM   C18F15508   3.345   3.737   8.197 -0.1520  0.9656 -0.4061
  141OSM   H18F15509   3.446   3.771   8.165  0.2197 -1.8333 -2.3612
  141OSM   H18G15510   3.351   3.646   8.260 -1.3363  1.0421 -0.1710
  141OSM   H18H15511   3.314   3.821   8.263  1.4207 -0.0360  1.6974
  142OSM      N15512   3.387   5.397   6.143 -0.2387 -0.1974 -0.1329
  142OSM    C1515513   3.383   5.504   6.038 -0.3115  0.2280  0.2070
  142OSM   H15A15514   3.481   5.550   6.036  0.5923 -1.6626 -0.0338
  142OSM   H15B15515   3.309   5.577   6.067  0.9396  2.3941 -1.8470
  142OSM   H15C15516   3.349   5.458   5.947  0.4314  0.0407  0.0223
  142OSM    C1415517   3.258   5.321   6.156  0.2040 -0.3862  0.1190
  142OSM   H14A15518   3.231   5.288   6.057 -0.5282 -1.3827  0.6387
  142OSM   H14B15519   3.179   5.386   6.192  1.6518  1.7049 -0.3667
  142OSM   H14C15520   3.265   5.231   6.215  3.7516  0.0335  0.4633
  142OSM    C1315521   3.494   5.296   6.114  0.6311 -0.2169 -1.1417
  142OSM   H13A15522   3.583   5.346   6.147 -0.0920  0.7793 -0.6719
  142OSM   H13B15523   3.500   5.270   6.010  1.8383  0.9050 -1.3634
  142OSM   H13C15524   3.470   5.209   6.174 -0.7547  0.5099 -0.6055
  142OSM    C1215525   3.427   5.451   6.282  0.1062 -0.4342  0.3137
  142OSM   H12A15526   3.523   5.500   6.271  0.1339 -0.8260 -1.4472
  142OSM   H12B15527   3.440   5.363   6.343  1.3601 -0.4760  0.0063
  142OSM    C1115528   3.319   5.535   6.354  0.0884  0.1660 -0.4622
  142OSM   H11A15529   3.383   5.587   6.428 -2.0425  0.1118  1.4845
  142OSM   H11B15530   3.245   5.467   6.403 -1.2495  2.2662  0.4796
  142OSM      P15531   3.114   5.677   6.282 -0.2356  0.2646  0.1388
  142OSM    O1315532   3.095   5.812   6.226  0.2322 -0.2163 -0.1876
  142OSM    O1415533   3.028   5.574   6.225 -0.5540 -0.0273  0.1845
  142OSM    O1115534   3.079   5.682   6.439 -0.3707  0.3079  0.1379
  142OSM    O1215535   3.263   5.629   6.261  0.0440 -0.1595 -0.0609
  142OSM    C1S15536   3.137   5.783   6.526 -0.4195 -0.0022 -0.2252
  142OSM    H1S15537   3.125   5.887   6.487 -0.8883  0.3530  0.8598
  142OSM    H1T15538   3.246   5.766   6.538 -0.8811 -2.5373  0.4958
  142OSM     NF15539   3.176   5.870   6.748 -0.1295 -0.1527  0.6192
  142OSM    HNF15540   3.218   5.820   6.823 -0.3824  0.1716  0.9757
  142OSM    C2S15541   3.085   5.791   6.675  0.3893  0.8774  1.2288
  142OSM    H2S15542   2.988   5.846   6.678  2.1011  4.0763  0.2929
  142OSM    C3S15543   3.063   5.656   6.742  0.8206 -0.5671 -0.1533
  142OSM    H3S15544   3.165   5.622   6.767  1.4860  0.6783 -1.1479
  142OSM     O315545   3.025   5.554   6.657 -0.5978 -0.1991  0.2742
  142OSM    HO315546   3.026   5.604   6.575  2.7743 -0.8004 -0.1193
  142OSM    C4S15547   2.981   5.677   6.866 -0.5938  0.5498  0.0004
  142OSM    H4S15548   3.049   5.683   6.952  0.1942 -0.7039 -0.5121
  142OSM    C5S15549   2.846   5.665   6.871 -0.8094 -0.4091 -0.5797
  142OSM    H5S15550   2.797   5.646   6.774 -0.3377 -0.7891 -0.7451
  142OSM    C6S15551   2.753   5.668   6.984 -0.2560  0.4424  0.1042
  142OSM    H6S15552   2.705   5.567   6.991  1.0412 -0.1696  0.3251
  142OSM    H6T15553   2.678   5.748   6.964 -0.2060  0.0063 -1.9561
  142OSM    C7S15554   2.806   5.691   7.123  0.2493 -0.2303 -0.3542
  142OSM    H7S15555   2.884   5.769   7.133 -0.4446  0.6430 -1.6481
  142OSM    H7T15556   2.846   5.595   7.162  2.2986  0.8469  0.2666
  142OSM    C8S15557   2.699   5.748   7.215  0.8350  0.4318  0.4529
  142OSM    H8S15558   2.604   5.691   7.206  2.0959 -1.3535 -2.5026
  142OSM    H8T15559   2.678   5.847   7.170  0.6969 -0.6227 -1.9194
  142OSM    C9S15560   2.751   5.771   7.359  0.5688 -0.2213  0.3153
  142OSM    H9S15561   2.830   5.849   7.353  0.6808 -0.0538  3.1425
  142OSM    H9T15562   2.796   5.677   7.396 -2.2451 -1.0971  1.6744
  142OSM   C10S15563   2.652   5.827   7.461  0.1110 -0.4566  0.0155
  142OSM   H10S15564   2.571   5.751   7.458 -0.0708 -0.2610  0.0294
  142OSM   H10T15565   2.609   5.923   7.427 -1.8906 -1.9025 -1.6358
  142OSM   C11S15566   2.706   5.835   7.598 -0.0925  0.2941  0.4939
  142OSM   H11S15567   2.782   5.916   7.602 -0.3282  0.4857  1.2363
  142OSM   H11T15568   2.769   5.746   7.614  2.7274  2.0555 -0.5505
  142OSM   C12S15569   2.601   5.852   7.703  0.1323  0.1302 -0.8675
  142OSM   H12S15570   2.518   5.784   7.675  1.1614 -1.7445  0.5231
  142OSM   H12T15571   2.554   5.953   7.697 -1.4854 -0.5152  0.6915
  142OSM   C13S15572   2.646   5.826   7.847  0.4462 -0.1974  0.5441
  142OSM   H13S15573   2.745   5.873   7.867 -0.2806  1.0701  1.2369
  142OSM   H13T15574   2.665   5.717   7.844  1.4408  0.0046 -3.6149
  142OSM   C14S15575   2.549   5.868   7.960  0.0113 -0.4922  0.8943
  142OSM   H14S15576   2.447   5.825   7.948 -0.2993  0.3348  0.5295
  142OSM   H14T15577   2.544   5.979   7.961 -2.7756 -0.5845  0.4180
  142OSM   C15S15578   2.590   5.835   8.097  0.0581  0.3867 -0.4842
  142OSM   H15S15579   2.682   5.889   8.125  0.3385  0.1162 -0.8758
  142OSM   H15T15580   2.614   5.728   8.118  2.1044  0.6297 -1.5259
  142OSM   C16S15581   2.482   5.883   8.197  0.3278  0.5612  0.2537
  142OSM   H16S15582   2.390   5.824   8.173  0.0359  0.9385  0.4488
  142OSM   H16T15583   2.474   5.993   8.184 -0.9192  0.7336  2.2541
  142OSM   C17S15584   2.504   5.860   8.347 -0.9321 -0.2750 -0.1233
  142OSM   H17S15585   2.608   5.876   8.384 -0.9059 -0.5335 -0.0838
  142OSM   H17T15586   2.487   5.752   8.364  0.1025 -0.4282  0.0009
  142OSM   C18S15587   2.392   5.935   8.421  0.2179 -0.5331 -0.1495
  142OSM   H18S15588   2.391   6.043   8.395 -1.5320 -0.7304 -1.0284
  142OSM   H18T15589   2.390   5.916   8.530 -0.6158 -0.7407 -0.1964
  142OSM   H18U15590   2.288   5.913   8.390  0.2957 -0.2801 -0.6063
  142OSM    C1F15591   3.211   5.997   6.714 -0.1731  0.2555  0.2695
  142OSM     OF15592   3.136   6.070   6.644  0.1378  0.3757  0.2455
  142OSM    C2F15593   3.345   6.052   6.764  0.2295  0.1485 -0.1901
  142OSM    H2F15594   3.407   6.063   6.673  1.1879  0.2800  0.4726
  142OSM    H2G15595   3.383   5.984   6.843  3.9295  3.6330  1.1904
  142OSM    C3F15596   3.332   6.184   6.841 -0.6438  0.0173 -0.6571
  142OSM    H3F15597   3.310   6.270   6.774 -1.7637  0.8862  0.8100
  142OSM    H3G15598   3.435   6.199   6.879 -1.3085 -2.4352  2.2506
  142OSM    C4F15599   3.230   6.174   6.955  0.6376 -0.5212 -0.4250
  142OSM    H4F15600   3.254   6.082   7.013  1.2562 -1.2117 -1.7506
  142OSM    H4G15601   3.135   6.174   6.897  1.1995 -0.3268 -1.3680
  142OSM    C5F15602   3.220   6.291   7.060 -0.3576  0.3649  0.3492
  142OSM    H5F15603   3.198   6.377   6.993 -0.5138 -0.0913 -0.1856
  142OSM    H5G15604   3.325   6.287   7.096 -0.3269 -0.1244  0.2093
  142OSM    C6F15605   3.122   6.282   7.177  0.0584 -0.0803 -0.2580
  142OSM    H6F15606   3.021   6.294   7.132 -0.4893  1.1043  1.2713
  142OSM    H6G15607   3.136   6.370   7.243  0.2251  0.8762 -1.5500
  142OSM    C7F15608   3.111   6.155   7.262  0.0659 -0.7701  0.1471
  142OSM    H7F15609   3.118   6.071   7.189  1.5463 -1.4519  1.0532
  142OSM    H7G15610   3.009   6.163   7.304  1.2475 -0.2439  3.0322
  142OSM    C8F15611   3.222   6.112   7.360 -0.7376 -0.3348 -0.2709
  142OSM    H8F15612   3.228   6.195   7.434  0.4822 -1.0319  0.4211
  142OSM    H8G15613   3.318   6.091   7.308  0.1286 -1.1864  1.6332
  142OSM    C9F15614   3.179   5.990   7.438  0.5218 -0.6175 -0.7180
  142OSM    H9F15615   3.188   5.893   7.387 -1.1387 -0.6016 -1.0712
  142OSM   C10F15616   3.114   5.987   7.553 -0.4678  0.2663 -0.5159
  142OSM   H10F15617   3.073   5.893   7.593 -0.4861  0.2806 -0.5006
  142OSM   C11F15618   3.068   6.114   7.622  0.5396  0.3098  1.1193
  142OSM   H11F15619   2.970   6.095   7.671  1.7444  0.2488  3.6112
  142OSM   H11G15620   3.055   6.206   7.561  1.3362 -0.6382 -0.4955
  142OSM   C12F15621   3.158   6.154   7.737 -0.9240  0.3348 -0.3688
  142OSM   H12F15622   3.120   6.244   7.790  0.1294  2.1210 -2.5678
  142OSM   H12G15623   3.247   6.196   7.685 -1.1822 -1.6226 -2.4823
  142OSM   C13F15624   3.195   6.042   7.832  0.2736  0.7449  0.8683
  142OSM   H13F15625   3.255   5.966   7.779  0.4591 -0.2813  2.4959
  142OSM   H13G15626   3.100   5.989   7.856  0.8906 -0.1130  1.4480
  142OSM   C14F15627   3.265   6.087   7.960 -0.4484  0.7770 -0.4678
  142OSM   H14F15628   3.357   6.145   7.937  0.4970  0.1048  1.5130
  142OSM   H14G15629   3.299   5.999   8.019  0.7464  1.5528  0.0212
  142OSM   C15F15630   3.170   6.161   8.054  0.0004  0.0780 -0.5850
  142OSM   H15F15631   3.068   6.118   8.050 -0.0731  0.2813 -0.9065
  142OSM   H15G15632   3.169   6.263   8.011 -1.6630  0.9442  1.4419
  142OSM   C16F15633   3.208   6.183   8.196 -0.4952  0.5934 -0.4326
  142OSM   H16F15634   3.193   6.094   8.260  0.3032  2.2640  2.1672
  142OSM   H16G15635   3.145   6.262   8.241 -0.3486  1.3226 -1.4819
  142OSM   C17F15636   3.359   6.224   8.213 -0.2276 -0.4196 -0.3472
  142OSM   H17F15637   3.376   6.298   8.132  1.4802 -0.1122  0.2932
  142OSM   H17G15638   3.433   6.151   8.172  0.2989 -0.9213  1.4726
  142OSM   C18F15639   3.392   6.282   8.342 -0.2601  0.1499 -0.8642
  142OSM   H18F15640   3.325   6.363   8.378 -1.8466 -1.2626 -0.5811
  142OSM   H18G15641   3.498   6.317   8.350 -0.3858  0.4870 -0.6074
  142OSM   H18H15642   3.385   6.201   8.418  0.3063 -1.0212 -2.0431
  143OSM      N15643   4.725   0.851   5.888  0.4518 -0.8602  0.7028
  143OSM    C1515644   4.773   0.739   5.803 -0.2808  0.1242 -0.4150
  143OSM   H15A15645   4.878   0.755   5.781  0.0567 -0.5177  0.6711
  143OSM   H15B15646   4.716   0.725   5.713 -1.8966  0.4959  0.5224
  143OSM   H15C15647   4.765   0.648   5.861 -1.0907  1.3940  1.5136
  143OSM    C1415648   4.730   0.978   5.810 -0.4659 -0.6708 -0.0215
  143OSM   H14A15649   4.830   1.009   5.784  0.1745 -0.5189  2.4674
  143OSM   H14B15650   4.688   1.057   5.870 -0.0336 -0.1327 -0.4154
  143OSM   H14C15651   4.662   0.979   5.726  0.1070 -0.8510 -0.4920
  143OSM    C1315652   4.583   0.817   5.901  0.3042 -0.2116  0.1863
  143OSM   H13A15653   4.509   0.838   5.825  0.6377 -2.1974 -0.7154
  143OSM   H13B15654   4.540   0.868   5.986 -0.4635  0.4478 -0.5974
  143OSM   H13C15655   4.569   0.712   5.923  0.0003 -0.0103  0.9645
  143OSM    C1215656   4.804   0.862   6.020  0.1066  0.3944  0.2596
  143OSM   H12A15657   4.905   0.878   5.986  0.3219  3.6797  2.2103
  143OSM   H12B15658   4.804   0.772   6.080 -1.4023 -0.0469 -0.3747
  143OSM    C1115659   4.774   0.976   6.119 -0.0291 -0.0743  0.0841
  143OSM   H11A15660   4.773   1.066   6.054 -0.5788 -0.9760 -1.1712
  143OSM   H11B15661   4.857   0.992   6.191  0.4395  1.0009 -0.6817
  143OSM      P15662   4.633   0.827   6.280  0.3837 -0.5090  0.2886
  143OSM    O1315663   4.491   0.807   6.305  0.3407  0.4580  0.2361
  143OSM    O1415664   4.704   0.706   6.231 -0.0985  0.4923  0.1506
  143OSM    O1115665   4.701   0.882   6.420 -0.0079 -0.2610  0.2644
  143OSM    O1215666   4.644   0.952   6.175  0.3909  0.1378 -0.0903
  143OSM    C1S15667   4.707   1.023   6.444 -0.3727  0.3031  0.4634
  143OSM    H1S15668   4.640   1.089   6.386 -0.1874  2.6791  2.8815
  143OSM    H1T15669   4.815   1.044   6.431 -0.5152  0.7943  0.0473
  143OSM     NF15670   4.690   1.202   6.599  0.2767  0.7080 -0.3879
  143OSM    HNF15671   4.783   1.220   6.631  0.7165  0.1135 -1.3058
  143OSM    C2S15672   4.670   1.064   6.590 -0.3269  0.1072  0.4876
  143OSM    H2S15673   4.564   1.038   6.606 -0.1983 -0.2359  0.7955
  143OSM    C3S15674   4.757   0.975   6.693 -0.6306 -0.7590  0.3360
  143OSM    H3S15675   4.865   0.996   6.677 -0.9497  0.1432 -0.8032
  143OSM     O315676   4.759   0.830   6.685 -0.3343 -0.0961  0.2942
  143OSM    HO315677   4.733   0.802   6.597  0.1312  0.1324  0.0835
  143OSM    C4S15678   4.701   1.017   6.829 -0.3073  0.4446  0.2669
  143OSM    H4S15679   4.592   1.026   6.842 -0.2101 -0.4495  1.9433
  143OSM    C5S15680   4.785   1.071   6.926 -0.1673  0.6257 -0.2689
  143OSM    H5S15681   4.888   1.083   6.888 -0.6178  0.5780 -1.5532
  143OSM    C6S15682   4.746   1.128   7.055 -0.1704 -0.4645 -0.7425
  143OSM    H6S15683   4.636   1.121   7.070 -0.2882  1.5809 -0.4412
  143OSM    H6T15684   4.763   1.238   7.047  1.5420 -0.7100 -0.6923
  143OSM    C7S15685   4.830   1.086   7.174 -0.4735  0.0407 -0.1956
  143OSM    H7S15686   4.928   1.137   7.186 -0.0460 -1.4157  2.9860
  143OSM    H7T15687   4.845   0.976   7.179  0.8873  0.3083  3.9775
  143OSM    C8S15688   4.754   1.099   7.309  0.0769  0.0291 -0.2741
  143OSM    H8S15689   4.652   1.059   7.295  1.3434 -3.4280 -0.0150
  143OSM    H8T15690   4.734   1.205   7.336 -0.4935  0.0385 -0.7235
  143OSM    C9S15691   4.828   1.015   7.415 -0.3460  0.2403  0.2983
  143OSM    H9S15692   4.922   1.071   7.432  0.7447 -1.8503  1.3042
  143OSM    H9T15693   4.837   0.912   7.375  0.3714  1.1255 -1.8976
  143OSM   C10S15694   4.742   1.005   7.545 -0.2100  0.2070  0.2943
  143OSM   H10S15695   4.642   0.962   7.527 -0.7118  1.7348 -0.6459
  143OSM   H10T15696   4.718   1.106   7.583 -0.0594  0.3190  0.0951
  143OSM   C11S15697   4.813   0.909   7.639  0.1551  0.3419 -0.7201
  143OSM   H11S15698   4.902   0.951   7.690  1.5133 -1.5340 -1.4652
  143OSM   H11T15699   4.855   0.817   7.592 -2.2924 -2.2434  1.9385
  143OSM   C12S15700   4.718   0.869   7.752 -0.3128 -0.1417  0.4648
  143OSM   H12S15701   4.631   0.812   7.712 -1.2168  0.6382  1.2921
  143OSM   H12T15702   4.668   0.961   7.787  2.0134  1.5982 -0.6217
  143OSM   C13S15703   4.770   0.785   7.869 -0.4717  0.2016 -0.4676
  143OSM   H13S15704   4.827   0.851   7.938  0.5912 -1.1820 -0.0068
  143OSM   H13T15705   4.830   0.703   7.825 -1.2423  0.4119 -1.9419
  143OSM   C14S15706   4.659   0.717   7.963 -0.0561  0.3160  0.9666
  143OSM   H14S15707   4.710   0.665   8.046  0.2777 -2.0291 -0.6527
  143OSM   H14T15708   4.603   0.638   7.909  2.2810 -0.8768  0.2415
  143OSM   C15S15709   4.557   0.805   8.023  1.1751  0.3411 -0.0654
  143OSM   H15S15710   4.500   0.864   7.948 -1.4145 -1.3515  0.4661
  143OSM   H15T15711   4.610   0.888   8.073  0.3408  0.2124  1.0657
  143OSM   C16S15712   4.461   0.752   8.132 -0.1684  0.4697  0.1411
  143OSM   H16S15713   4.519   0.695   8.208 -2.8454 -0.1682  1.7813
  143OSM   H16T15714   4.385   0.676   8.103  1.4956 -2.3683  2.8741
  143OSM   C17S15715   4.395   0.870   8.217 -0.0863 -0.5542  0.4273
  143OSM   H17S15716   4.339   0.945   8.158  2.2191  0.7989 -0.1096
  143OSM   H17T15717   4.481   0.928   8.257  0.5741 -1.0561 -0.2433
  143OSM   C18S15718   4.302   0.812   8.324  0.2300 -0.1898 -0.0623
  143OSM   H18S15719   4.257   0.894   8.385 -2.0585 -2.2877  1.1876
  143OSM   H18T15720   4.356   0.744   8.394  1.1844  0.3851 -0.2340
  143OSM   H18U15721   4.214   0.766   8.273 -1.1847  2.4613 -0.0910
  143OSM    C1F15722   4.611   1.293   6.552 -0.0307  0.4358  0.0664
  143OSM     OF15723   4.506   1.263   6.501  0.4657 -0.8343 -0.1857
  143OSM    C2F15724   4.652   1.444   6.561 -0.4950  0.6534  0.6525
  143OSM    H2F15725   4.565   1.494   6.513 -0.0088 -1.5165 -2.6199
  143OSM    H2G15726   4.741   1.458   6.496 -1.3865  0.5963 -0.6037
  143OSM    C3F15727   4.684   1.495   6.705  0.2466 -0.5938  0.3043
  143OSM    H3F15728   4.781   1.458   6.745  1.3524 -0.4416 -2.1716
  143OSM    H3G15729   4.609   1.451   6.774  2.2138 -0.7257  2.4096
  143OSM    C4F15730   4.673   1.650   6.697 -0.3389 -0.3929  0.1634
  143OSM    H4F15731   4.574   1.698   6.678  0.1934  0.2916 -0.9185
  143OSM    H4G15732   4.738   1.677   6.611 -1.0414  2.9585  0.6023
  143OSM    C5F15733   4.736   1.725   6.824 -0.2001  0.3854 -0.4446
  143OSM    H5F15734   4.766   1.828   6.792 -2.0796  1.1742  0.2405
  143OSM    H5G15735   4.830   1.675   6.854 -0.3487 -0.3418 -1.1952
  143OSM    C6F15736   4.638   1.743   6.939  0.0320  0.4864  0.2191
  143OSM    H6F15737   4.605   1.642   6.970  0.5748  0.3771  0.4483
  143OSM    H6G15738   4.546   1.792   6.900  1.1144  0.7455 -2.0924
  143OSM    C7F15739   4.704   1.804   7.063  0.7706 -0.0351  0.0174
  143OSM    H7F15740   4.737   1.903   7.027 -1.4331  0.1238 -1.6748
  143OSM    H7G15741   4.793   1.748   7.099 -0.4307 -1.1473  1.3286
  143OSM    C8F15742   4.610   1.826   7.184  0.4023  0.4029  0.0193
  143OSM    H8F15743   4.523   1.879   7.139 -0.1061  0.2578  0.8199
  143OSM    H8G15744   4.665   1.908   7.235  3.1140 -1.3554  0.0212
  143OSM    C9F15745   4.574   1.695   7.257  0.4034  0.2858 -0.2177
  143OSM    H9F15746   4.564   1.612   7.185  1.9250 -1.9094  2.0130
  143OSM   C10F15747   4.596   1.663   7.386  0.4613 -0.4222 -0.5167
  143OSM   H10F15748   4.556   1.568   7.425  1.5923 -0.9260 -0.5635
  143OSM   C11F15749   4.655   1.754   7.495 -0.3716  0.3371 -0.4313
  143OSM   H11F15750   4.611   1.853   7.470  2.7368  0.9286 -3.8953
  143OSM   H11G15751   4.766   1.762   7.489 -0.4999  1.8124 -0.9747
  143OSM   C12F15752   4.611   1.717   7.646 -1.0750  0.1702 -0.8284
  143OSM   H12F15753   4.658   1.799   7.705  0.4386 -0.8083 -0.6240
  143OSM   H12G15754   4.656   1.623   7.686 -1.3949  1.3067  2.3417
  143OSM   C13F15755   4.463   1.702   7.686 -0.1529  0.3571  0.3180
  143OSM   H13F15756   4.412   1.636   7.612 -2.0150  2.2639 -0.1349
  143OSM   H13G15757   4.412   1.800   7.676 -0.7670 -0.0512 -0.7406
  143OSM   C14F15758   4.441   1.653   7.830 -0.4475  0.0667  0.1572
  143OSM   H14F15759   4.480   1.554   7.859  1.3116  0.7319  0.0917
  143OSM   H14G15760   4.331   1.643   7.840 -0.0939 -3.6353  0.8632
  143OSM   C15F15761   4.498   1.759   7.927  0.5036 -0.1828 -0.6385
  143OSM   H15F15762   4.455   1.858   7.899 -0.5879 -0.2867  0.6047
  143OSM   H15G15763   4.607   1.773   7.912  0.5875  2.5973  2.1207
  143OSM   C16F15764   4.486   1.725   8.076  0.1962 -0.7838  0.5170
  143OSM   H16F15765   4.525   1.625   8.104 -2.3315 -1.9194  0.0802
  143OSM   H16G15766   4.376   1.727   8.092  0.3707 -1.0849  1.8445
  143OSM   C17F15767   4.561   1.836   8.170 -0.3261  0.0573 -0.5575
  143OSM   H17F15768   4.505   1.932   8.161 -0.6591  0.1904  2.2329
  143OSM   H17G15769   4.669   1.837   8.146 -0.2230 -4.0536 -0.5578
  143OSM   C18F15770   4.564   1.788   8.319 -0.3091  0.7769 -0.4267
  143OSM   H18F15771   4.463   1.768   8.360  1.0794 -2.3236  1.6543
  143OSM   H18G15772   4.627   1.854   8.384 -3.3267  1.3016  2.0909
  143OSM   H18H15773   4.609   1.687   8.327  1.7004  1.6917  0.2791
  144OSM      N15774   3.311   0.504   6.174 -0.3183 -0.3747  0.2015
  144OSM    C1515775   3.323   0.620   6.080 -0.4289 -0.0037  0.2011
  144OSM   H15A15776   3.266   0.705   6.114 -1.1567  0.3412 -1.7704
  144OSM   H15B15777   3.306   0.606   5.974  3.5783  0.5151 -0.5807
  144OSM   H15C15778   3.424   0.657   6.087 -0.5560  0.6443 -1.1173
  144OSM    C1415779   3.178   0.444   6.155 -0.2017 -0.1947  0.6688
  144OSM   H14A15780   3.099   0.502   6.201  0.2591 -0.0253  1.2469
  144OSM   H14B15781   3.175   0.347   6.202  3.1161 -1.5703 -1.7805
  144OSM   H14C15782   3.149   0.437   6.051 -0.1156  0.2697  0.6146
  144OSM    C1315783   3.416   0.404   6.134  0.3029  0.3545 -0.0668
  144OSM   H13A15784   3.408   0.321   6.203 -0.0548  1.0312  0.6994
  144OSM   H13B15785   3.517   0.442   6.142  0.2641 -0.1123  3.1715
  144OSM   H13C15786   3.402   0.383   6.028  0.9236  0.7177 -0.2254
  144OSM    C1215787   3.338   0.543   6.321 -0.7923  0.7109 -0.9001
  144OSM   H12A15788   3.442   0.573   6.320 -0.2048 -1.2943 -1.7407
  144OSM   H12B15789   3.333   0.451   6.378  2.7356  1.5555  0.9077
  144OSM    C1115790   3.255   0.650   6.385  0.5311  0.0685  0.5303
  144OSM   H11A15791   3.275   0.645   6.494 -1.3814 -1.0751  0.8485
  144OSM   H11B15792   3.151   0.627   6.355 -0.3811  1.9013  2.1629
  144OSM      P15793   3.203   0.893   6.374 -0.2944  0.5213 -0.5577
  144OSM    O1315794   3.246   1.020   6.304  0.7821 -0.1115 -0.5582
  144OSM    O1415795   3.064   0.846   6.357 -0.0471  0.3607  0.3404
  144OSM    O1115796   3.236   0.893   6.535 -0.2822 -0.1895  0.3410
  144OSM    O1215797   3.298   0.781   6.336  0.2385 -0.4298  0.1804
  144OSM    C1S15798   3.275   1.009   6.601  0.1118  0.1638 -0.0519
  144OSM    H1S15799   3.183   1.070   6.612  0.2675  0.3200  0.3997
  144OSM    H1T15800   3.362   1.056   6.550  2.1610  0.5288  3.6013
  144OSM     NF15801   3.345   1.111   6.830  0.1535 -0.1279  0.3871
  144OSM    HNF15802   3.430   1.154   6.860 -0.6562  2.5650 -1.0179
  144OSM    C2S15803   3.335   0.987   6.750 -0.0298 -0.3124  0.6979
  144OSM    H2S15804   3.266   0.923   6.810  0.4829 -1.0864  0.4822
  144OSM    C3S15805   3.482   0.911   6.735  0.0604 -0.0182 -0.0995
  144OSM    H3S15806   3.538   0.991   6.683  1.1573 -1.5145 -1.2331
  144OSM     O315807   3.476   0.801   6.639 -0.0319 -0.3512 -1.1398
  144OSM    HO315808   3.386   0.811   6.607 -0.6855  1.8682  1.2235
  144OSM    C4S15809   3.558   0.880   6.860 -0.2542  0.3311  0.0620
  144OSM    H4S15810   3.633   0.949   6.902  0.5852 -1.9863  2.5998
  144OSM    C5S15811   3.567   0.757   6.923 -0.0084 -0.5761 -0.2639
  144OSM    H5S15812   3.521   0.675   6.867 -0.0731  1.1631 -2.8678
  144OSM    C6S15813   3.639   0.704   7.048  0.2232 -0.5776 -0.2099
  144OSM    H6S15814   3.709   0.624   7.017  0.4860 -0.2596 -0.4365
  144OSM    H6T15815   3.561   0.670   7.120 -2.9018  0.7493 -2.8360
  144OSM    C7S15816   3.725   0.807   7.129  0.0153  0.8469  0.5657
  144OSM    H7S15817   3.660   0.891   7.162 -1.5384  0.2790 -0.9862
  144OSM    H7T15818   3.809   0.840   7.065  1.2937 -1.7817  0.7913
  144OSM    C8S15819   3.782   0.730   7.253  0.5673  0.2745 -0.0195
  144OSM    H8S15820   3.827   0.639   7.207  1.6517  0.7758  0.0246
  144OSM    H8T15821   3.704   0.720   7.331  2.3682 -0.4646  1.7317
  144OSM    C9S15822   3.883   0.814   7.326  0.2918 -0.2431  0.2584
  144OSM    H9S15823   3.828   0.897   7.377 -0.1415 -1.1579  1.3046
  144OSM    H9T15824   3.969   0.848   7.265 -0.9273 -1.1521 -2.0036
  144OSM   C10S15825   3.940   0.727   7.437 -0.0371  0.4694 -0.4355
  144OSM   H10S15826   4.020   0.665   7.388 -1.7399 -1.9773 -0.2207
  144OSM   H10T15827   3.881   0.647   7.487  1.5463 -0.1887  0.4217
  144OSM   C11S15828   4.012   0.810   7.537 -1.4976 -0.3003 -0.3842
  144OSM   H11S15829   4.070   0.896   7.496 -1.2001  0.6152  1.8838
  144OSM   H11T15830   4.089   0.747   7.587  0.4134  1.8538 -0.5108
  144OSM   C12S15831   3.919   0.855   7.653  0.2031 -0.2433  0.0814
  144OSM   H12S15832   3.881   0.765   7.707 -0.7778  0.5542  0.7280
  144OSM   H12T15833   3.827   0.907   7.619  0.6820  0.9075  0.5426
  144OSM   C13S15834   3.992   0.933   7.758 -0.2295 -0.0891 -0.2232
  144OSM   H13S15835   3.983   1.043   7.745  2.0025 -0.0007 -1.1307
  144OSM   H13T15836   4.100   0.911   7.761 -0.2358 -0.2840 -1.3057
  144OSM   C14S15837   3.927   0.898   7.893 -0.3653  0.3100 -0.8645
  144OSM   H14S15838   3.916   0.788   7.906  0.1812  0.4029  0.4681
  144OSM   H14T15839   3.824   0.939   7.884 -0.3913  1.0302  2.0358
  144OSM   C15S15840   3.997   0.964   8.012  0.0211  0.5637  0.3800
  144OSM   H15S15841   4.097   0.918   8.030  0.3542  1.5613  1.0908
  144OSM   H15T15842   3.929   0.941   8.096 -1.8256 -0.1304 -1.2660
  144OSM   C16S15843   4.007   1.119   8.000 -0.4281 -0.1603  0.7330
  144OSM   H16S15844   3.919   1.161   7.947  0.4401  0.3000 -0.3576
  144OSM   H16T15845   4.097   1.143   7.940 -0.9772  1.6273  0.6012
  144OSM   C17S15846   4.022   1.196   8.131  0.1172 -0.2068 -0.1978
  144OSM   H17S15847   4.117   1.161   8.178  0.2840 -0.9635 -1.0706
  144OSM   H17T15848   3.931   1.176   8.191  1.0965 -1.6558  0.8421
  144OSM   C18S15849   4.036   1.344   8.116  0.2622 -0.0718 -0.5414
  144OSM   H18S15850   4.091   1.359   8.020 -2.0066 -0.9051 -2.0192
  144OSM   H18T15851   4.108   1.371   8.196 -0.0384  0.9958 -0.6256
  144OSM   H18U15852   3.946   1.410   8.120 -0.2883 -0.9266  1.7839
  144OSM    C1F15853   3.239   1.180   6.858 -0.0320  0.5130  0.1545
  144OSM     OF15854   3.123   1.136   6.829 -0.1161  0.0821  0.1454
  144OSM    C2F15855   3.268   1.305   6.930 -0.2758  0.0352 -0.6743
  144OSM    H2F15856   3.338   1.375   6.879  1.2949  0.7613  2.3303
  144OSM    H2G15857   3.327   1.265   7.016 -1.6330  0.0183  0.2537
  144OSM    C3F15858   3.136   1.376   6.979  0.7833 -0.2269  0.5687
  144OSM    H3F15859   3.084   1.295   7.033  2.9400 -2.0225  0.0210
  144OSM    H3G15860   3.083   1.396   6.883  2.9871  0.1953 -0.6121
  144OSM    C4F15861   3.160   1.513   7.045  0.5339 -0.9844 -0.2990
  144OSM    H4F15862   3.068   1.574   7.056 -0.3797 -2.0418 -1.9108
  144OSM    H4G15863   3.215   1.584   6.980 -1.9106  1.7916  0.5806
  144OSM    C5F15864   3.223   1.507   7.183 -0.5420 -0.3780 -0.8494
  144OSM    H5F15865   3.271   1.603   7.212  3.5859 -1.9452 -2.0898
  144OSM    H5G15866   3.298   1.426   7.193  1.6392  1.6379 -0.5007
  144OSM    C6F15867   3.108   1.497   7.290 -0.6795 -0.1772  0.3417
  144OSM    H6F15868   3.059   1.398   7.284  1.4945 -1.3116  0.9193
  144OSM    H6G15869   3.027   1.571   7.272  0.3524  0.8178 -0.3044
  144OSM    C7F15870   3.162   1.526   7.437 -0.3933 -0.0495  0.2654
  144OSM    H7F15871   3.215   1.621   7.417 -0.6157 -0.2913 -1.5676
  144OSM    H7G15872   3.238   1.450   7.465 -0.1781  0.0586 -0.0301
  144OSM    C8F15873   3.055   1.534   7.544 -0.0714 -0.0424  0.5875
  144OSM    H8F15874   2.975   1.457   7.537  2.3450 -2.4753 -0.8990
  144OSM    H8G15875   2.998   1.626   7.517 -0.5207 -0.5451 -0.1767
  144OSM    C9F15876   3.103   1.532   7.690 -0.1846 -0.5087 -0.0330
  144OSM    H9F15877   3.126   1.634   7.724  0.6358 -1.2632  1.7281
  144OSM   C10F15878   3.121   1.429   7.773  0.2596  0.1928  1.2416
  144OSM   H10F15879   3.162   1.459   7.871  1.1487  1.2708  0.5466
  144OSM   C11F15880   3.097   1.279   7.745 -0.0849 -0.2920  0.2313
  144OSM   H11F15881   3.191   1.240   7.699 -0.0992  0.6863 -0.6426
  144OSM   H11G15882   3.016   1.273   7.670 -0.1706 -0.8300  0.3662
  144OSM   C12F15883   3.055   1.194   7.863  0.2174 -0.3970 -0.0460
  144OSM   H12F15884   3.049   1.090   7.826 -1.4185  0.0370 -1.0829
  144OSM   H12G15885   2.955   1.231   7.895  0.6385 -0.1115  0.9756
  144OSM   C13F15886   3.153   1.200   7.985 -0.1244 -0.4962 -0.1536
  144OSM   H13F15887   3.140   1.297   8.038 -0.2272 -0.6862  0.1687
  144OSM   H13G15888   3.256   1.178   7.950  0.4980 -1.0561  1.9765
  144OSM   C14F15889   3.107   1.097   8.085 -0.0299 -0.2732 -0.0457
  144OSM   H14F15890   3.080   1.003   8.032 -0.1114  0.3676 -1.1364
  144OSM   H14G15891   3.016   1.124   8.144 -0.2897  0.3105 -0.7037
  144OSM   C15F15892   3.215   1.066   8.191 -0.0844  0.1383  0.1439
  144OSM   H15F15893   3.252   1.166   8.221 -1.0281  0.1804  1.1853
  144OSM   H15G15894   3.300   1.014   8.143 -0.0413  0.4366 -0.1035
  144OSM   C16F15895   3.151   0.992   8.309 -0.1192 -0.4562 -0.3609
  144OSM   H16F15896   3.111   0.900   8.262 -0.3564 -1.4414  1.7051
  144OSM   H16G15897   3.080   1.061   8.360  0.3836  1.5016 -2.2280
  144OSM   C17F15898   3.257   0.940   8.406 -0.8224  0.5478  0.6072
  144OSM   H17F15899   3.311   1.032   8.440  0.5105  0.0017  0.0244
  144OSM   H17G15900   3.332   0.878   8.352 -2.1149  0.3814 -1.0314
  144OSM   C18F15901   3.190   0.863   8.518 -0.5095 -0.1222 -0.1063
  144OSM   H18F15902   3.124   0.781   8.481 -1.3648  1.1427 -1.4052
  144OSM   H18G15903   3.132   0.932   8.582  1.1196 -0.1391  1.4347
  144OSM   H18H15904   3.259   0.815   8.591 -2.6734 -1.1426  1.3215
  145SAPE     N15905   2.318   1.398  10.898  0.1971 -0.9525  1.2588
  145SAPE   HN115906   2.215   1.396  10.913 -0.1403  2.2804 -0.1437
  145SAPE   HN215907   2.338   1.308  10.851 -0.7546 -0.1996 -0.6445
  145SAPE   HN315908   2.352   1.390  10.996 -0.1351  2.9919  1.7919
  145SAPE   C1215909   2.350   1.521  10.823  0.3192  0.3333  0.1481
  145SAPE  H12A15910   2.460   1.533  10.820  0.2018  2.2610  2.3085
  145SAPE  H12B15911   2.296   1.604  10.874 -0.8531 -1.4859  1.9583
  145SAPE   C1115912   2.308   1.505  10.679  0.4680 -0.0891 -0.0712
  145SAPE  H11A15913   2.362   1.420  10.632 -1.6981 -0.5209 -1.8884
  145SAPE  H11B15914   2.328   1.591  10.613  1.4293 -1.5326 -1.7032
  145SAPE     P15915   2.097   1.361  10.592  0.1544 -0.1053  0.0744
  145SAPE   O1315916   2.165   1.238  10.637 -0.2176 -0.0375 -0.1024
  145SAPE   O1415917   1.952   1.372  10.616  0.0758 -0.3965 -0.2689
  145SAPE   O1215918   2.166   1.481  10.670  0.0315 -0.2092 -0.0455
  145SAPE   O1115919   2.142   1.392  10.442 -0.1598 -0.2351  0.4381
  145SAPE    C115920   2.054   1.411  10.333 -0.6650 -0.3588 -0.7675
  145SAPE    HA15921   2.106   1.378  10.241  0.1283 -2.3546  0.3739
  145SAPE    HB15922   1.960   1.353  10.323 -1.2677  0.9153 -2.8580
  145SAPE    C215923   2.004   1.557  10.325  0.4853  0.9956  0.0923
  145SAPE    HS15924   1.963   1.577  10.426  1.0902 -1.0798  0.7686
  145SAPE   O2115925   1.899   1.561  10.226 -0.0868  0.1649 -0.1086
  145SAPE   C2115926   1.844   1.679  10.219  0.5087 -0.2065 -0.2861
  145SAPE   O2215927   1.864   1.778  10.282  0.5927 -0.3947 -0.1262
  145SAPE   C2215928   1.731   1.667  10.121  0.5483 -0.0148 -0.3640
  145SAPE   H2R15929   1.773   1.670  10.018  0.8521  1.3866 -0.2024
  145SAPE   H2S15930   1.687   1.568  10.147  1.8985  0.0644  2.4465
  145SAPE    C315931   2.129   1.652  10.294 -0.8378  0.2061  0.4583
  145SAPE    HX15932   2.213   1.620  10.360 -0.1836  0.1756 -0.3873
  145SAPE    HY15933   2.107   1.760  10.308  1.1350  0.5037  1.3820
  145SAPE   O3115934   2.172   1.620  10.152  0.0449 -0.4768  0.2509
  145SAPE   C3115935   2.283   1.668  10.113  0.3501  0.3352  1.2759
  145SAPE   O3215936   2.359   1.740  10.175 -0.7474 -0.4628 -0.0393
  145SAPE   C3215937   2.326   1.625   9.972 -0.3091 -0.1070  0.7277
  145SAPE   H2X15938   2.435   1.607   9.984 -0.4823 -1.6324  0.0717
  145SAPE   H2Y15939   2.310   1.709   9.900  1.2318 -1.5327 -1.3427
  145SAPE   C2315940   1.620   1.768  10.131 -0.1241 -0.4811 -0.0315
  145SAPE   H3R15941   1.649   1.872  10.105  0.5796 -1.0344 -1.5446
  145SAPE   H3S15942   1.584   1.759  10.236 -0.8996  0.8023 -0.1757
  145SAPE   C2415943   1.507   1.723  10.038  0.0797 -0.3562 -0.6204
  145SAPE   H4R15944   1.475   1.628  10.085  0.3697  0.1345  0.5818
  145SAPE   H4S15945   1.545   1.708   9.934 -0.0011  0.1203 -0.7188
  145SAPE   C2515946   1.402   1.827  10.051  0.0531 -0.3177 -0.5749
  145SAPE   H5R15947   1.356   1.825  10.151  0.3813 -1.0322 -0.4365
  145SAPE   C2615948   1.352   1.909   9.958 -0.0899 -0.2059 -0.0190
  145SAPE   H6R15949   1.274   1.978   9.993 -0.7436 -0.0439 -1.7651
  145SAPE   C2715950   1.392   1.916   9.814  0.0474  0.5512  0.0411
  145SAPE   H7R15951   1.375   1.824   9.753  0.6792  0.8555 -0.6115
  145SAPE   H7S15952   1.502   1.936   9.816  0.1962  0.0953 -1.8539
  145SAPE   C2815953   1.324   2.033   9.748  0.3009 -0.2396 -0.7587
  145SAPE   H8R15954   1.216   2.030   9.729  0.1852  0.2431 -0.1790
  145SAPE   C2915955   1.386   2.131   9.670  0.5486 -0.2308 -0.8840
  145SAPE   H9R15956   1.326   2.212   9.628 -1.1886 -0.8514  0.2984
  145SAPE  C21015957   1.533   2.142   9.647 -1.1982 -0.2987 -0.5774
  145SAPE  H10R15958   1.544   2.117   9.539 -0.2599 -0.0852 -0.5414
  145SAPE  H10S15959   1.594   2.064   9.697 -1.4054  0.7912  1.4362
  145SAPE  C21115960   1.592   2.271   9.685  0.3490  0.4896  0.0201
  145SAPE  H11R15961   1.597   2.279   9.794 -0.2068 -2.3005  0.2890
  145SAPE  C21215962   1.639   2.367   9.606  0.2893  0.5350 -0.0110
  145SAPE  H12R15963   1.691   2.454   9.650  3.4441 -0.3830 -1.7733
  145SAPE  C21315964   1.635   2.368   9.454  0.0501 -0.1381 -0.3358
  145SAPE  H13R15965   1.560   2.441   9.418  0.4670  0.3231 -0.2658
  145SAPE  H13S15966   1.613   2.265   9.418 -1.2309 -0.5561  1.5862
  145SAPE  C21415967   1.769   2.387   9.390  0.2629 -0.1072 -0.1284
  145SAPE  H14R15968   1.778   2.489   9.349 -2.1646 -0.0722 -0.6425
  145SAPE  C21515969   1.880   2.305   9.393 -0.5419  0.2898  0.0614
  145SAPE  H15R15970   1.966   2.337   9.332 -0.0564  1.0620  1.1348
  145SAPE  C21615971   1.886   2.166   9.448  0.2318  0.1018  0.1773
  145SAPE  H16R15972   1.787   2.126   9.479 -1.2964  0.6755 -3.7021
  145SAPE  H16S15973   1.954   2.177   9.535  1.7410  0.8110 -1.0751
  145SAPE  C21715974   1.935   2.078   9.329 -0.1444 -0.3940  0.1149
  145SAPE  H17R15975   1.879   2.094   9.235  1.4109 -0.5858 -0.8588
  145SAPE  H17S15976   1.915   1.970   9.346  1.3802 -0.9211 -1.3201
  145SAPE  C21815977   2.085   2.090   9.293 -0.1265  0.3247 -0.1654
  145SAPE  H18R15978   2.132   2.087   9.393 -0.0510 -0.0568 -0.2102
  145SAPE  H18S15979   2.105   2.188   9.244  1.1133  0.2096  0.1046
  145SAPE  C21915980   2.138   1.983   9.199 -0.2976 -0.4167 -0.3264
  145SAPE  H19R15981   2.075   1.892   9.191 -2.1069  0.8695 -0.9372
  145SAPE  H19S15982   2.233   1.950   9.247 -0.0453 -0.8566 -1.1180
  145SAPE  C22015983   2.142   2.029   9.056  0.3215  0.6920 -0.3410
  145SAPE  H20R15984   2.178   1.956   8.982  1.2527  0.0481  0.7357
  145SAPE  H20S15985   2.197   2.125   9.050  1.2632  0.1639 -0.1656
  145SAPE  H20T15986   2.037   2.054   9.030  0.5845  0.8352 -1.2593
  145SAPE   C3315987   2.261   1.489   9.920  0.1151  0.2862  0.2692
  145SAPE   H3X15988   2.153   1.477   9.944 -0.5250  1.2286 -2.0102
  145SAPE   H3Y15989   2.304   1.397   9.967 -1.1466 -0.4110  0.0693
  145SAPE   C3415990   2.292   1.483   9.762 -0.2497  0.1367  0.6765
  145SAPE   H4X15991   2.255   1.573   9.709 -2.6567 -1.2534 -0.0897
  145SAPE   H4Y15992   2.236   1.398   9.717 -0.2757  0.2308  0.5300
  145SAPE   C3515993   2.438   1.464   9.741  0.4487  0.7759  0.0491
  145SAPE   H5X15994   2.475   1.380   9.803 -2.1774 -0.3631  0.1387
  145SAPE   H5Y15995   2.489   1.552   9.787 -0.6252 -0.2906  3.4389
  145SAPE   C3615996   2.486   1.463   9.589 -0.0768 -0.4684 -0.0759
  145SAPE   H6X15997   2.596   1.469   9.577  0.0377 -3.6021 -0.9112
  145SAPE   H6Y15998   2.430   1.549   9.545 -1.2176 -1.3282 -0.3136
  145SAPE   C3715999   2.439   1.335   9.513 -0.3607 -0.2160  0.1660
  145SAPE   H7X16000   2.328   1.334   9.517 -0.2934 -2.2112  3.2250
  145SAPE   H7Y16001   2.473   1.247   9.571  1.7542  0.1843 -0.4458
  145SAPE   C3816002   2.479   1.341   9.362 -0.3147  0.2416  0.2252
  145SAPE   H8X16003   2.589   1.347   9.345 -0.2555 -1.2657 -0.0100
  145SAPE   H8Y16004   2.425   1.426   9.316 -0.9971 -1.4783 -2.2945
  145SAPE   C3916005   2.420   1.227   9.289 -0.2401  0.1864 -0.1287
  145SAPE   H9X16006   2.311   1.219   9.303 -0.1049 -1.2135  0.1540
  145SAPE   H9Y16007   2.461   1.130   9.324 -2.6880 -0.2046  1.7892
  145SAPE  C31016008   2.434   1.241   9.137 -0.7070 -0.4452 -0.4154
  145SAPE  H10X16009   2.540   1.223   9.108  0.5697  2.4070  2.2174
  145SAPE  H10Y16010   2.413   1.346   9.107  0.5238  0.0604  0.4210
  145SAPE  C31116011   2.338   1.151   9.054 -0.3957  0.4750  0.0704
  145SAPE  H11X16012   2.232   1.181   9.075 -1.3416 -1.3996 -1.9432
  145SAPE  H11Y16013   2.340   1.047   9.092  1.8751  0.1297 -0.9668
  145SAPE  C31216014   2.385   1.147   8.905  0.2308 -0.7222 -0.0152
  145SAPE  H12X16015   2.349   1.055   8.854 -1.3409 -0.6768  0.9845
  145SAPE  H12Y16016   2.495   1.141   8.919 -0.0851  0.7713  3.8095
  145SAPE  C31316017   2.365   1.280   8.827  0.1318  0.4675  0.7907
  145SAPE  H13X16018   2.405   1.366   8.884  2.6463 -0.6102  0.7010
  145SAPE  H13Y16019   2.259   1.298   8.798  0.3958  0.1927 -0.3623
  145SAPE  C31416020   2.446   1.276   8.695 -0.4894  0.4169  0.1843
  145SAPE  H14X16021   2.403   1.194   8.633  0.1832  2.6796 -3.3947
  145SAPE  H14Y16022   2.556   1.276   8.711 -0.4583 -0.0779 -0.0230
  145SAPE  C31516023   2.408   1.403   8.617  0.5429 -0.0120 -0.2713
  145SAPE  H15X16024   2.448   1.489   8.675  1.2864 -1.2376  1.0829
  145SAPE  H15Y16025   2.298   1.415   8.608  0.3503  1.1602  3.0128
  145SAPE  C31616026   2.482   1.394   8.479  0.2447 -0.1909  0.2593
  145SAPE  H16X16027   2.587   1.367   8.503 -0.0612 -0.2159  1.5718
  145SAPE  H16Y16028   2.475   1.495   8.434  1.3239  0.3891  1.3639
  145SAPE  C31716029   2.422   1.284   8.383 -0.4220  0.4067  0.4946
  145SAPE  H17X16030   2.315   1.308   8.371 -0.8557 -0.8038  1.7561
  145SAPE  H17Y16031   2.430   1.184   8.431  0.8644 -0.4077 -1.3780
  145SAPE  C31816032   2.485   1.273   8.247 -0.3867 -0.2713  0.1667
  145SAPE  H18X16033   2.427   1.198   8.189 -2.9094 -0.9146  3.4190
  145SAPE  H18Y16034   2.593   1.250   8.258 -0.6607 -2.6015 -1.6599
  145SAPE  H18Z16035   2.466   1.373   8.201  1.2606  0.9909  2.1429
  146SAPE     N16036   1.989   3.551  10.849  0.0628  0.5251  0.2696
  146SAPE   HN116037   2.071   3.488  10.862 -2.0263 -2.7197 -1.4648
  146SAPE   HN216038   1.959   3.542  10.750  0.4870 -0.0914  0.1918
  146SAPE   HN316039   2.025   3.647  10.867  0.5517  0.1458  1.3690
  146SAPE   C1216040   1.867   3.524  10.937  0.6607 -0.2753  0.4018
  146SAPE  H12A16041   1.887   3.545  11.045 -0.8674  1.0671  0.4572
  146SAPE  H12B16042   1.848   3.415  10.940 -0.1082 -0.1301  1.6291
  146SAPE   C1116043   1.738   3.592  10.888 -0.2484  0.5344  0.2469
  146SAPE  H11A16044   1.715   3.575  10.780  1.6573 -0.7660  0.0180
  146SAPE  H11B16045   1.761   3.700  10.893 -2.2446  1.0244 -0.3989
  146SAPE     P16046   1.540   3.430  10.936  0.4369 -0.0922  0.0417
  146SAPE   O1316047   1.624   3.311  10.957  0.1092  0.1603  0.5162
  146SAPE   O1416048   1.417   3.433  11.015 -0.3735 -0.0179  0.2776
  146SAPE   O1216049   1.628   3.558  10.973 -0.2238  0.3817 -0.3658
  146SAPE   O1116050   1.494   3.440  10.778 -0.4946  0.3613 -0.1378
  146SAPE    C116051   1.414   3.556  10.750  0.7852  0.0695 -0.6135
  146SAPE    HA16052   1.312   3.540  10.792  0.8377  1.3100  0.0067
  146SAPE    HB16053   1.457   3.654  10.780 -0.8763 -0.1579  2.7710
  146SAPE    C216054   1.390   3.573  10.597  0.6690  0.0538  0.1791
  146SAPE    HS16055   1.328   3.664  10.585  1.3448  0.8283  2.2382
  146SAPE   O2116056   1.328   3.448  10.552  0.3690 -0.1388  0.6358
  146SAPE   C2116057   1.206   3.451  10.493 -0.1241  0.8528  0.1694
  146SAPE   O2216058   1.152   3.550  10.449  0.1716 -0.3907  0.6152
  146SAPE   C2216059   1.152   3.303  10.473  0.0048  0.4604  0.6325
  146SAPE   H2R16060   1.232   3.231  10.497  0.7448  1.1777  0.3399
  146SAPE   H2S16061   1.065   3.290  10.540 -0.0210  1.9365  0.9119
  146SAPE    C316062   1.523   3.595  10.519 -0.0042  0.5248  0.1039
  146SAPE    HX16063   1.575   3.497  10.521  3.4129  2.2564 -0.0267
  146SAPE    HY16064   1.581   3.667  10.580  1.3533 -1.0018  0.6512
  146SAPE   O3116065   1.500   3.636  10.381 -0.0807 -0.0584 -0.1976
  146SAPE   C3116066   1.605   3.633  10.310  0.6759  0.1571  0.8001
  146SAPE   O3216067   1.716   3.600  10.352  0.3644  0.9456  0.8908
  146SAPE   C3216068   1.578   3.673  10.171  0.3187 -0.0285  0.6175
  146SAPE   H2X16069   1.558   3.782  10.164  3.4754  0.7350  2.6852
  146SAPE   H2Y16070   1.498   3.609  10.126  0.2473 -1.5318  2.8307
  146SAPE   C2316071   1.108   3.279  10.327  0.8242 -0.0654 -0.0237
  146SAPE   H3R16072   1.036   3.350  10.280  0.7031  0.3464  0.7672
  146SAPE   H3S16073   1.073   3.174  10.324  1.3743 -0.2555  0.3046
  146SAPE   C2416074   1.232   3.283  10.237 -0.4021  0.8763  0.3550
  146SAPE   H4R16075   1.214   3.204  10.160  1.0115  0.5676  0.3193
  146SAPE   H4S16076   1.318   3.245  10.296  0.9388 -0.9701 -2.6271
  146SAPE   C2516077   1.272   3.409  10.170  0.1808 -0.4733  0.2740
  146SAPE   H5R16078   1.328   3.476  10.237 -0.4241 -1.4375  1.7599
  146SAPE   C2616079   1.261   3.446  10.041 -0.9681  0.2201 -0.3055
  146SAPE   H6R16080   1.306   3.542  10.008  3.0340 -0.6306  2.4034
  146SAPE   C2716081   1.196   3.378   9.921  0.4262 -0.0302  0.1929
  146SAPE   H7R16082   1.168   3.450   9.840 -1.0769 -0.5608  0.2272
  146SAPE   H7S16083   1.100   3.331   9.951  0.2437  1.7153  2.4991
  146SAPE   C2816084   1.294   3.283   9.864  0.2454  0.5598 -0.4242
  146SAPE   H8R16085   1.338   3.219   9.942  2.4716  1.5856 -0.8151
  146SAPE   C2916086   1.339   3.275   9.736 -0.2427 -0.3589  0.6173
  146SAPE   H9R16087   1.421   3.204   9.723  1.1707  0.8314  2.7444
  146SAPE  C21016088   1.295   3.356   9.615  0.5456  0.0551  0.0435
  146SAPE  H10R16089   1.342   3.456   9.631 -0.7303  0.4909  1.1572
  146SAPE  H10S16090   1.185   3.374   9.620  0.4007 -0.5473 -0.9280
  146SAPE  C21116091   1.325   3.277   9.482 -0.1815 -0.7057 -0.2304
  146SAPE  H11R16092   1.420   3.222   9.477  0.3211  0.1270 -0.0024
  146SAPE  C21216093   1.240   3.272   9.371 -0.7382  0.4411 -0.3177
  146SAPE  H12R16094   1.269   3.218   9.280  1.5862 -1.4073  1.4405
  146SAPE  C21316095   1.114   3.360   9.352  0.3892  0.1791  0.3200
  146SAPE  H13R16096   1.087   3.416   9.444  2.2866  3.1217 -0.8586
  146SAPE  H13S16097   1.030   3.289   9.334  0.0947  0.3370  1.0480
  146SAPE  C21416098   1.118   3.456   9.238  0.0755 -0.6304 -0.4308
  146SAPE  H14R16099   1.137   3.561   9.263  0.9360 -0.5935 -1.2225
  146SAPE  C21516100   1.112   3.432   9.105 -0.0185 -0.1384  0.2325
  146SAPE  H15R16101   1.123   3.515   9.033  0.5208 -2.2720 -2.2172
  146SAPE  C21616102   1.090   3.301   9.034  0.0790 -0.7979 -0.3110
  146SAPE  H16R16103   0.987   3.306   8.994  1.5943 -0.1556 -4.3483
  146SAPE  H16S16104   1.085   3.219   9.109  0.8831 -0.4973  0.0773
  146SAPE  C21716105   1.170   3.261   8.910  0.1748 -0.1347  0.6354
  146SAPE  H17R16106   1.169   3.348   8.840 -0.1023 -0.7160 -0.0955
  146SAPE  H17S16107   1.120   3.179   8.854 -0.4721  1.6550 -1.4812
  146SAPE  C21816108   1.317   3.219   8.936  0.2221 -0.1503  0.4612
  146SAPE  H18R16109   1.372   3.291   9.000  0.2116 -0.5769  0.9639
  146SAPE  H18S16110   1.373   3.213   8.840  0.0205 -1.3916  0.4042
  146SAPE  C21916111   1.325   3.079   8.999 -0.3791 -0.6664  0.4591
  146SAPE  H19R16112   1.273   3.012   8.927  1.4379  1.0924 -2.6490
  146SAPE  H19S16113   1.289   3.092   9.103 -0.7365  3.0451 -0.0426
  146SAPE  C22016114   1.471   3.029   9.018 -0.2369  0.2890 -0.9480
  146SAPE  H20R16115   1.515   3.076   9.108 -0.7391  0.9557 -1.0468
  146SAPE  H20S16116   1.537   3.048   8.930  1.9187 -2.6425 -0.0286
  146SAPE  H20T16117   1.462   2.920   9.032 -1.6968  0.4839 -0.3352
  146SAPE   C3316118   1.702   3.658  10.078  0.4391  0.5240  0.6223
  146SAPE   H3X16119   1.721   3.549  10.081  1.6951  0.6685 -1.1654
  146SAPE   H3Y16120   1.793   3.713  10.110  1.5671 -2.6707  3.1095
  146SAPE   C3416121   1.683   3.695   9.925  0.1409 -0.2297  0.0137
  146SAPE   H4X16122   1.640   3.797   9.915 -1.7141 -0.9743  0.3061
  146SAPE   H4Y16123   1.619   3.613   9.887 -1.9760  0.6200  1.6460
  146SAPE   C3516124   1.818   3.703   9.853  1.2310 -0.5512  0.0213
  146SAPE   H5X16125   1.872   3.606   9.867 -0.3371 -1.2191  1.8146
  146SAPE   H5Y16126   1.876   3.794   9.879  0.4028 -0.3577  1.2394
  146SAPE   C3616127   1.796   3.703   9.700  0.5633 -0.0908  0.3815
  146SAPE   H6X16128   1.767   3.804   9.665 -1.2235 -0.1013  1.7814
  146SAPE   H6Y16129   1.713   3.637   9.667 -0.2684  1.0296  0.2251
  146SAPE   C3716130   1.922   3.678   9.624 -0.4430 -0.1925  0.1318
  146SAPE   H7X16131   1.951   3.572   9.638 -0.9096 -0.4218 -0.5890
  146SAPE   H7Y16132   2.003   3.741   9.666  0.6454  0.0026 -2.1941
  146SAPE   C3816133   1.902   3.720   9.475  0.0386  0.1162 -0.3162
  146SAPE   H8X16134   1.799   3.694   9.440  0.4134 -1.7614 -0.1103
  146SAPE   H8Y16135   1.975   3.669   9.408 -1.0858 -0.6224 -1.0067
  146SAPE   C3916136   1.944   3.868   9.464  0.1244 -0.5648  0.0895
  146SAPE   H9X16137   2.054   3.872   9.477 -0.0528  1.7548  1.0122
  146SAPE   H9Y16138   1.889   3.930   9.538  0.1798  0.3176 -0.6059
  146SAPE  C31016139   1.914   3.926   9.325  0.6248  0.1256  0.0265
  146SAPE  H10X16140   1.806   3.906   9.310  1.2198 -1.9901 -1.6842
  146SAPE  H10Y16141   1.964   3.863   9.249 -0.3910 -0.5263 -0.1163
  146SAPE  C31116142   1.947   4.072   9.307  0.1733  0.3869  0.3397
  146SAPE  H11X16143   2.054   4.084   9.337 -0.1880  0.2989  1.6807
  146SAPE  H11Y16144   1.886   4.127   9.381 -1.0666 -3.7451  2.5823
  146SAPE  C31216145   1.923   4.125   9.162 -0.4430  0.2590  0.3887
  146SAPE  H12X16146   2.015   4.117   9.100 -0.6024  0.6463  0.0991
  146SAPE  H12Y16147   1.904   4.233   9.176 -0.7824  0.2945 -0.3389
  146SAPE  C31316148   1.803   4.058   9.086  0.3280 -0.2792 -0.4964
  146SAPE  H13X16149   1.720   4.034   9.155  0.9545  0.3400  0.4931
  146SAPE  H13Y16150   1.837   3.966   9.033  2.3417 -0.2505  0.7144
  146SAPE  C31416151   1.746   4.133   8.963 -0.3173 -0.7727 -0.6222
  146SAPE  H14X16152   1.824   4.161   8.889 -1.9757 -0.2790 -2.2401
  146SAPE  H14Y16153   1.693   4.227   8.991 -1.4978 -2.2591  2.3530
  146SAPE  C31516154   1.636   4.059   8.873  0.1888 -0.1885  0.6274
  146SAPE  H15X16155   1.549   4.037   8.938  1.1869 -0.3190  1.9266
  146SAPE  H15Y16156   1.671   3.955   8.853 -1.2287 -0.9663  2.1100
  146SAPE  C31616157   1.573   4.128   8.748  0.5554  0.2125  0.7585
  146SAPE  H16X16158   1.660   4.171   8.695  1.1565 -0.1670  1.4333
  146SAPE  H16Y16159   1.504   4.212   8.773  0.6177  0.4355  0.1971
  146SAPE  C31716160   1.494   4.047   8.641 -1.1407  0.8051 -0.1087
  146SAPE  H17X16161   1.544   3.951   8.616 -2.0570  0.2159  0.2991
  146SAPE  H17Y16162   1.481   4.100   8.544  0.0065 -0.2751 -0.8578
  146SAPE  C31816163   1.358   3.997   8.685  0.2658 -0.4504 -0.2056
  146SAPE  H18X16164   1.276   4.072   8.690  0.4396 -0.2954  0.3907
  146SAPE  H18Y16165   1.366   3.956   8.788  0.3180  1.0476  0.4017
  146SAPE  H18Z16166   1.334   3.916   8.614  0.8315  1.1273 -2.2401
  147SAPE     N16167   2.286   6.629  10.856 -0.0066  0.8066 -0.4780
  147SAPE   HN116168   2.217   6.649  10.781 -0.4796 -0.2090 -0.3190
  147SAPE   HN216169   2.269   6.542  10.910  3.6622 -0.4112 -1.1303
  147SAPE   HN316170   2.272   6.704  10.926 -4.0554  0.3602 -0.7049
  147SAPE   C1216171   2.424   6.633  10.795  0.3184 -0.6796 -0.1971
  147SAPE  H12A16172   2.497   6.651  10.877  0.4538  1.7082 -0.8201
  147SAPE  H12B16173   2.437   6.718  10.725  1.2984 -1.6419 -1.2041
  147SAPE   C1116174   2.468   6.509  10.721  0.0383  0.8750 -0.8455
  147SAPE  H11A16175   2.576   6.515  10.696  0.4860 -2.3606 -0.0499
  147SAPE  H11B16176   2.405   6.503  10.630  1.3052  0.1500 -1.6937
  147SAPE     P16177   2.559   6.300  10.851  0.4890  0.2623 -0.2861
  147SAPE   O1316178   2.652   6.386  10.931  0.3131  0.3664 -0.1203
  147SAPE   O1416179   2.496   6.187  10.923 -0.6602 -0.4226 -0.7886
  147SAPE   O1216180   2.442   6.394  10.798  0.2454  0.2783 -0.5676
  147SAPE   O1116181   2.641   6.262  10.722 -0.4006  0.3127 -0.6105
  147SAPE    C116182   2.593   6.188  10.616  1.2681  0.3627  0.1461
  147SAPE    HA16183   2.552   6.093  10.656 -1.0623 -0.8646 -4.7244
  147SAPE    HB16184   2.501   6.233  10.574 -0.0614 -2.8150 -0.4281
  147SAPE    C216185   2.708   6.159  10.514  0.0704 -0.1349  0.2491
  147SAPE    HS16186   2.775   6.247  10.524 -0.7301  0.5792 -0.5423
  147SAPE   O2116187   2.648   6.148  10.378 -0.5112 -0.4170  0.0799
  147SAPE   C2116188   2.738   6.138  10.281  0.2604  0.1000  0.0441
  147SAPE   O2216189   2.856   6.172  10.294  0.8472 -0.8445  0.0663
  147SAPE   C2216190   2.671   6.079  10.156  0.1865  0.1561 -0.0018
  147SAPE   H2R16191   2.602   6.002  10.197  1.0426 -0.7461 -0.2379
  147SAPE   H2S16192   2.602   6.148  10.103  0.6144  0.1915 -0.5186
  147SAPE    C316193   2.791   6.035  10.554 -0.2499 -0.1369  0.5922
  147SAPE    HX16194   2.813   6.043  10.662 -0.0012 -2.3675  0.7276
  147SAPE    HY16195   2.887   6.035  10.497  0.2288 -0.7015  1.3957
  147SAPE   O3116196   2.733   5.916  10.517 -0.4960  0.1522  0.0554
  147SAPE   C3116197   2.730   5.816  10.612  0.6772 -0.7206 -0.0016
  147SAPE   O3216198   2.769   5.831  10.727 -0.0861  0.3674  0.2008
  147SAPE   C3216199   2.679   5.678  10.552  0.1927  0.3599 -0.4558
  147SAPE   H2X16200   2.598   5.710  10.483  0.3120  1.3590 -0.1403
  147SAPE   H2Y16201   2.628   5.642  10.645  1.0294  1.8381  0.5991
  147SAPE   C2316202   2.767   6.016  10.059 -0.6059  0.5579  0.2163
  147SAPE   H3R16203   2.849   5.956  10.104 -0.3742  0.9229  0.2831
  147SAPE   H3S16204   2.831   6.084   9.999  0.4960 -0.2730  0.4287
  147SAPE   C2416205   2.692   5.932   9.955  0.1085 -0.0520  1.1949
  147SAPE   H4R16206   2.611   5.871  10.001 -0.8534 -1.3089 -2.0258
  147SAPE   H4S16207   2.760   5.849   9.926 -2.7861 -2.9034  2.1590
  147SAPE   C2516208   2.643   6.018   9.846  0.2785  0.9231  0.4178
  147SAPE   H5R16209   2.554   6.082   9.862  1.0519  2.1238  0.0091
  147SAPE   C2616210   2.677   6.012   9.715  0.3094 -0.4702 -0.1602
  147SAPE   H6R16211   2.624   6.077   9.645 -0.2257  0.0906  0.7475
  147SAPE   C2716212   2.769   5.917   9.642  0.3812 -0.3745 -0.5780
  147SAPE   H7R16213   2.723   5.819   9.617  0.5875 -0.9808  1.3337
  147SAPE   H7S16214   2.844   5.886   9.718  1.3705 -2.1925 -2.2494
  147SAPE   C2816215   2.848   5.988   9.534 -0.3661  0.5532  0.0201
  147SAPE   H8R16216   2.942   6.029   9.572 -0.1222  1.0990 -1.1697
  147SAPE   C2916217   2.800   5.990   9.408 -0.4401 -0.2116 -0.5213
  147SAPE   H9R16218   2.858   6.046   9.333 -1.7230 -2.0138 -2.9333
  147SAPE  C21016219   2.680   5.931   9.353 -1.3611 -0.2065  0.1264
  147SAPE  H10R16220   2.600   5.896   9.422 -0.7626 -1.3383  0.2620
  147SAPE  H10S16221   2.719   5.839   9.305 -1.1967  0.4412 -1.0093
  147SAPE  C21116222   2.617   6.024   9.249 -0.0938 -0.0785 -0.3839
  147SAPE  H11R16223   2.563   6.111   9.289 -0.3235 -1.2289  1.9009
  147SAPE  C21216224   2.616   6.015   9.116 -0.3766  1.0898 -0.0104
  147SAPE  H12R16225   2.568   6.100   9.065 -1.3794  1.8907  2.2152
  147SAPE  C21316226   2.671   5.896   9.038  0.2230 -0.1544  1.0589
  147SAPE  H13R16227   2.648   5.799   9.086  1.3524 -0.6548  0.5919
  147SAPE  H13S16228   2.780   5.914   9.032  0.3121 -1.3124 -1.2899
  147SAPE  C21416229   2.604   5.900   8.901 -0.4097 -0.8081 -0.7281
  147SAPE  H14R16230   2.509   5.844   8.894 -0.4139 -1.4845  3.4229
  147SAPE  C21516231   2.665   5.936   8.785 -0.1250  0.6918 -0.0155
  147SAPE  H15R16232   2.604   5.936   8.694 -0.4949 -1.5292  0.2073
  147SAPE  C21616233   2.807   5.975   8.759 -1.1087 -0.0870 -0.0075
  147SAPE  H16R16234   2.863   6.002   8.852  0.4131  0.1278 -0.9792
  147SAPE  H16S16235   2.812   6.062   8.690  0.9378  0.9067  1.3280
  147SAPE  C21716236   2.881   5.871   8.675 -0.0871 -0.5976  0.0463
  147SAPE  H17R16237   2.824   5.856   8.581 -0.6728 -1.6630  0.5589
  147SAPE  H17S16238   2.874   5.776   8.733  1.7111 -0.8547 -0.1439
  147SAPE  C21816239   3.033   5.903   8.657  0.2978 -0.3597 -0.7665
  147SAPE  H18R16240   3.076   5.925   8.757 -0.6369  0.2541 -0.4935
  147SAPE  H18S16241   3.028   6.003   8.607  2.5566  0.9105  1.4415
  147SAPE  C21916242   3.114   5.792   8.586  0.0796  0.0155 -0.1814
  147SAPE  H19R16243   3.059   5.696   8.593  1.2010 -0.6199  0.0971
  147SAPE  H19S16244   3.214   5.774   8.632 -0.7268  3.5035  3.2030
  147SAPE  C22016245   3.135   5.823   8.437  0.3866  0.5414 -0.1338
  147SAPE  H20R16246   3.191   5.918   8.433 -1.0451  1.4482  0.7777
  147SAPE  H20S16247   3.034   5.824   8.389 -0.3647  0.9077  1.4051
  147SAPE  H20T16248   3.196   5.738   8.399  0.9834  0.3289  1.2656
  147SAPE   C3316249   2.786   5.577  10.498  0.0608  0.0574  0.9999
  147SAPE   H3X16250   2.740   5.478  10.476 -0.1547  0.5165 -0.6596
  147SAPE   H3Y16251   2.862   5.576  10.579  1.8878  0.1761 -0.6898
  147SAPE   C3416252   2.857   5.636  10.372 -0.5569 -0.3428  0.4898
  147SAPE   H4X16253   2.923   5.554  10.336 -1.4007 -1.0921  0.6141
  147SAPE   H4Y16254   2.926   5.720  10.395 -1.2935 -0.2287  2.3625
  147SAPE   C3516255   2.764   5.665  10.254 -0.1126 -0.8460  0.8833
  147SAPE   H5X16256   2.815   5.719  10.171 -0.4534 -1.7603  0.0713
  147SAPE   H5Y16257   2.693   5.740  10.295  1.1990 -0.3940  2.3950
  147SAPE   C3616258   2.690   5.543  10.198 -0.5252 -0.2705  0.0833
  147SAPE   H6X16259   2.614   5.506  10.270  1.0430 -0.5057  1.6531
  147SAPE   H6Y16260   2.762   5.462  10.175 -0.8429 -0.4852 -0.1480
  147SAPE   C3716261   2.611   5.571  10.066 -0.3285  0.5790 -0.0593
  147SAPE   H7X16262   2.682   5.641  10.017  0.3703 -1.5133 -2.1718
  147SAPE   H7Y16263   2.509   5.614  10.074  0.0970  1.5791  0.0716
  147SAPE   C3816264   2.614   5.445   9.979 -0.5325  0.5129  0.5436
  147SAPE   H8X16265   2.558   5.363  10.030  1.0583 -2.4608 -2.2641
  147SAPE   H8Y16266   2.720   5.412   9.969 -0.8324  0.3739 -2.4156
  147SAPE   C3916267   2.574   5.462   9.829 -0.6286 -0.0285  0.5750
  147SAPE   H9X16268   2.628   5.545   9.781  0.6782  0.5838  3.0395
  147SAPE   H9Y16269   2.470   5.501   9.822  0.1146  1.7208 -0.9398
  147SAPE  C31016270   2.601   5.333   9.745  0.9019  0.1030 -0.8043
  147SAPE  H10X16271   2.572   5.249   9.811  1.5468 -2.3761 -3.5565
  147SAPE  H10Y16272   2.711   5.325   9.732  1.1550 -0.9049  1.6582
  147SAPE  C31116273   2.530   5.345   9.615  0.3096  0.1881  0.7692
  147SAPE  H11X16274   2.427   5.382   9.634 -0.3165 -0.6499 -0.9170
  147SAPE  H11Y16275   2.516   5.247   9.564 -0.4712  0.5967  0.1879
  147SAPE  C31216276   2.597   5.441   9.509 -0.5234 -0.2323  0.3903
  147SAPE  H12X16277   2.702   5.410   9.489 -0.4475  0.0656  0.3261
  147SAPE  H12Y16278   2.589   5.544   9.550  3.8501 -0.8713  3.1780
  147SAPE  C31316279   2.523   5.442   9.373  0.3919 -0.2249  0.1665
  147SAPE  H13X16280   2.564   5.518   9.304  1.6533 -0.7577  0.3131
  147SAPE  H13Y16281   2.420   5.483   9.382  0.5315  0.0245  0.6564
  147SAPE  C31416282   2.512   5.305   9.304  0.1903 -0.8280 -0.1246
  147SAPE  H14X16283   2.439   5.245   9.362  0.3556  0.0887  1.0517
  147SAPE  H14Y16284   2.613   5.258   9.300  1.0870  1.1858 -2.2181
  147SAPE  C31516285   2.465   5.315   9.158  0.2523  0.4870  0.1882
  147SAPE  H15X16286   2.512   5.409   9.121  0.8154  0.0833 -0.1424
  147SAPE  H15Y16287   2.358   5.342   9.154  0.1211 -0.0907 -0.2350
  147SAPE  C31616288   2.499   5.206   9.051  0.2812 -0.9634 -0.0832
  147SAPE  H16X16289   2.465   5.105   9.085 -0.7578 -0.6120 -0.0635
  147SAPE  H16Y16290   2.610   5.204   9.053  0.2877 -0.1577  1.0209
  147SAPE  C31716291   2.468   5.249   8.906  0.1171 -0.1331 -0.0780
  147SAPE  H17X16292   2.523   5.178   8.841 -0.0145 -1.8249  1.5906
  147SAPE  H17Y16293   2.488   5.355   8.879  0.0814 -0.1434 -0.1424
  147SAPE  C31816294   2.318   5.226   8.879 -0.3609 -0.5683 -0.3537
  147SAPE  H18X16295   2.266   5.290   8.954  0.5534  1.0022 -1.0373
  147SAPE  H18Y16296   2.283   5.120   8.888  2.2954 -1.4995 -0.6246
  147SAPE  H18Z16297   2.291   5.266   8.779  1.0809  2.0713  0.2833
  148SAPE     N16298   4.339   2.110  10.723  0.1926  0.1333 -0.0933
  148SAPE   HN116299   4.411   2.071  10.787 -2.3338 -0.8488  2.2372
  148SAPE   HN216300   4.297   2.200  10.752  0.1107  0.0695 -0.0157
  148SAPE   HN316301   4.252   2.056  10.741  0.8184 -0.8321  0.0809
  148SAPE   C1216302   4.373   2.113  10.575 -0.4455  0.2825 -0.4283
  148SAPE  H12A16303   4.416   2.013  10.551 -1.7102 -0.0961 -1.1650
  148SAPE  H12B16304   4.441   2.200  10.560  2.5611 -2.1701 -1.6900
  148SAPE   C1116305   4.242   2.138  10.499  0.1913 -0.2256  0.3191
  148SAPE  H11A16306   4.265   2.124  10.391 -0.1398 -1.4972  0.3986
  148SAPE  H11B16307   4.215   2.244  10.519  0.7139 -0.3006  1.4665
  148SAPE     P16308   4.012   2.028  10.443 -0.1991  0.1031  0.2888
  148SAPE   O1316309   3.923   1.943  10.521  0.2558 -0.1119 -0.3140
  148SAPE   O1416310   3.959   2.155  10.394 -0.5067  0.1118  0.3429
  148SAPE   O1216311   4.138   2.051  10.533  0.3888 -0.3566 -0.1761
  148SAPE   O1116312   4.069   1.946  10.319 -0.2456 -0.2193  0.5390
  148SAPE    C116313   4.143   1.830  10.345 -0.2166  0.3987 -0.4777
  148SAPE    HA16314   4.248   1.850  10.314 -0.5034  2.8040  0.0124
  148SAPE    HB16315   4.159   1.802  10.451  1.1257  0.8392 -0.5523
  148SAPE    C216316   4.090   1.710  10.258  0.3509  0.2309 -0.5965
  148SAPE    HS16317   4.170   1.633  10.266  1.5589  1.3978 -1.3178
  148SAPE   O2116318   4.052   1.759  10.128 -0.1726  0.0721 -0.4887
  148SAPE   C2116319   4.157   1.779  10.049 -0.3739 -0.0691  0.0615
  148SAPE   O2216320   4.273   1.748  10.077 -0.3164  0.1243  0.3424
  148SAPE   C2216321   4.110   1.826   9.913 -0.2292 -0.1911 -0.6703
  148SAPE   H2R16322   4.029   1.754   9.889  0.7054 -1.9799  1.3884
  148SAPE   H2S16323   4.081   1.932   9.929 -0.8060 -0.2862 -1.0783
  148SAPE    C316324   3.962   1.642  10.328  0.0777  0.1535  0.7777
  148SAPE    HX16325   3.884   1.720  10.328  1.7279  1.8490  1.2800
  148SAPE    HY16326   3.989   1.626  10.435 -0.1656  0.1011  0.8308
  148SAPE   O3116327   3.912   1.522  10.260 -0.3078 -0.5515 -0.0815
  148SAPE   C3116328   3.801   1.474  10.304 -1.1527  0.7788 -0.2330
  148SAPE   O3216329   3.732   1.525  10.394 -0.0368 -0.1390  0.0432
  148SAPE   C3216330   3.779   1.337  10.250 -0.1154 -0.1194 -0.1092
  148SAPE   H2X16331   3.708   1.300  10.327  0.2771 -0.1062  0.2645
  148SAPE   H2Y16332   3.868   1.271  10.246  1.2568  1.6939 -0.0494
  148SAPE   C2316333   4.209   1.832   9.790  0.0586 -0.1808  0.5806
  148SAPE   H3R16334   4.233   1.732   9.748  1.1704  0.2454  0.1686
  148SAPE   H3S16335   4.307   1.876   9.820  1.4443 -1.9743 -1.1192
  148SAPE   C2416336   4.153   1.908   9.669 -0.0636  0.1516 -0.2033
  148SAPE   H4R16337   4.221   1.926   9.583  0.1552 -0.2013 -0.1088
  148SAPE   H4S16338   4.128   2.010   9.704  3.1368  0.4758  1.2622
  148SAPE   C2516339   4.026   1.842   9.623 -0.9097 -0.6844  0.0951
  148SAPE   H5R16340   3.946   1.859   9.696 -1.6271 -2.7002 -0.1989
  148SAPE   C2616341   3.994   1.791   9.506 -0.1223 -0.0567 -0.9426
  148SAPE   H6R16342   3.903   1.729   9.502 -1.4997  1.8625 -0.4487
  148SAPE   C2716343   4.089   1.789   9.390 -0.0582 -0.1429 -0.2010
  148SAPE   H7R16344   4.073   1.690   9.343  1.3130 -1.5957  2.2831
  148SAPE   H7S16345   4.193   1.770   9.424  0.1200  0.2351 -0.5292
  148SAPE   C2816346   4.084   1.908   9.298 -0.7573 -0.0272 -0.7439
  148SAPE   H8R16347   4.009   1.983   9.327  1.6957  1.4426  2.1619
  148SAPE   C2916348   4.172   1.933   9.202 -0.2031 -0.2690 -0.8102
  148SAPE   H9R16349   4.152   2.014   9.130  1.7192  0.0901 -0.9711
  148SAPE  C21016350   4.285   1.839   9.162  0.1589  0.5619 -0.1448
  148SAPE  H10R16351   4.264   1.805   9.058  1.8211  0.4052 -0.4426
  148SAPE  H10S16352   4.298   1.744   9.218  3.2222  0.9158 -0.1480
  148SAPE  C21116353   4.422   1.892   9.164 -0.5406 -0.1363 -0.1312
  148SAPE  H11R16354   4.451   1.938   9.068  1.2039  2.3893  1.5395
  148SAPE  C21216355   4.512   1.895   9.263 -0.3430 -0.1133 -0.4923
  148SAPE  H12R16356   4.606   1.946   9.238 -0.2885  0.7898  1.4358
  148SAPE  C21316357   4.482   1.843   9.401 -0.6729 -0.0729 -0.2356
  148SAPE  H13R16358   4.486   1.732   9.399 -1.9380 -0.0964 -1.2840
  148SAPE  H13S16359   4.383   1.871   9.442 -1.3664 -4.3167  1.2645
  148SAPE  C21416360   4.575   1.897   9.511  0.1781  0.2235 -0.3599
  148SAPE  H14R16361   4.608   2.000   9.492  0.3622 -0.2566 -2.9314
  148SAPE  C21516362   4.631   1.825   9.613 -0.0890 -0.2001  0.2284
  148SAPE  H15R16363   4.690   1.886   9.682  1.3542  0.4106 -1.5176
  148SAPE  C21616364   4.623   1.681   9.640 -0.2144  0.0118  0.3168
  148SAPE  H16R16365   4.537   1.634   9.588 -1.3349  2.8912 -0.5288
  148SAPE  H16S16366   4.608   1.660   9.748  0.1018 -0.5938  0.2414
  148SAPE  C21716367   4.756   1.602   9.587  0.3033 -0.0056 -0.1949
  148SAPE  H17R16368   4.746   1.502   9.632 -1.3239  0.3025  0.1557
  148SAPE  H17S16369   4.847   1.655   9.623 -0.1948  1.1441 -0.5746
  148SAPE  C21816370   4.759   1.574   9.436  0.4001 -0.0947 -0.7600
  148SAPE  H18R16371   4.740   1.675   9.393  2.0399  0.9283  0.8065
  148SAPE  H18S16372   4.674   1.514   9.398  2.7819 -3.1771 -1.4951
  148SAPE  C21916373   4.895   1.514   9.389  0.4239  0.2987 -0.1667
  148SAPE  H19R16374   4.906   1.424   9.454  0.5287  2.1315  2.4303
  148SAPE  H19S16375   4.981   1.582   9.407  0.4901 -0.4974  2.8114
  148SAPE  C22016376   4.909   1.462   9.251  0.3118  0.6106  0.5787
  148SAPE  H20R16377   4.826   1.396   9.219  0.4541  1.9008 -2.7446
  148SAPE  H20S16378   5.007   1.413   9.230  0.7390  2.8207 -3.1862
  148SAPE  H20T16379   4.897   1.536   9.168 -1.7022  0.9651  1.1697
  148SAPE   C3316380   3.697   1.319  10.119  0.1242 -0.3298 -1.1250
  148SAPE   H3X16381   3.605   1.379  10.129  1.1662  1.2020 -0.4665
  148SAPE   H3Y16382   3.675   1.210  10.113  0.7542 -0.6365  1.5225
  148SAPE   C3416383   3.766   1.356   9.993  0.4758  0.6707 -0.3454
  148SAPE   H4X16384   3.692   1.311   9.923 -1.0544  1.2004  0.8898
  148SAPE   H4Y16385   3.862   1.300   9.993  0.6797  1.0055  0.5171
  148SAPE   C3516386   3.788   1.509   9.972 -0.6654  0.5153  0.1313
  148SAPE   H5X16387   3.892   1.532  10.003  0.4795 -2.7967 -1.0360
  148SAPE   H5Y16388   3.719   1.563  10.041  2.1910 -0.7139  4.1007
  148SAPE   C3616389   3.761   1.558   9.824  0.2654 -0.2157  0.0871
  148SAPE   H6X16390   3.785   1.666   9.823 -1.1136  0.2003  4.1539
  148SAPE   H6Y16391   3.653   1.551   9.798  0.0269  0.7543  0.7679
  148SAPE   C3716392   3.830   1.473   9.712 -0.1694  0.8009 -0.1537
  148SAPE   H7X16393   3.825   1.364   9.733 -3.3354  0.8441 -0.4455
  148SAPE   H7Y16394   3.938   1.499   9.726 -0.0247 -0.7880  1.7879
  148SAPE   C3816395   3.774   1.492   9.575 -0.0122  0.2618  0.2081
  148SAPE   H8X16396   3.754   1.600   9.558  2.1488  0.4927 -1.1182
  148SAPE   H8Y16397   3.674   1.443   9.569 -0.2859  0.8938 -0.3736
  148SAPE   C3916398   3.863   1.423   9.470  0.2849 -0.1439  0.5072
  148SAPE   H9X16399   3.875   1.316   9.496 -1.3049 -0.1759  1.1537
  148SAPE   H9Y16400   3.962   1.474   9.473 -0.9319  2.2040  2.6932
  148SAPE  C31016401   3.811   1.442   9.328 -0.5639  0.3397 -0.0652
  148SAPE  H10X16402   3.773   1.545   9.308 -3.1581 -0.7843 -1.1497
  148SAPE  H10Y16403   3.724   1.375   9.312 -1.3780  1.0369  1.3060
  148SAPE  C31116404   3.918   1.408   9.224  0.2575  0.1668  0.0229
  148SAPE  H11X16405   3.955   1.306   9.245 -1.4016 -0.7178 -1.2275
  148SAPE  H11Y16406   4.010   1.469   9.240 -0.2791  0.6051  1.5282
  148SAPE  C31216407   3.887   1.398   9.079 -0.6285  0.3192  0.4748
  148SAPE  H12X16408   3.839   1.487   9.033  0.4265  1.3827  1.4155
  148SAPE  H12Y16409   3.819   1.313   9.056  0.8151 -0.5748 -0.5296
  148SAPE  C31316410   4.017   1.372   8.995  0.2894 -0.0740  0.3905
  148SAPE  H13X16411   4.042   1.267   9.018 -1.7338 -0.7133 -0.2394
  148SAPE  H13Y16412   4.104   1.438   9.014  1.8502 -1.9537 -0.1964
  148SAPE  C31416413   3.992   1.395   8.840  0.2427  0.2941 -0.2716
  148SAPE  H14X16414   3.957   1.501   8.837  1.7837  0.7823 -1.5912
  148SAPE  H14Y16415   3.907   1.329   8.813 -0.9049  2.4120 -1.9380
  148SAPE  C31516416   4.118   1.377   8.755 -0.2371  0.6125  0.0391
  148SAPE  H15X16417   4.200   1.428   8.809 -0.3063  1.5910 -0.7721
  148SAPE  H15Y16418   4.103   1.419   8.654 -1.4920 -1.9611 -0.8786
  148SAPE  C31616419   4.160   1.228   8.720  0.5984  0.1529 -0.3951
  148SAPE  H16X16420   4.174   1.172   8.815  1.0792 -0.2704 -0.7118
  148SAPE  H16Y16421   4.256   1.231   8.663  0.1188 -1.5984 -1.3160
  148SAPE  C31716422   4.064   1.153   8.631  0.3549  0.2835 -0.3811
  148SAPE  H17X16423   3.961   1.190   8.649  0.3735  0.0762  0.1521
  148SAPE  H17Y16424   4.076   1.045   8.656 -0.7377  0.6268  1.7471
  148SAPE  C31816425   4.096   1.178   8.486  0.1947  0.0085 -0.4281
  148SAPE  H18X16426   4.059   1.276   8.447  0.2768  0.2707  0.1582
  148SAPE  H18Y16427   4.053   1.096   8.425  2.1023 -0.6733 -0.9024
  148SAPE  H18Z16428   4.206   1.176   8.467  0.1164  0.8830 -1.0269
  149SAPE     N16429   6.599   2.773  11.067 -0.4136 -0.2004 -0.3757
  149SAPE   HN116430   6.562   2.763  10.971 -1.6871  1.2354 -0.0463
  149SAPE   HN216431   6.525   2.744  11.134 -1.6190 -1.4921 -2.2247
  149SAPE   HN316432   6.633   2.870  11.080 -0.1806 -0.0713 -1.9118
  149SAPE   C1216433   6.705   2.668  11.104  0.0238 -0.2741 -0.9251
  149SAPE  H12A16434   6.662   2.567  11.089  1.0172 -0.6757 -1.1492
  149SAPE  H12B16435   6.736   2.691  11.208 -1.0916  3.0768 -1.2892
  149SAPE   C1116436   6.831   2.681  11.008 -0.1410  0.9623  0.0473
  149SAPE  H11A16437   6.823   2.624  10.912  0.1054 -0.0879  0.6420
  149SAPE  H11B16438   6.913   2.633  11.064 -1.9133 -0.1318  1.7795
  149SAPE     P16439   6.993   2.896  11.044 -0.0002 -0.2115  0.3316
  149SAPE   O1316440   6.953   3.029  11.091  0.1167  0.3950 -0.0365
  149SAPE   O1416441   7.064   2.812  11.142 -0.4488 -0.0274  0.6387
  149SAPE   O1216442   6.866   2.825  10.989 -0.2591 -0.5336  0.2360
  149SAPE   O1116443   7.077   2.915  10.915  0.2429 -0.6857 -0.0325
  149SAPE    C116444   7.142   2.801  10.852  0.4686  0.7980 -0.0770
  149SAPE    HA16445   7.252   2.804  10.870  0.4636 -2.2941  0.6919
  149SAPE    HB16446   7.117   2.701  10.893  1.9346  0.8945  1.1192
  149SAPE    C216447   7.113   2.798  10.696 -0.0228  0.1892  0.6116
  149SAPE    HS16448   7.127   2.904  10.667  0.3451  0.5275  1.9939
  149SAPE   O2116449   6.978   2.747  10.693 -0.3404  0.1137  1.2922
  149SAPE   C2116450   6.899   2.809  10.600 -0.4783 -0.0538 -1.1768
  149SAPE   O2216451   6.938   2.886  10.522 -0.1594  0.1309  0.4019
  149SAPE   C2216452   6.760   2.756  10.623 -0.5422  0.2930 -0.0461
  149SAPE   H2R16453   6.761   2.645  10.625 -1.0932  0.2677 -1.1554
  149SAPE   H2S16454   6.726   2.793  10.722  0.5895 -2.5981  1.4897
  149SAPE    C316455   7.202   2.707  10.613  0.0729  0.1979  0.0990
  149SAPE    HX16456   7.206   2.610  10.668 -1.0248 -1.4713 -2.6387
  149SAPE    HY16457   7.308   2.739  10.613  0.4742 -1.0241  2.1730
  149SAPE   O3116458   7.156   2.696  10.481 -0.0152 -0.0243 -0.2527
  149SAPE   C3116459   7.189   2.796  10.394 -0.1930 -0.0467 -0.1851
  149SAPE   O3216460   7.252   2.895  10.415  0.3589  0.1800 -0.3169
  149SAPE   C3216461   7.132   2.770  10.257  0.2849  0.5894  0.5039
  149SAPE   H2X16462   7.025   2.742  10.269 -0.1438  1.0477 -2.0135
  149SAPE   H2Y16463   7.191   2.684  10.218 -1.0602 -0.7110  1.3012
  149SAPE   C2316464   6.667   2.804  10.509 -0.6895 -0.0199 -0.2694
  149SAPE   H3R16465   6.584   2.732  10.526  0.7893 -2.2287 -2.1269
  149SAPE   H3S16466   6.704   2.780  10.407  1.1315  1.0483  0.1178
  149SAPE   C2416467   6.626   2.949  10.525  0.2545 -0.3789  0.8408
  149SAPE   H4R16468   6.712   3.007  10.484 -0.1570 -1.2393 -1.2853
  149SAPE   H4S16469   6.606   2.978  10.631 -1.1996  0.3417  0.3787
  149SAPE   C2516470   6.503   2.976  10.440  0.1005  0.3310  0.2272
  149SAPE   H5R16471   6.406   2.937  10.473  0.6100 -0.6912  0.5461
  149SAPE   C2616472   6.496   3.046  10.325  0.0757  0.2693  0.2247
  149SAPE   H6R16473   6.394   3.056  10.286 -0.0935 -1.4002  0.2276
  149SAPE   C2716474   6.603   3.108  10.243  0.2798 -0.3399  0.1377
  149SAPE   H7R16475   6.633   3.192  10.309 -0.4898 -0.3267  0.4776
  149SAPE   H7S16476   6.562   3.164  10.156 -0.2675  0.8263  1.1354
  149SAPE   C2816477   6.736   3.046  10.201 -0.1534 -0.4625  0.4281
  149SAPE   H8R16478   6.802   3.010  10.281 -1.3299 -1.3629  1.0213
  149SAPE   C2916479   6.790   3.026  10.076  0.2042  0.4256  0.2647
  149SAPE   H9R16480   6.889   2.984  10.052  0.1476  0.4487 -0.0140
  149SAPE  C21016481   6.719   3.067   9.947  0.0020  0.0629 -0.7131
  149SAPE  H10R16482   6.611   3.042   9.958  0.4630 -1.7941 -0.2279
  149SAPE  H10S16483   6.772   3.001   9.875  2.2785 -0.3890  1.3505
  149SAPE  C21116484   6.741   3.212   9.904  0.3472 -0.3294 -0.4327
  149SAPE  H11R16485   6.804   3.284   9.959  1.3461 -1.5272  0.0132
  149SAPE  C21216486   6.677   3.257   9.796 -0.0783  1.4451  0.1817
  149SAPE  H12R16487   6.720   3.349   9.753 -1.0864  0.5923 -2.7517
  149SAPE  C21316488   6.568   3.190   9.714  0.7208  0.6482 -0.2085
  149SAPE  H13R16489   6.480   3.258   9.704  0.0281  0.1714  2.3172
  149SAPE  H13S16490   6.518   3.110   9.774  0.0061 -0.2835 -1.9899
  149SAPE  C21416491   6.624   3.138   9.579 -0.0193  0.0981  0.0658
  149SAPE  H14R16492   6.675   3.041   9.574  0.5989  0.4216  0.0560
  149SAPE  C21516493   6.581   3.193   9.463  0.1066  0.5224 -0.0094
  149SAPE  H15R16494   6.622   3.160   9.366  0.0336  0.6306 -0.0770
  149SAPE  C21616495   6.487   3.314   9.455 -1.4029  0.0307 -0.6585
  149SAPE  H16R16496   6.510   3.379   9.542  0.4095  0.0171 -1.1218
  149SAPE  H16S16497   6.380   3.282   9.459 -1.4381  0.1537 -0.6238
  149SAPE  C21716498   6.502   3.400   9.332 -0.4263 -0.5530 -0.3525
  149SAPE  H17R16499   6.608   3.434   9.326 -0.1504 -1.6090 -1.4877
  149SAPE  H17S16500   6.437   3.490   9.345 -1.0235 -1.0019 -0.2168
  149SAPE  C21816501   6.449   3.338   9.201 -0.2159  0.6130 -0.0545
  149SAPE  H18R16502   6.340   3.360   9.199 -0.3035  0.0826 -1.8977
  149SAPE  H18S16503   6.454   3.228   9.218 -0.7371  0.7477  1.0282
  149SAPE  C21916504   6.504   3.399   9.072  0.4323  0.6384 -0.6865
  149SAPE  H19R16505   6.469   3.335   8.989  1.7446 -0.0961 -0.6874
  149SAPE  H19S16506   6.614   3.406   9.082  0.3408 -0.4502  1.3926
  149SAPE  C22016507   6.447   3.536   9.041 -0.6913  0.3708  0.8343
  149SAPE  H20R16508   6.490   3.576   8.947  0.7092  0.7528  1.6138
  149SAPE  H20S16509   6.482   3.603   9.122  0.6454 -1.4983  1.8428
  149SAPE  H20T16510   6.336   3.537   9.051 -0.7378 -1.8612  0.7830
  149SAPE   C3316511   7.149   2.881  10.160 -0.5962  0.5412  0.2733
  149SAPE   H3X16512   7.255   2.915  10.164 -0.6989  0.7781  1.1221
  149SAPE   H3Y16513   7.097   2.976  10.188 -1.7318 -0.4601  1.5929
  149SAPE   C3416514   7.120   2.843  10.014 -0.5892 -0.2081  0.3545
  149SAPE   H4X16515   7.019   2.795  10.019 -1.3661  1.2832 -0.8800
  149SAPE   H4Y16516   7.187   2.763   9.976 -0.2584  0.1564  0.1787
  149SAPE   C3516517   7.135   2.962   9.909  0.0648  0.8165 -0.9213
  149SAPE   H5X16518   7.239   3.001   9.900  0.2586  1.1285  2.1762
  149SAPE   H5Y16519   7.076   3.044   9.955 -2.1858 -0.4971 -1.4151
  149SAPE   C3616520   7.072   2.928   9.772  0.4996  0.1839 -0.5434
  149SAPE   H6X16521   6.999   2.845   9.787 -0.8060  1.6452  1.5109
  149SAPE   H6Y16522   7.148   2.879   9.708  1.0665  2.7734 -1.9490
  149SAPE   C3716523   7.020   3.057   9.702 -1.0156  0.2627 -0.2996
  149SAPE   H7X16524   7.096   3.138   9.704 -2.5430  1.7322 -0.1257
  149SAPE   H7Y16525   6.933   3.095   9.761 -1.5587  0.5536 -1.2840
  149SAPE   C3816526   6.974   3.018   9.558 -0.0935  0.3450  0.6680
  149SAPE   H8X16527   6.940   3.113   9.510  0.8230  0.8934  1.0779
  149SAPE   H8Y16528   6.888   2.949   9.550 -0.0786  0.3844  0.0964
  149SAPE   C3916529   7.085   2.968   9.464 -0.0347 -0.9307  0.1226
  149SAPE   H9X16530   7.133   2.876   9.503 -0.4415 -0.7492  1.0554
  149SAPE   H9Y16531   7.163   3.046   9.477 -0.7355 -0.2570  0.3081
  149SAPE  C31016532   7.052   2.944   9.308  0.6241 -0.0037 -0.7098
  149SAPE  H10X16533   7.008   3.041   9.276 -0.1799 -0.1101  0.0203
  149SAPE  H10Y16534   6.970   2.869   9.318 -1.6976  2.3559 -1.3955
  149SAPE  C31116535   7.176   2.901   9.237 -0.0660 -0.2063  0.0488
  149SAPE  H11X16536   7.242   2.825   9.283  1.9292  2.8645  2.4725
  149SAPE  H11Y16537   7.234   2.994   9.220 -2.1921  1.2832  0.6403
  149SAPE  C31216538   7.137   2.859   9.097 -0.4256 -0.0393  0.2423
  149SAPE  H12X16539   7.124   2.953   9.038 -1.2255  0.8307  1.7669
  149SAPE  H12Y16540   7.044   2.798   9.098 -0.6584  0.3143  0.2709
  149SAPE  C31316541   7.235   2.762   9.032  0.3225  0.2662 -0.1558
  149SAPE  H13X16542   7.248   2.684   9.110  0.5282  1.1689  0.7132
  149SAPE  H13Y16543   7.331   2.818   9.029  0.1215  0.5880 -0.7523
  149SAPE  C31416544   7.202   2.688   8.901 -0.2415  0.2084  0.2358
  149SAPE  H14X16545   7.161   2.759   8.825 -0.6177  0.9283  1.0968
  149SAPE  H14Y16546   7.115   2.622   8.924  0.3269 -1.2609 -1.7095
  149SAPE  C31516547   7.321   2.615   8.849 -0.3973  0.0348  0.6309
  149SAPE  H15X16548   7.346   2.537   8.924 -0.7292 -0.3071  0.3857
  149SAPE  H15Y16549   7.412   2.678   8.836 -0.1854 -0.0838  1.4539
  149SAPE  C31616550   7.287   2.527   8.723 -0.1820  1.2643  0.7615
  149SAPE  H16X16551   7.245   2.587   8.639 -0.5355  0.6699  0.5149
  149SAPE  H16Y16552   7.216   2.446   8.747 -0.9245  2.2363  1.8841
  149SAPE  C31716553   7.414   2.457   8.676 -0.2000 -0.3495  0.9202
  149SAPE  H17X16554   7.450   2.421   8.775  0.0136  0.7930  1.2689
  149SAPE  H17Y16555   7.484   2.532   8.633 -0.7910 -0.8948 -1.0588
  149SAPE  C31816556   7.404   2.345   8.579  0.1960  0.7945 -0.4215
  149SAPE  H18X16557   7.351   2.264   8.634  1.2805  0.6951  0.4801
  149SAPE  H18Y16558   7.500   2.298   8.548  0.6990  0.8035  1.0911
  149SAPE  H18Z16559   7.333   2.365   8.496  1.3181 -0.1236 -1.6250
  150SAPE     N16560   1.723   2.504  10.810 -0.3116  0.0609  0.5029
  150SAPE   HN116561   1.798   2.498  10.737  1.4880  1.2816  2.2030
  150SAPE   HN216562   1.670   2.593  10.804 -0.5428 -0.0325  1.1165
  150SAPE   HN316563   1.771   2.489  10.901  0.4857  1.6341  0.3531
  150SAPE   C1216564   1.639   2.382  10.778 -0.2992 -0.6599 -0.6371
  150SAPE  H12A16565   1.628   2.390  10.668 -1.3778 -1.2756 -0.5758
  150SAPE  H12B16566   1.544   2.379  10.835 -1.2201 -1.3482 -2.1774
  150SAPE   C1116567   1.719   2.244  10.801 -0.0972 -0.4200 -0.0748
  150SAPE  H11A16568   1.749   2.242  10.908 -0.9581  1.8921  0.2342
  150SAPE  H11B16569   1.809   2.255  10.737 -0.8029 -1.1062 -1.2007
  150SAPE     P16570   1.529   2.065  10.850 -0.2745  0.2147 -0.4694
  150SAPE   O1316571   1.580   1.932  10.885  0.6103  0.3415 -0.2257
  150SAPE   O1416572   1.495   2.163  10.955  0.0736  0.1100  0.0711
  150SAPE   O1216573   1.641   2.132  10.757  0.0574  0.2761  0.2172
  150SAPE   O1116574   1.404   2.042  10.761 -0.1547  0.4648 -0.3956
  150SAPE    C116575   1.423   2.006  10.623  1.1951 -0.5200 -0.0660
  150SAPE    HA16576   1.514   1.945  10.609  1.9277  0.5016  0.1687
  150SAPE    HB16577   1.336   1.942  10.598  2.2050 -1.0992 -2.2251
  150SAPE    C216578   1.424   2.113  10.515  0.0405 -0.0531 -0.1837
  150SAPE    HS16579   1.516   2.172  10.534 -0.0443  0.1585 -0.4176
  150SAPE   O2116580   1.306   2.201  10.520  0.1749 -0.4021  0.2302
  150SAPE   C2116581   1.314   2.333  10.489 -0.0828  0.2961  0.1728
  150SAPE   O2216582   1.414   2.390  10.451 -0.2607 -0.3845  0.3172
  150SAPE   C2216583   1.170   2.393  10.492  0.4749 -0.3596  0.2863
  150SAPE   H2R16584   1.140   2.402  10.599  1.7038  1.8186  0.4932
  150SAPE   H2S16585   1.179   2.498  10.455  0.2931 -0.4505 -0.0157
  150SAPE    C316586   1.440   2.056  10.370 -0.2770 -0.1030 -0.0902
  150SAPE    HX16587   1.353   1.995  10.340 -0.4832 -0.0043  0.3015
  150SAPE    HY16588   1.533   1.995  10.370 -0.7280 -0.7859  0.0004
  150SAPE   O3116589   1.450   2.160  10.274  0.0395  0.3759 -0.1649
  150SAPE   C3116590   1.570   2.211  10.255 -0.3804 -0.4314 -0.2907
  150SAPE   O3216591   1.676   2.163  10.295  0.2193  0.6120  0.1420
  150SAPE   C3216592   1.557   2.327  10.152 -0.0598 -0.5231  0.0159
  150SAPE   H2X16593   1.477   2.393  10.190  0.9666  0.3219  0.7277
  150SAPE   H2Y16594   1.535   2.290  10.049  0.3358  0.2983 -0.3659
  150SAPE   C2316595   1.070   2.310  10.415 -1.1740  0.1871 -0.1296
  150SAPE   H3R16596   0.972   2.359  10.436 -1.1531  0.2418 -0.1615
  150SAPE   H3S16597   1.068   2.210  10.463 -1.2145 -0.4581 -1.4868
  150SAPE   C2416598   1.103   2.309  10.265  0.1884 -0.5419  0.4058
  150SAPE   H4R16599   1.197   2.253  10.244  0.7533 -0.1131  1.7196
  150SAPE   H4S16600   1.113   2.410  10.220  1.7941 -0.9830 -0.2567
  150SAPE   C2516601   0.999   2.231  10.182  0.2875  0.9601 -0.0694
  150SAPE   H5R16602   0.927   2.170  10.240 -0.3997  2.6746  0.9336
  150SAPE   C2616603   0.985   2.224  10.049 -0.2453  0.1261  0.3230
  150SAPE   H6R16604   0.896   2.176  10.007  0.5097 -0.4790 -0.6142
  150SAPE   C2716605   1.077   2.295   9.945 -0.4366 -0.7170 -0.9717
  150SAPE   H7R16606   1.076   2.242   9.847  0.6286  2.0949 -2.5667
  150SAPE   H7S16607   1.180   2.269   9.977 -0.6884 -0.0990  0.3381
  150SAPE   C2816608   1.059   2.447   9.928  1.1724 -0.1084 -0.5340
  150SAPE   H8R16609   1.053   2.497  10.026  1.7629 -0.8199 -0.1307
  150SAPE   C2916610   1.048   2.512   9.812  0.2861 -0.1714  0.0288
  150SAPE   H9R16611   1.033   2.621   9.809 -0.4158 -0.2025  2.2604
  150SAPE  C21016612   1.064   2.445   9.679 -0.1528 -0.4382  0.4319
  150SAPE  H10R16613   1.001   2.493   9.600  1.8817 -0.5225 -1.2756
  150SAPE  H10S16614   1.024   2.341   9.691 -1.5436 -0.0346 -0.5301
  150SAPE  C21116615   1.205   2.451   9.631 -0.8525 -0.4101  0.4448
  150SAPE  H11R16616   1.282   2.456   9.709  1.9394 -0.3897 -2.2274
  150SAPE  C21216617   1.250   2.449   9.501  0.2463  0.1015 -0.8381
  150SAPE  H12R16618   1.356   2.477   9.487  0.4686 -0.3748 -0.1054
  150SAPE  C21316619   1.162   2.430   9.378  0.4072  0.9244  0.4894
  150SAPE  H13R16620   1.071   2.371   9.402  2.5713 -4.0856 -3.0227
  150SAPE  H13S16621   1.213   2.364   9.306 -0.0570 -0.1913  1.1800
  150SAPE  C21416622   1.147   2.563   9.310  0.1752 -0.1731 -0.5326
  150SAPE  H14R16623   1.088   2.631   9.373  0.1676 -0.1273 -0.5893
  150SAPE  C21516624   1.200   2.600   9.190  0.2123  0.2884 -0.1764
  150SAPE  H15R16625   1.176   2.704   9.162 -2.8183 -0.9540 -2.4366
  150SAPE  C21616626   1.274   2.519   9.094  0.5506  0.5434 -0.2553
  150SAPE  H16R16627   1.226   2.548   8.998 -1.5315  0.6239  0.7671
  150SAPE  H16S16628   1.279   2.410   9.118 -1.1074  0.9032  1.9640
  150SAPE  C21716629   1.425   2.559   9.078 -0.0754  0.3532  1.1542
  150SAPE  H17R16630   1.463   2.584   9.180 -1.0717  0.1389  1.5787
  150SAPE  H17S16631   1.443   2.652   9.020 -2.3006 -0.1422 -0.3882
  150SAPE  C21816632   1.506   2.448   9.017  0.3987  0.1697  0.0975
  150SAPE  H18R16633   1.474   2.419   8.915 -1.7856 -1.9610  1.3387
  150SAPE  H18S16634   1.489   2.358   9.079  2.1793  0.7678  1.5180
  150SAPE  C21916635   1.653   2.481   9.005 -0.2033  0.7307 -0.0528
  150SAPE  H19R16636   1.692   2.502   9.107  0.2732  0.4965 -0.1834
  150SAPE  H19S16637   1.663   2.563   8.932  1.7628 -0.3521 -1.0421
  150SAPE  C22016638   1.740   2.365   8.953  0.7309  0.0387 -0.6990
  150SAPE  H20R16639   1.848   2.381   8.970  0.5631  1.0103 -0.5419
  150SAPE  H20S16640   1.730   2.361   8.842  1.3061 -1.8868 -0.7003
  150SAPE  H20T16641   1.711   2.268   8.999 -1.2576  1.3076  0.8025
  150SAPE   C3316642   1.692   2.405  10.136 -0.7458 -0.2942  0.3012
  150SAPE   H3X16643   1.772   2.348  10.084 -0.6602 -0.1354  0.2576
  150SAPE   H3Y16644   1.728   2.436  10.236  1.5272  1.7377 -1.0916
  150SAPE   C3416645   1.683   2.533  10.051  0.2049  0.2086 -0.5094
  150SAPE   H4X16646   1.644   2.497   9.953 -1.3926  0.6086 -0.0413
  150SAPE   H4Y16647   1.780   2.585  10.034  1.0637 -1.7733 -1.9729
  150SAPE   C3516648   1.587   2.636  10.105 -0.3937 -0.1315  0.6211
  150SAPE   H5X16649   1.629   2.655  10.206  0.0970 -0.5361  0.4947
  150SAPE   H5Y16650   1.483   2.599  10.117  0.0856 -1.5154  0.5646
  150SAPE   C3616651   1.584   2.767  10.024 -0.1742  0.1482 -0.4385
  150SAPE   H6X16652   1.680   2.821  10.013  0.7904 -1.3639  0.4461
  150SAPE   H6Y16653   1.526   2.834  10.091 -1.4221 -0.9131 -0.4388
  150SAPE   C3716654   1.533   2.756   9.885  0.2498 -0.1027 -0.9610
  150SAPE   H7X16655   1.426   2.727   9.885  0.6729 -1.7640 -0.1095
  150SAPE   H7Y16656   1.597   2.679   9.837  0.2707 -1.0480  0.5289
  150SAPE   C3816657   1.533   2.889   9.805  0.1675  0.7637 -0.2063
  150SAPE   H8X16658   1.639   2.915   9.784  0.9693 -1.3281  1.0495
  150SAPE   H8Y16659   1.480   2.975   9.851 -1.0688  0.1523 -0.4756
  150SAPE   C3916660   1.471   2.862   9.660  0.2355 -0.7028 -0.7988
  150SAPE   H9X16661   1.363   2.842   9.676  0.6530 -0.7130  2.2066
  150SAPE   H9Y16662   1.507   2.763   9.625  0.2053 -0.9189 -0.2204
  150SAPE  C31016663   1.480   2.969   9.557 -0.4767  0.0486  0.5380
  150SAPE  H10X16664   1.547   3.052   9.587  0.7069 -0.9326  0.6476
  150SAPE  H10Y16665   1.379   3.012   9.543  0.8256  2.9056 -0.3676
  150SAPE  C31116666   1.526   2.934   9.419 -0.8766 -0.2263 -0.3623
  150SAPE  H11X16667   1.519   3.023   9.354 -2.3574 -2.0018 -2.6935
  150SAPE  H11Y16668   1.456   2.857   9.381 -0.1829 -1.0077 -0.0847
  150SAPE  C31216669   1.672   2.890   9.419 -0.3536  0.3935 -0.5527
  150SAPE  H12X16670   1.687   2.802   9.485  0.0299  1.0512  0.2323
  150SAPE  H12Y16671   1.724   2.982   9.452  1.8615 -1.8373  2.4686
  150SAPE  C31316672   1.722   2.857   9.275  0.1840 -0.3730  0.3687
  150SAPE  H13X16673   1.703   2.944   9.208 -1.0669 -0.4599  0.5957
  150SAPE  H13Y16674   1.650   2.787   9.228  0.4493  0.3230 -1.0786
  150SAPE  C31416675   1.869   2.817   9.271 -0.6165 -0.1652  0.0117
  150SAPE  H14X16676   1.885   2.712   9.303  0.0701 -0.3195 -0.8006
  150SAPE  H14Y16677   1.921   2.891   9.336 -2.4552  0.5947  0.6607
  150SAPE  C31516678   1.918   2.826   9.127 -0.1589 -1.3143 -0.5393
  150SAPE  H15X16679   1.833   2.800   9.060  0.0337 -0.6016 -1.0502
  150SAPE  H15Y16680   1.999   2.751   9.110 -1.1275 -2.4437 -0.2889
  150SAPE  C31616681   1.959   2.968   9.089  0.1429 -0.4080  0.0855
  150SAPE  H16X16682   1.896   3.050   9.131 -1.5618 -1.1314 -1.0296
  150SAPE  H16Y16683   1.950   2.973   8.979 -0.5099 -0.6193  0.1281
  150SAPE  C31716684   2.110   2.991   9.124  0.1895 -0.2679  0.5880
  150SAPE  H17X16685   2.166   2.905   9.082 -0.8000  0.4209 -2.2825
  150SAPE  H17Y16686   2.134   2.985   9.232  0.6357 -1.1677  0.4445
  150SAPE  C31816687   2.160   3.127   9.073  0.2561  0.5414 -0.9277
  150SAPE  H18X16688   2.105   3.213   9.117  0.3479 -1.4330  3.2440
  150SAPE  H18Y16689   2.150   3.132   8.962 -1.5916  1.2004 -0.7581
  150SAPE  H18Z16690   2.269   3.141   9.090 -0.1301 -0.0437  2.1500
  151SAPE     N16691   5.384   5.806  10.639  0.1284 -0.0625  0.4153
  151SAPE   HN116692   5.401   5.710  10.677  0.6372 -1.2889 -2.7449
  151SAPE   HN216693   5.472   5.855  10.665  0.2192 -0.3470  0.6430
  151SAPE   HN316694   5.310   5.858  10.690 -0.3635 -1.0897  0.7615
  151SAPE   C1216695   5.354   5.822  10.496  0.3806 -0.5814 -0.5679
  151SAPE  H12A16696   5.296   5.738  10.451 -0.1537 -0.3729 -0.2726
  151SAPE  H12B16697   5.452   5.826  10.444 -0.7143 -1.8281 -2.8303
  151SAPE   C1116698   5.274   5.956  10.468  0.3932  0.1800 -0.0228
  151SAPE  H11A16699   5.188   5.965  10.537 -0.8704  1.3368 -1.7068
  151SAPE  H11B16700   5.225   5.955  10.368 -0.4039  0.5572  0.3648
  151SAPE     P16701   5.414   6.160  10.361  0.4114  0.0164  0.5454
  151SAPE   O1316702   5.354   6.294  10.369  0.3177  0.2841 -0.1506
  151SAPE   O1416703   5.559   6.148  10.369 -0.1561  0.2892  0.0576
  151SAPE   O1216704   5.357   6.073  10.478 -0.3776 -0.3681 -0.0919
  151SAPE   O1116705   5.365   6.094  10.226 -0.4972  0.6244  0.3382
  151SAPE    C116706   5.452   6.034  10.126 -0.1323 -0.5400 -0.6118
  151SAPE    HA16707   5.540   5.977  10.162 -0.6894 -0.7508  0.4265
  151SAPE    HB16708   5.398   5.951  10.075 -1.8292  0.5216 -0.5978
  151SAPE    C216709   5.525   6.145  10.030  0.2168 -0.2220 -0.0591
  151SAPE    HS16710   5.538   6.240  10.087  0.2156 -1.1579  1.5415
  151SAPE   O2116711   5.446   6.169   9.919 -0.3728  0.0268  0.3908
  151SAPE   C2116712   5.335   6.238   9.942 -0.5265 -0.7933 -0.2867
  151SAPE   O2216713   5.321   6.312  10.037 -0.3263  0.2596  0.1355
  151SAPE   C2216714   5.233   6.212   9.834  1.0149  0.3430  0.4782
  151SAPE   H2R16715   5.247   6.115   9.782 -1.2339 -0.4866  1.3640
  151SAPE   H2S16716   5.135   6.198   9.884  0.2794 -1.2857 -1.3829
  151SAPE    C316717   5.666   6.101   9.989 -0.0472 -0.1165  0.2354
  151SAPE    HX16718   5.663   5.991   9.969  1.2754  0.3917 -3.2663
  151SAPE    HY16719   5.744   6.128  10.062  0.8401  0.4937 -0.9178
  151SAPE   O3116720   5.719   6.173   9.874  0.0969  0.1665 -0.3879
  151SAPE   C3116721   5.689   6.117   9.759  0.1882  0.6420 -0.2806
  151SAPE   O3216722   5.627   6.013   9.744  0.1780  0.2466  0.2077
  151SAPE   C3216723   5.755   6.209   9.651  0.3256 -0.8108  0.0821
  151SAPE   H2X16724   5.862   6.207   9.679  0.6260  1.3899 -0.8039
  151SAPE   H2Y16725   5.713   6.311   9.665 -0.8130 -1.4443  1.4272
  151SAPE   C2316726   5.216   6.332   9.739 -0.2353  0.5803  0.2260
  151SAPE   H3R16727   5.313   6.347   9.688 -0.3373 -1.0582 -0.4527
  151SAPE   H3S16728   5.182   6.419   9.799 -0.1985 -0.6046  2.0129
  151SAPE   C2416729   5.099   6.317   9.638 -0.7970 -0.6257 -0.3436
  151SAPE   H4R16730   5.093   6.408   9.574 -3.5578 -0.7127 -0.2803
  151SAPE   H4S16731   5.006   6.320   9.699 -1.1217 -0.7071 -0.8309
  151SAPE   C2516732   5.116   6.193   9.555  0.4581 -0.3237  0.3583
  151SAPE   H5R16733   5.100   6.096   9.606 -0.2665 -0.5909 -0.3679
  151SAPE   C2616734   5.162   6.182   9.437  0.2728  0.5517  0.4712
  151SAPE   H6R16735   5.183   6.082   9.396 -0.4970  0.8381 -0.6317
  151SAPE   C2716736   5.199   6.302   9.355  0.2619  0.0617 -0.2484
  151SAPE   H7R16737   5.249   6.381   9.416  2.9142 -2.6346  1.2036
  151SAPE   H7S16738   5.114   6.349   9.302  0.4222  0.5864 -0.0492
  151SAPE   C2816739   5.301   6.262   9.258 -0.1511  0.1582  0.3257
  151SAPE   H8R16740   5.405   6.270   9.295 -0.4695  0.9272  1.0710
  151SAPE   C2916741   5.277   6.219   9.137  0.9265  0.2461 -0.2227
  151SAPE   H9R16742   5.366   6.188   9.081  1.0897 -2.1668  1.2909
  151SAPE  C21016743   5.144   6.207   9.065 -0.2112 -0.0795  0.2220
  151SAPE  H10R16744   5.144   6.267   8.971  0.2393  0.4782  0.5760
  151SAPE  H10S16745   5.063   6.256   9.122 -0.3899 -0.1429  0.0241
  151SAPE  C21116746   5.090   6.072   9.040 -0.0752 -0.5761  0.1197
  151SAPE  H11R16747   5.038   6.022   9.123 -0.5385  1.3491  1.0222
  151SAPE  C21216748   5.090   6.016   8.915 -0.4663  0.0888  0.9465
  151SAPE  H12R16749   5.049   5.915   8.902 -1.7353  0.5414  1.3183
  151SAPE  C21316750   5.144   6.081   8.785 -0.3025  0.1679 -0.4831
  151SAPE  H13R16751   5.124   6.189   8.769  0.4884  0.6213  1.4704
  151SAPE  H13S16752   5.099   6.021   8.703 -0.3834 -1.1283  0.4830
  151SAPE  C21416753   5.291   6.060   8.794 -0.3081 -0.3470 -0.1563
  151SAPE  H14R16754   5.334   6.063   8.895  0.7179  0.4429 -0.6125
  151SAPE  C21516755   5.375   6.049   8.689  1.1062  0.0009 -0.1259
  151SAPE  H15R16756   5.479   6.022   8.711  1.4696  0.3338 -1.3666
  151SAPE  C21616757   5.340   6.064   8.543 -0.3172 -0.0948  0.2985
  151SAPE  H16R16758   5.232   6.089   8.534 -0.6961 -1.6204  0.5016
  151SAPE  H16S16759   5.352   5.964   8.496  0.4351  1.3138 -2.6625
  151SAPE  C21716760   5.430   6.165   8.465 -0.4693 -0.2442  0.3949
  151SAPE  H17R16761   5.535   6.126   8.467 -1.5015 -3.2273 -0.5754
  151SAPE  H17S16762   5.429   6.262   8.519 -1.0249 -0.1570  0.2263
  151SAPE  C21816763   5.396   6.201   8.320  0.5411  0.4815 -0.4223
  151SAPE  H18R16764   5.291   6.239   8.313  0.6823  0.5415 -2.7828
  151SAPE  H18S16765   5.397   6.107   8.261 -1.5790  0.9990 -1.3652
  151SAPE  C21916766   5.502   6.289   8.247  0.7356  0.2975 -0.5135
  151SAPE  H19R16767   5.601   6.239   8.250 -0.7739 -2.8017  0.8048
  151SAPE  H19S16768   5.513   6.381   8.307 -0.3377  0.2753 -0.2684
  151SAPE  C22016769   5.472   6.310   8.102 -0.8279 -0.0523 -0.5982
  151SAPE  H20R16770   5.558   6.351   8.044  0.4138 -3.5032 -1.3298
  151SAPE  H20S16771   5.379   6.363   8.074 -1.1936 -0.6733 -0.5736
  151SAPE  H20T16772   5.462   6.217   8.043  0.0515  0.7746 -2.0632
  151SAPE   C3316773   5.742   6.153   9.507 -0.1552 -0.5265 -0.2505
  151SAPE   H3X16774   5.642   6.113   9.480  1.2225 -1.5543 -4.0955
  151SAPE   H3Y16775   5.812   6.068   9.499  1.3418  0.3905  2.6304
  151SAPE   C3416776   5.796   6.254   9.404  0.8678 -0.1497  0.2436
  151SAPE   H4X16777   5.840   6.203   9.315 -0.8311  1.8706 -1.8250
  151SAPE   H4Y16778   5.877   6.309   9.454 -0.3374  0.5894  1.4133
  151SAPE   C3516779   5.683   6.355   9.368 -0.0512  0.3879  0.4580
  151SAPE   H5X16780   5.625   6.401   9.451  1.0509  1.6729  0.5300
  151SAPE   H5Y16781   5.597   6.310   9.314 -0.5962  0.7886  0.9774
  151SAPE   C3616782   5.744   6.468   9.283 -0.4265  0.3320 -1.0070
  151SAPE   H6X16783   5.854   6.467   9.299 -0.5750 -0.6870 -0.0426
  151SAPE   H6Y16784   5.700   6.568   9.305  0.3095  1.1212 -2.9749
  151SAPE   C3716785   5.723   6.442   9.134  0.6590 -0.1735  0.9523
  151SAPE   H7X16786   5.623   6.402   9.111 -0.3123  1.7370  1.7066
  151SAPE   H7Y16787   5.802   6.374   9.096 -0.6864 -0.3584 -1.6047
  151SAPE   C3816788   5.734   6.573   9.052  0.0571 -0.2643  0.1647
  151SAPE   H8X16789   5.837   6.611   9.073  0.4119 -1.7810  1.2532
  151SAPE   H8Y16790   5.669   6.649   9.099  0.5419 -1.8773  3.6065
  151SAPE   C3916791   5.705   6.553   8.903 -0.0948 -0.0256  0.3732
  151SAPE   H9X16792   5.726   6.654   8.861 -0.2403 -0.1939 -0.1073
  151SAPE   H9Y16793   5.599   6.528   8.885  0.0223  0.0600 -0.4409
  151SAPE  C31016794   5.801   6.462   8.822  0.0155  0.2116  0.3895
  151SAPE  H10X16795   5.805   6.363   8.873  1.7411  0.3319  0.5346
  151SAPE  H10Y16796   5.906   6.497   8.822 -0.5922  2.1783 -2.0036
  151SAPE  C31116797   5.744   6.451   8.683  0.1376 -0.3279 -0.2945
  151SAPE  H11X16798   5.653   6.513   8.674  0.1620 -0.5414 -2.1596
  151SAPE  H11Y16799   5.701   6.350   8.669 -1.8785  0.8814 -3.2068
  151SAPE  C31216800   5.828   6.479   8.557 -0.3222 -0.2812  0.5330
  151SAPE  H12X16801   5.928   6.432   8.561  0.6034  1.6543  0.6358
  151SAPE  H12Y16802   5.851   6.587   8.554  0.3953 -0.4503 -0.9909
  151SAPE  C31316803   5.749   6.444   8.431 -0.0381  0.6099  0.0755
  151SAPE  H13X16804   5.641   6.461   8.451  0.0440  0.1906  0.9071
  151SAPE  H13Y16805   5.752   6.334   8.414 -0.4586  0.6256 -0.1020
  151SAPE  C31416806   5.802   6.501   8.302  0.3740  0.0385 -0.5048
  151SAPE  H14X16807   5.798   6.611   8.314 -0.4715 -0.2172  1.7212
  151SAPE  H14Y16808   5.748   6.460   8.214 -2.0753  0.7296  0.6381
  151SAPE  C31516809   5.952   6.486   8.272  0.4989 -0.0648  0.5491
  151SAPE  H15X16810   5.969   6.378   8.252 -0.6929 -0.4780  1.6727
  151SAPE  H15Y16811   6.018   6.500   8.361 -0.0594 -0.3883  1.0141
  151SAPE  C31616812   6.011   6.575   8.162 -0.5963  0.3045 -0.5569
  151SAPE  H16X16813   5.969   6.678   8.167 -2.6640 -0.5539  0.0473
  151SAPE  H16Y16814   5.984   6.528   8.065  0.5577 -0.6092 -0.4407
  151SAPE  C31716815   6.165   6.581   8.153 -0.2136 -0.5890  0.2398
  151SAPE  H17X16816   6.178   6.639   8.059 -1.0065 -1.3463 -0.3417
  151SAPE  H17Y16817   6.202   6.478   8.135  0.8869  0.2053 -2.2166
  151SAPE  C31816818   6.245   6.647   8.263 -0.2767 -0.2139 -0.0315
  151SAPE  H18X16819   6.234   6.757   8.264 -1.5958 -0.3495  1.6389
  151SAPE  H18Y16820   6.350   6.628   8.232 -0.2732  1.4673 -1.1211
  151SAPE  H18Z16821   6.222   6.602   8.362  0.7149 -0.8895 -0.0934
  152SAPE     N16822   0.379   5.627  10.834  0.7654 -0.1920 -0.4574
  152SAPE   HN116823   0.289   5.675  10.817  0.8624  1.0018  2.1346
  152SAPE   HN216824   0.389   5.539  10.779  1.2089 -1.1657  1.1560
  152SAPE   HN316825   0.369   5.596  10.933 -1.8013 -1.6567 -1.1250
  152SAPE   C1216826   0.495   5.715  10.823  0.1891 -0.3069  0.0423
  152SAPE  H12A16827   0.582   5.647  10.826 -1.4901 -2.5778 -0.7432
  152SAPE  H12B16828   0.489   5.782  10.911  2.0851  0.3459 -0.3141
  152SAPE   C1116829   0.493   5.799  10.686 -0.5389 -0.0860  0.2518
  152SAPE  H11A16830   0.456   5.734  10.604 -1.7559  0.5360  0.2949
  152SAPE  H11B16831   0.600   5.827  10.673 -0.5366 -0.2602 -0.0970
  152SAPE     P16832   0.364   6.003  10.572 -0.2689 -0.0865  0.1071
  152SAPE   O1316833   0.232   6.057  10.602  0.4936 -0.1177 -0.3371
  152SAPE   O1416834   0.470   6.099  10.540 -0.8039 -0.8507  0.0499
  152SAPE   O1216835   0.412   5.920  10.694 -0.2601 -0.4702  0.7328
  152SAPE   O1116836   0.341   5.889  10.456  0.4356  0.3414  0.5243
  152SAPE    C116837   0.227   5.805  10.464 -0.1214  0.8076 -0.0548
  152SAPE    HA16838   0.197   5.773  10.566 -1.7687 -1.8582 -1.3394
  152SAPE    HB16839   0.143   5.861  10.418 -0.3259  0.8052  0.3126
  152SAPE    C216840   0.242   5.675  10.377 -0.5988  0.3569 -0.2175
  152SAPE    HS16841   0.347   5.643  10.394 -0.7793 -0.9400 -1.4519
  152SAPE   O2116842   0.227   5.727  10.241 -0.6056 -0.8912 -0.0469
  152SAPE   C2116843   0.315   5.691  10.153  0.3001  0.2956  0.6682
  152SAPE   O2216844   0.409   5.618  10.177 -0.2867 -0.5216  0.0534
  152SAPE   C2216845   0.280   5.756  10.024  0.0948  0.0805  0.5554
  152SAPE   H2R16846   0.212   5.689   9.967 -0.0740  1.2945 -0.7166
  152SAPE   H2S16847   0.214   5.844  10.039 -0.5741  0.0960 -2.2390
  152SAPE    C316848   0.145   5.561  10.408  0.0605 -0.1033 -0.5229
  152SAPE    HX16849   0.046   5.599  10.375  0.6502  1.3067 -0.6712
  152SAPE    HY16850   0.134   5.532  10.515  0.9950 -0.0941 -0.4261
  152SAPE   O3116851   0.177   5.452  10.318 -0.2941  0.4729  0.1994
  152SAPE   C3116852   0.219   5.339  10.371  0.5789  0.3006 -0.3383
  152SAPE   O3216853   0.229   5.312  10.493 -0.2006 -0.5740  0.3552
  152SAPE   C3216854   0.257   5.226  10.276 -0.4556 -0.3381  0.0446
  152SAPE   H2X16855   0.167   5.162  10.267 -0.4135 -0.3714 -0.1565
  152SAPE   H2Y16856   0.342   5.175  10.326 -0.2881  0.3189  0.4479
  152SAPE   C2316857   0.403   5.796   9.939 -1.2351  0.0131  0.3876
  152SAPE   H3R16858   0.491   5.729   9.943 -0.8370  0.5069 -0.1028
  152SAPE   H3S16859   0.439   5.894   9.975 -2.1614  0.7338 -0.6054
  152SAPE   C2416860   0.377   5.816   9.791 -0.2933  0.1462 -0.3849
  152SAPE   H4R16861   0.327   5.728   9.746 -2.5867 -0.1113  2.5021
  152SAPE   H4S16862   0.469   5.831   9.730 -1.6615  0.4971 -2.3995
  152SAPE   C2516863   0.295   5.935   9.759 -0.6541  0.0229  0.0433
  152SAPE   H5R16864   0.213   5.956   9.829 -0.0190  1.3299  0.4155
  152SAPE   C2616865   0.296   6.008   9.641  0.4906  0.5294 -0.4471
  152SAPE   H6R16866   0.239   6.102   9.647  0.4677  0.4553  0.6155
  152SAPE   C2716867   0.380   5.992   9.520  0.3415  0.9170  0.2666
  152SAPE   H7R16868   0.386   5.883   9.502  0.8170  1.0096 -0.1374
  152SAPE   H7S16869   0.487   6.007   9.545  0.0966 -0.0702  2.0318
  152SAPE   C2816870   0.349   6.073   9.398 -0.4477 -0.1863  0.2991
  152SAPE   H8R16871   0.309   6.175   9.403  0.0806  0.0344  0.1216
  152SAPE   C2916872   0.372   6.025   9.273 -0.2421  0.9679  0.1365
  152SAPE   H9R16873   0.348   6.087   9.185  0.0657 -0.2634 -0.8174
  152SAPE  C21016874   0.446   5.896   9.251  0.0906  0.1332 -0.1513
  152SAPE  H10R16875   0.401   5.823   9.322  0.4142  1.5436  1.5454
  152SAPE  H10S16876   0.556   5.897   9.265 -0.0965 -0.1437  1.4193
  152SAPE  C21116877   0.426   5.842   9.107 -0.1397  0.3696 -0.6067
  152SAPE  H11R16878   0.331   5.869   9.059 -0.5794 -0.0245  0.0283
  152SAPE  C21216879   0.505   5.761   9.030  0.0451  0.4860  0.3595
  152SAPE  H12R16880   0.467   5.726   8.933 -0.2596 -0.8380  0.9460
  152SAPE  C21316881   0.647   5.709   9.059 -0.6396  0.0229  0.4951
  152SAPE  H13R16882   0.630   5.631   9.137  1.7799 -2.0731 -0.9955
  152SAPE  H13S16883   0.709   5.785   9.110 -0.5094  0.9508 -1.0124
  152SAPE  C21416884   0.718   5.656   8.934 -0.0084 -0.3087  0.4785
  152SAPE  H14R16885   0.776   5.733   8.881 -1.0867 -0.7617 -1.3952
  152SAPE  C21516886   0.706   5.541   8.866  0.1245  0.5267  0.2767
  152SAPE  H15R16887   0.734   5.546   8.760  0.0100 -0.5953  0.1890
  152SAPE  C21616888   0.611   5.434   8.899  1.1186 -0.8296  0.1703
  152SAPE  H16R16889   0.550   5.466   8.986  1.0211 -0.3146 -0.0834
  152SAPE  H16S16890   0.660   5.337   8.923 -1.3185 -2.0641  0.2842
  152SAPE  C21716891   0.515   5.423   8.781  0.0146 -0.2628 -0.3606
  152SAPE  H17R16892   0.483   5.524   8.747 -1.3098 -0.7054 -0.4462
  152SAPE  H17S16893   0.420   5.371   8.805  0.8892 -2.6142 -1.8130
  152SAPE  C21816894   0.578   5.353   8.659  0.9405  0.0480  0.0364
  152SAPE  H18R16895   0.605   5.249   8.689  3.4395  1.0218  1.3516
  152SAPE  H18S16896   0.669   5.407   8.624  2.4894 -2.1031  0.6324
  152SAPE  C21916897   0.483   5.334   8.539  0.2909 -0.5438 -0.0806
  152SAPE  H19R16898   0.527   5.289   8.448 -0.1473  1.6821 -1.4264
  152SAPE  H19S16899   0.434   5.429   8.511  1.8669  0.0806 -0.7990
  152SAPE  C22016900   0.360   5.251   8.575 -0.3853 -0.0679  0.6436
  152SAPE  H20R16901   0.353   5.156   8.516 -0.4400 -1.0270  2.1810
  152SAPE  H20S16902   0.266   5.306   8.552 -0.2315  0.2886  0.8789
  152SAPE  H20T16903   0.353   5.236   8.684  2.0209  0.4032  0.8785
  152SAPE   C3316904   0.310   5.270  10.134  0.0102  0.1688 -0.1436
  152SAPE   H3X16905   0.347   5.173  10.095 -2.2655 -0.5337 -0.5891
  152SAPE   H3Y16906   0.396   5.341  10.134 -1.0715  1.4997 -0.8308
  152SAPE   C3416907   0.195   5.330  10.044 -0.7238  0.4937 -1.2439
  152SAPE   H4X16908   0.154   5.419  10.094  1.2904  0.4938  0.4699
  152SAPE   H4Y16909   0.116   5.253  10.036  1.2883 -1.7992 -0.0089
  152SAPE   C3516910   0.245   5.372   9.907 -0.2125 -0.4246 -0.4549
  152SAPE   H5X16911   0.285   5.289   9.844 -1.4541 -0.8031 -0.7633
  152SAPE   H5Y16912   0.316   5.457   9.906 -0.6688 -0.0207  0.5429
  152SAPE   C3616913   0.126   5.429   9.826 -0.5453  0.1155  0.4861
  152SAPE   H6X16914   0.093   5.510   9.894  1.3743  1.5344 -0.2571
  152SAPE   H6Y16915   0.050   5.347   9.822  0.4760 -0.9079  1.9309
  152SAPE   C3716916   0.165   5.488   9.687  0.1816  1.3950  0.1043
  152SAPE   H7X16917   0.178   5.402   9.618  0.6354  0.6325  1.1304
  152SAPE   H7Y16918   0.265   5.536   9.689 -0.5186  2.8581  0.3006
  152SAPE   C3816919   0.065   5.601   9.642 -0.0713  0.4007 -0.2238
  152SAPE   H8X16920   0.092   5.690   9.702  1.5517 -1.2187  1.5172
  152SAPE   H8Y16921  -0.040   5.570   9.661  0.1913  0.8316  1.9938
  152SAPE   C3916922   0.075   5.627   9.486  0.3806  0.3299  0.5278
  152SAPE   H9X16923   0.037   5.539   9.430  0.8136 -0.0399  0.8062
  152SAPE   H9Y16924   0.182   5.640   9.458  0.2555  0.3788  0.0643
  152SAPE  C31016925  -0.008   5.743   9.441  0.9611 -0.6271  0.9348
  152SAPE  H10X16926   0.064   5.828   9.446  0.3203 -0.1631  2.6558
  152SAPE  H10Y16927  -0.091   5.766   9.511  0.5349  1.3578 -0.1756
  152SAPE  C31116928  -0.065   5.732   9.296 -0.2023  0.4399  0.0931
  152SAPE  H11X16929  -0.122   5.824   9.273 -1.2766 -0.1057  0.5624
  152SAPE  H11Y16930  -0.131   5.643   9.292  1.9163 -1.3091  2.0444
  152SAPE  C31216931   0.044   5.724   9.186 -0.4246 -0.4814 -0.5492
  152SAPE  H12X16932   0.116   5.643   9.208 -0.8716  0.0866  3.2805
  152SAPE  H12Y16933   0.100   5.819   9.175 -1.2117  0.2311  1.3385
  152SAPE  C31316934  -0.011   5.693   9.043  0.0006  0.0218  0.7311
  152SAPE  H13X16935  -0.053   5.789   9.006  1.4686  0.0674 -0.8405
  152SAPE  H13Y16936  -0.089   5.615   9.046 -0.4478  0.4058 -0.6803
  152SAPE  C31416937   0.084   5.621   8.947 -0.2127 -0.5532 -0.4428
  152SAPE  H14X16938   0.102   5.516   8.979 -1.6042 -0.0834  1.9890
  152SAPE  H14Y16939   0.175   5.684   8.938  0.3120 -1.0691  0.9787
  152SAPE  C31516940   0.016   5.615   8.806  0.8020 -0.2600 -0.0949
  152SAPE  H15X16941  -0.023   5.716   8.783  2.6793  0.3055 -0.8598
  152SAPE  H15Y16942  -0.075   5.551   8.813 -0.0804  0.9425 -0.4152
  152SAPE  C31616943   0.110   5.568   8.695  0.4233  0.0298 -0.0651
  152SAPE  H16X16944   0.156   5.469   8.709 -0.8405 -0.3712  1.4108
  152SAPE  H16Y16945   0.191   5.643   8.682  1.9846 -1.4985  0.6997
  152SAPE  C31716946   0.034   5.556   8.555 -0.2517  0.5420  0.6911
  152SAPE  H17X16947  -0.029   5.644   8.531 -0.9824 -0.3721 -0.9026
  152SAPE  H17Y16948  -0.039   5.473   8.574 -0.0133 -0.5565 -2.8127
  152SAPE  C31816949   0.123   5.527   8.434  0.3636  0.2675  0.0299
  152SAPE  H18X16950   0.071   5.474   8.351  1.6468  1.9497 -1.8845
  152SAPE  H18Y16951   0.219   5.481   8.465  0.1002 -1.4789 -1.6602
  152SAPE  H18Z16952   0.161   5.623   8.394 -0.1077 -0.1379 -1.4278
  153SAPE     N16953   6.698   0.684  10.585 -0.3367  0.4136  0.0959
  153SAPE   HN116954   6.633   0.670  10.664  0.1384 -1.7998  0.1356
  153SAPE   HN216955   6.774   0.613  10.578  0.5909  1.2399  1.6899
  153SAPE   HN316956   6.738   0.779  10.599  0.0156  0.5024 -1.3911
  153SAPE   C1216957   6.624   0.672  10.456 -0.5253  0.2073  0.5402
  153SAPE  H12A16958   6.682   0.741  10.391  1.6557 -0.5214  1.6526
  153SAPE  H12B16959   6.516   0.696  10.463 -0.7884 -0.7971  0.0833
  153SAPE   C1116960   6.632   0.525  10.403 -0.1162  0.4947  0.2061
  153SAPE  H11A16961   6.738   0.505  10.378  0.2708  1.4342  1.0772
  153SAPE  H11B16962   6.567   0.520  10.313 -0.1995 -0.0846  0.2974
  153SAPE     P16963   6.442   0.364  10.504  0.2173 -0.1021 -0.4426
  153SAPE   O1316964   6.440   0.251  10.591  0.5832  0.4231  0.1753
  153SAPE   O1416965   6.344   0.471  10.533 -0.2960 -0.6652 -0.2916
  153SAPE   O1216966   6.585   0.432  10.503 -0.2163 -0.1589 -0.1493
  153SAPE   O1116967   6.403   0.323  10.357  0.0378  0.1646 -0.2402
  153SAPE    C116968   6.432   0.188  10.310 -0.0207 -0.8281 -0.0897
  153SAPE    HA16969   6.430   0.108  10.387  0.7615 -1.9270 -1.1890
  153SAPE    HB16970   6.349   0.164  10.240 -0.1713  1.3438 -0.6740
  153SAPE    C216971   6.570   0.175  10.241 -0.0353 -0.8031 -0.0308
  153SAPE    HS16972   6.653   0.175  10.314 -0.2346 -0.5378  0.1943
  153SAPE   O2116973   6.588   0.280  10.144  0.2496 -0.6601 -0.2507
  153SAPE   C2116974   6.712   0.308  10.110  0.6081 -0.4644 -0.1879
  153SAPE   O2216975   6.809   0.267  10.171 -0.3462  0.2634  0.7999
  153SAPE   C2216976   6.704   0.402   9.982  0.0403  0.4513 -0.5066
  153SAPE   H2R16977   6.599   0.410   9.946 -0.1140  0.7507  0.0119
  153SAPE   H2S16978   6.743   0.497  10.023  0.7315  0.4246 -1.0915
  153SAPE    C316979   6.568   0.040  10.174 -0.0972  0.7317  0.7060
  153SAPE    HX16980   6.534  -0.036  10.247 -1.7533  2.3007  1.6116
  153SAPE    HY16981   6.674   0.019  10.147 -0.5786 -0.8096 -0.0335
  153SAPE   O3116982   6.468   0.028  10.071  0.1065  0.2037  0.4377
  153SAPE   C3116983   6.518   0.019   9.948 -0.2027 -0.3280  0.8342
  153SAPE   O3216984   6.630   0.044   9.920  0.1209  0.0390 -0.7325
  153SAPE   C3216985   6.399  -0.007   9.853 -0.1717  0.0121 -0.7437
  153SAPE   H2X16986   6.317   0.065   9.878  0.0237 -0.2596  0.7279
  153SAPE   H2Y16987   6.342  -0.094   9.894  0.1829  1.1600  2.3452
  153SAPE   C2316988   6.793   0.355   9.865  0.1640  0.1452  0.0949
  153SAPE   H3R16989   6.761   0.255   9.828 -1.1334  1.1387 -1.5512
  153SAPE   H3S16990   6.902   0.352   9.888  0.0678  0.0555  0.5336
  153SAPE   C2416991   6.785   0.448   9.742  0.0652 -0.2699 -0.8034
  153SAPE   H4R16992   6.853   0.414   9.661 -0.3426  1.8672 -2.0876
  153SAPE   H4S16993   6.831   0.546   9.770 -0.9306  0.7884 -2.7580
  153SAPE   C2516994   6.651   0.461   9.685 -0.2621  0.3564 -0.8826
  153SAPE   H5R16995   6.564   0.416   9.736 -0.6621  1.0251 -0.9689
  153SAPE   C2616996   6.622   0.547   9.580  0.0626 -0.1481  0.1279
  153SAPE   H6R16997   6.520   0.540   9.539  0.2227  1.0151 -0.4980
  153SAPE   C2716998   6.717   0.640   9.503 -0.2561  0.2154 -0.6163
  153SAPE   H7R16999   6.789   0.687   9.573 -0.4725  1.2915 -1.1131
  153SAPE   H7S17000   6.662   0.728   9.465  2.5401  1.8689 -0.9965
  153SAPE   C2817001   6.791   0.568   9.387 -0.2910 -0.3689  0.4244
  153SAPE   H8R17002   6.843   0.474   9.407  1.8270 -0.0363 -3.0055
  153SAPE   C2917003   6.797   0.612   9.262 -0.0388 -0.7551 -0.1163
  153SAPE   H9R17004   6.849   0.553   9.185  2.9055  0.4793  0.8728
  153SAPE  C21017005   6.730   0.742   9.212 -0.5795  0.3732  0.7597
  153SAPE  H10R17006   6.700   0.812   9.293  0.4529 -1.3656  2.7078
  153SAPE  H10S17007   6.634   0.707   9.169 -0.5346  0.5321  0.5273
  153SAPE  C21117008   6.812   0.811   9.108 -0.3016  0.8355 -0.1421
  153SAPE  H11R17009   6.885   0.881   9.151 -0.1575  1.1361 -0.8799
  153SAPE  C21217010   6.813   0.792   8.970 -0.3573  0.1328  1.0043
  153SAPE  H12R17011   6.863   0.876   8.919 -0.2919 -0.0448  0.7750
  153SAPE  C21317012   6.733   0.712   8.871 -0.3736 -0.5437 -0.3423
  153SAPE  H13R17013   6.705   0.613   8.913 -1.7099  0.3227  0.8664
  153SAPE  H13S17014   6.789   0.685   8.779  2.5463  0.4783  1.0852
  153SAPE  C21417015   6.611   0.787   8.850  0.4406  0.3955  0.1955
  153SAPE  H14R17016   6.541   0.784   8.935  0.5016  1.1302  0.2701
  153SAPE  C21517017   6.588   0.858   8.739 -1.0305 -0.9724  0.1980
  153SAPE  H15R17018   6.494   0.913   8.729  0.3284  1.1913 -1.1473
  153SAPE  C21617019   6.683   0.876   8.616 -0.2212  0.3856 -0.3862
  153SAPE  H16R17020   6.620   0.875   8.525 -0.5808  1.5078 -0.1587
  153SAPE  H16S17021   6.754   0.793   8.597 -0.4645  0.1670 -0.3403
  153SAPE  C21717022   6.770   1.004   8.595  0.2121  0.3334  0.2758
  153SAPE  H17R17023   6.827   0.975   8.505 -2.0017  0.3171 -1.1547
  153SAPE  H17S17024   6.825   1.017   8.691  0.8209  1.5204 -0.2300
  153SAPE  C21817025   6.694   1.131   8.572  0.5082  0.3913 -0.0887
  153SAPE  H18R17026   6.602   1.137   8.635 -0.9348 -0.3179 -2.0895
  153SAPE  H18S17027   6.660   1.138   8.467  0.1762  1.3729  0.0856
  153SAPE  C21917028   6.776   1.258   8.603 -0.5047 -0.6883  0.0347
  153SAPE  H19R17029   6.881   1.231   8.578 -0.4992 -0.5418 -0.1050
  153SAPE  H19S17030   6.780   1.295   8.707  1.1937 -0.7330 -0.0071
  153SAPE  C22017031   6.718   1.366   8.514  1.0172  0.0132  0.7239
  153SAPE  H20R17032   6.765   1.464   8.538  0.9076 -0.0007  1.0041
  153SAPE  H20S17033   6.611   1.380   8.541  0.4433 -3.0814  0.1490
  153SAPE  H20T17034   6.721   1.335   8.408  0.3519 -1.0456  1.0061
  153SAPE   C3317035   6.437  -0.023   9.706  0.0426  0.3525  0.0066
  153SAPE   H3X17036   6.339  -0.045   9.660  0.2397 -1.2245  0.3177
  153SAPE   H3Y17037   6.511  -0.103   9.685 -0.8727 -0.4796 -0.0983
  153SAPE   C3417038   6.489   0.103   9.643  0.3538 -0.1811 -0.3222
  153SAPE   H4X17039   6.590   0.118   9.686  0.2737  0.4893 -0.3673
  153SAPE   H4Y17040   6.428   0.192   9.669  0.7637  0.3486 -1.1431
  153SAPE   C3517041   6.499   0.094   9.486 -0.7649 -0.1044  0.0761
  153SAPE   H5X17042   6.415   0.032   9.445 -0.1272  0.1214 -1.5909
  153SAPE   H5Y17043   6.595   0.043   9.467 -0.2906  0.4874  0.8515
  153SAPE   C3617044   6.483   0.224   9.412  0.8047 -0.5842  0.4074
  153SAPE   H6X17045   6.573   0.285   9.435  0.5682 -0.4402  0.9751
  153SAPE   H6Y17046   6.390   0.279   9.438  0.6167  0.2190 -1.8962
  153SAPE   C3717047   6.476   0.199   9.260 -0.2235 -0.7053 -0.2089
  153SAPE   H7X17048   6.380   0.147   9.240  0.0129 -1.7564  1.3650
  153SAPE   H7Y17049   6.554   0.132   9.217 -0.7194 -0.9272 -0.7792
  153SAPE   C3817050   6.466   0.323   9.170  0.0963 -0.5639  0.0320
  153SAPE   H8X17051   6.564   0.376   9.177 -0.1796 -0.2238  1.4336
  153SAPE   H8Y17052   6.381   0.387   9.202 -0.3721 -1.7823  1.2537
  153SAPE   C3917053   6.434   0.285   9.021 -0.0725  0.2138 -0.7893
  153SAPE   H9X17054   6.327   0.257   9.019  0.3403 -1.3682 -1.6642
  153SAPE   H9Y17055   6.494   0.199   8.983 -1.5585 -0.9889 -0.4547
  153SAPE  C31017056   6.462   0.401   8.925  0.3367 -0.6341 -0.2663
  153SAPE  H10X17057   6.572   0.418   8.919 -0.0332  1.4367 -2.3737
  153SAPE  H10Y17058   6.416   0.494   8.966  0.9192 -1.1942  1.7055
  153SAPE  C31117059   6.412   0.387   8.779  1.1730 -0.2585 -0.6993
  153SAPE  H11X17060   6.442   0.469   8.710 -0.6178  1.1200  0.1242
  153SAPE  H11Y17061   6.302   0.392   8.788  1.1019 -0.0626 -1.6072
  153SAPE  C31217062   6.461   0.261   8.708  0.2412  0.1607 -0.1318
  153SAPE  H12X17063   6.440   0.159   8.747 -1.5946 -0.2092 -1.9854
  153SAPE  H12Y17064   6.570   0.262   8.723  0.2956 -1.6941 -0.3127
  153SAPE  C31317065   6.438   0.262   8.559  0.0386 -0.7587 -1.1065
  153SAPE  H13X17066   6.515   0.326   8.513  0.8358 -0.6133  0.3939
  153SAPE  H13Y17067   6.336   0.294   8.528  0.0860 -0.1504 -0.6347
  153SAPE  C31417068   6.469   0.126   8.495 -0.4056 -0.2775  0.0112
  153SAPE  H14X17069   6.442   0.116   8.388  2.5752 -0.5790 -0.7562
  153SAPE  H14Y17070   6.424   0.036   8.543  1.8024 -0.6505  1.4744
  153SAPE  C31517071   6.624   0.111   8.492 -0.1312 -0.0324  0.0438
  153SAPE  H15X17072   6.672   0.098   8.592  0.9457 -1.6689 -0.6504
  153SAPE  H15Y17073   6.682   0.192   8.442  1.0988 -1.1743 -0.4146
  153SAPE  C31617074   6.670  -0.019   8.405 -0.5627 -0.3192  0.4919
  153SAPE  H16X17075   6.605  -0.016   8.315  2.1719  3.5478 -1.5086
  153SAPE  H16Y17076   6.649  -0.111   8.464  1.0909 -1.5255 -0.7615
  153SAPE  C31717077   6.825  -0.016   8.393  0.5687 -0.7199  0.5934
  153SAPE  H17X17078   6.861  -0.050   8.492  0.6929 -1.9035  0.1518
  153SAPE  H17Y17079   6.861   0.088   8.377  1.7633 -1.0598  1.0364
  153SAPE  C31817080   6.881  -0.107   8.288  0.6757 -0.4619 -0.6797
  153SAPE  H18X17081   6.991  -0.095   8.283  0.5263  0.7130 -1.4205
  153SAPE  H18Y17082   6.842  -0.074   8.189 -3.9911 -0.3950  1.0805
  153SAPE  H18Z17083   6.852  -0.213   8.303 -1.8388  0.2748 -0.1119
  154SAPE     N17084   1.276   6.238  10.581  0.2416 -0.0876  0.0406
  154SAPE   HN117085   1.312   6.212  10.676 -2.2786 -1.3469  0.7005
  154SAPE   HN217086   1.275   6.152  10.522 -0.7778 -0.2417  0.2772
  154SAPE   HN317087   1.342   6.305  10.537  1.0513  0.4556  1.9851
  154SAPE   C1217088   1.149   6.316  10.580 -0.2616 -0.7575  0.4509
  154SAPE  H12A17089   1.066   6.258  10.626 -1.0140 -1.5240 -1.7748
  154SAPE  H12B17090   1.133   6.317  10.470  0.1685 -1.6792  0.3715
  154SAPE   C1117091   1.156   6.461  10.630 -0.0095  0.6459 -0.1880
  154SAPE  H11A17092   1.163   6.446  10.740 -1.3624 -2.4659 -0.4843
  154SAPE  H11B17093   1.056   6.505  10.611  1.7452  3.8414 -2.4964
  154SAPE     P17094   1.301   6.684  10.609  0.1507  0.7098  0.2986
  154SAPE   O1317095   1.272   6.702  10.755  0.2801  0.5725  0.6293
  154SAPE   O1417096   1.434   6.722  10.562 -0.9946 -0.1506 -0.6236
  154SAPE   O1217097   1.269   6.537  10.578  0.0847 -0.3885 -0.3316
  154SAPE   O1117098   1.187   6.768  10.536 -0.5766 -0.3958  0.4460
  154SAPE    C117099   1.170   6.745  10.393 -0.3307 -0.2819 -0.8437
  154SAPE    HA17100   1.267   6.753  10.340  0.4676  0.7525  0.7600
  154SAPE    HB17101   1.114   6.650  10.377  0.7303 -1.5540  2.4810
  154SAPE    C217102   1.088   6.862  10.339 -0.0201 -0.2271 -0.4136
  154SAPE    HS17103   0.981   6.836  10.354 -0.1987  1.3520  1.2640
  154SAPE   O2117104   1.126   6.880  10.203  0.0127 -0.1634  0.1148
  154SAPE   C2117105   1.050   6.805  10.119  0.6231  0.4804  0.0353
  154SAPE   O2217106   0.961   6.729  10.155  0.2434  0.0276 -0.3367
  154SAPE   C2217107   1.092   6.825   9.970  0.4734 -0.1786  0.0768
  154SAPE   H2R17108   1.073   6.934   9.962 -0.4948 -0.3221  0.2992
  154SAPE   H2S17109   1.201   6.807   9.958  0.1739 -2.0212 -0.0523
  154SAPE    C317110   1.125   6.997  10.415  0.2502 -0.1108  0.0078
  154SAPE    HX17111   1.236   6.998  10.414  0.2622 -1.1479 -0.4619
  154SAPE    HY17112   1.085   7.006  10.519  0.4190 -1.0031  0.1508
  154SAPE   O3117113   1.079   7.117  10.342 -0.0872  0.0788  0.3589
  154SAPE   C3117114   0.953   7.138  10.362 -0.3177 -0.6832 -0.2704
  154SAPE   O3217115   0.875   7.066  10.421 -0.1320  0.1064  0.4467
  154SAPE   C3217116   0.912   7.272  10.302  0.1920 -0.0948  0.0940
  154SAPE   H2X17117   1.005   7.326  10.274  0.7521 -0.7859  0.5683
  154SAPE   H2Y17118   0.864   7.325  10.387 -0.5706  2.0317 -1.6235
  154SAPE   C2317119   1.011   6.737   9.873 -0.0366  0.1668 -0.2339
  154SAPE   H3R17120   0.910   6.777   9.850  1.3829  1.7508 -4.1008
  154SAPE   H3S17121   0.990   6.635   9.914  0.4033  0.5618  1.0150
  154SAPE   C2417122   1.087   6.724   9.735 -0.2190 -0.0407 -0.4108
  154SAPE   H4R17123   1.186   6.684   9.767 -1.3681 -0.4268  2.8119
  154SAPE   H4S17124   1.106   6.830   9.705  0.2295  0.8815  2.8986
  154SAPE   C2517125   1.026   6.652   9.622  0.1823 -0.6644 -0.3737
  154SAPE   H5R17126   0.967   6.718   9.557  0.3698 -0.8119 -0.6928
  154SAPE   C2617127   1.013   6.518   9.604 -0.4324 -0.1790  0.1812
  154SAPE   H6R17128   0.972   6.471   9.514  1.4698 -2.5834  0.5324
  154SAPE   C2717129   1.066   6.426   9.705  0.3003  0.2590  0.1509
  154SAPE   H7R17130   1.028   6.442   9.808  0.7329 -0.3496  0.4105
  154SAPE   H7S17131   1.175   6.436   9.727  0.4729 -1.0404 -0.1112
  154SAPE   C2817132   1.034   6.282   9.669 -0.1890  0.8724 -0.5463
  154SAPE   H8R17133   0.949   6.232   9.717  0.2384 -1.4742 -2.1404
  154SAPE   C2917134   1.102   6.202   9.588 -0.5044  0.3179 -0.3795
  154SAPE   H9R17135   1.068   6.099   9.568 -1.8615  0.5474  0.7324
  154SAPE  C21017136   1.217   6.251   9.498  0.0108  0.2281  0.8991
  154SAPE  H10R17137   1.306   6.183   9.504 -1.6091 -2.0912 -0.2769
  154SAPE  H10S17138   1.254   6.351   9.527 -1.0620  1.3322 -1.4333
  154SAPE  C21117139   1.167   6.267   9.357 -0.1852  0.5101  0.2484
  154SAPE  H11R17140   1.057   6.270   9.352 -0.2243  1.0904  1.3653
  154SAPE  C21217141   1.240   6.307   9.253 -0.0474 -0.1863  0.2187
  154SAPE  H12R17142   1.196   6.305   9.152 -1.5158 -1.0795  0.8615
  154SAPE  C21317143   1.385   6.355   9.256  0.1142  0.1267 -0.3199
  154SAPE  H13R17144   1.423   6.361   9.360 -1.9567 -1.6243  0.5926
  154SAPE  H13S17145   1.383   6.462   9.228 -0.2038  0.4715  0.9824
  154SAPE  C21417146   1.478   6.281   9.167 -0.2360 -0.3421 -0.6291
  154SAPE  H14R17147   1.546   6.204   9.208 -0.2712 -0.9359 -1.6650
  154SAPE  C21517148   1.499   6.312   9.039  0.6151  0.5976 -0.6952
  154SAPE  H15R17149   1.561   6.244   8.978  0.5436  1.0408 -1.2746
  154SAPE  C21617150   1.420   6.405   8.957 -0.0156  0.1447  0.0954
  154SAPE  H16R17151   1.491   6.466   8.898  1.2829 -2.0735 -0.6745
  154SAPE  H16S17152   1.369   6.477   9.024 -0.8326 -0.8991  0.6108
  154SAPE  C21717153   1.314   6.339   8.864  1.0037  0.1636 -0.3353
  154SAPE  H17R17154   1.234   6.409   8.831  0.2397 -0.2576  0.6247
  154SAPE  H17S17155   1.261   6.259   8.919  0.6185  0.5394 -0.1494
  154SAPE  C21817156   1.378   6.302   8.729  0.0102 -0.0547  0.2164
  154SAPE  H18R17157   1.308   6.242   8.668 -1.0644 -0.1945  1.5758
  154SAPE  H18S17158   1.464   6.234   8.749 -0.9692 -0.7852  2.0683
  154SAPE  C21917159   1.411   6.426   8.647 -0.1492 -0.1848  0.7232
  154SAPE  H19R17160   1.470   6.390   8.559 -0.8588  0.9399 -0.2247
  154SAPE  H19S17161   1.471   6.494   8.711 -0.1778  1.2354 -0.7446
  154SAPE  C22017162   1.287   6.496   8.591 -0.0427  0.4644  0.5948
  154SAPE  H20R17163   1.213   6.428   8.545 -1.1097  0.3890  2.3852
  154SAPE  H20S17164   1.330   6.569   8.519 -0.1094 -0.5488 -0.5002
  154SAPE  H20T17165   1.232   6.553   8.669 -0.3007  1.5833 -0.3834
  154SAPE   C3317166   0.822   7.261  10.178  0.2375 -0.1099 -0.2228
  154SAPE   H3X17167   0.780   7.361  10.154 -0.4149 -0.2190  0.4375
  154SAPE   H3Y17168   0.734   7.204  10.215  0.8114 -1.4415 -0.9102
  154SAPE   C3417169   0.884   7.194  10.062 -0.9085 -0.2043 -0.1102
  154SAPE   H4X17170   0.897   7.084  10.078  2.6531  0.1283 -0.2596
  154SAPE   H4Y17171   0.987   7.230  10.043 -0.3388 -1.8832 -0.3246
  154SAPE   C3517172   0.806   7.210   9.937  1.1720  0.6052 -0.0912
  154SAPE   H5X17173   0.798   7.316   9.906 -1.1837 -0.3311 -2.9845
  154SAPE   H5Y17174   0.700   7.177   9.950  1.6727  0.1013  3.2943
  154SAPE   C3617175   0.872   7.130   9.818  0.2788  0.1461 -0.3767
  154SAPE   H6X17176   0.883   7.025   9.853 -1.2734  0.6395  1.7347
  154SAPE   H6Y17177   0.976   7.163   9.796  0.0658  0.7289 -0.5265
  154SAPE   C3717178   0.774   7.098   9.695  0.4139 -1.0615 -0.8543
  154SAPE   H7X17179   0.750   7.188   9.635 -0.0458  0.5904  1.7287
  154SAPE   H7Y17180   0.677   7.050   9.721  0.8961 -1.1305  0.9129
  154SAPE   C3817181   0.836   6.994   9.603 -0.7427  0.2573  0.0107
  154SAPE   H8X17182   0.869   6.908   9.666  0.2307  0.1445 -0.6394
  154SAPE   H8Y17183   0.927   7.034   9.554 -0.1871  2.9606  3.1177
  154SAPE   C3917184   0.742   6.930   9.497 -0.1381  0.7028  0.3449
  154SAPE   H9X17185   0.643   6.924   9.546 -0.8583  1.6569 -0.9755
  154SAPE   H9Y17186   0.772   6.825   9.474 -2.6985  0.1470 -0.5456
  154SAPE  C31017187   0.744   7.006   9.370 -0.3628  0.3360  0.9738
  154SAPE  H10X17188   0.841   7.000   9.315 -0.8992 -2.0220  0.2425
  154SAPE  H10Y17189   0.718   7.114   9.383 -1.2527  0.6902 -3.2107
  154SAPE  C31117190   0.651   6.948   9.263  1.0928 -0.0990  1.0562
  154SAPE  H11X17191   0.546   6.949   9.301  0.2783 -1.8614 -1.0214
  154SAPE  H11Y17192   0.682   6.842   9.251 -0.0688 -0.2188 -1.1184
  154SAPE  C31217193   0.663   7.030   9.138  0.5973 -0.9760  0.5609
  154SAPE  H12X17194   0.748   6.995   9.076  0.0122 -3.3282  1.0207
  154SAPE  H12Y17195   0.661   7.140   9.155 -0.2117 -1.3111  2.8645
  154SAPE  C31317196   0.543   7.010   9.041  0.5067 -0.0786  0.1420
  154SAPE  H13X17197   0.550   7.084   8.959  1.1294 -2.4135 -1.9797
  154SAPE  H13Y17198   0.445   7.041   9.083  1.1961  1.2722  0.7687
  154SAPE  C31417199   0.531   6.865   8.980 -0.1508  0.7230 -0.3563
  154SAPE  H14X17200   0.496   6.788   9.052 -1.2988  0.2865 -1.3485
  154SAPE  H14Y17201   0.632   6.831   8.947  0.2956  0.8071  0.8904
  154SAPE  C31517202   0.436   6.869   8.858 -0.2269 -0.2727 -0.0813
  154SAPE  H15X17203   0.492   6.925   8.780 -1.5230  0.4721 -0.4933
  154SAPE  H15Y17204   0.341   6.923   8.875  0.0791  0.6083 -1.1597
  154SAPE  C31617205   0.420   6.720   8.804  0.2125  0.5590  0.2665
  154SAPE  H16X17206   0.372   6.665   8.888  3.2810 -1.2680  0.8719
  154SAPE  H16Y17207   0.520   6.677   8.785  0.2120  1.0343 -0.8557
  154SAPE  C31717208   0.339   6.716   8.674  0.4711  1.1271 -0.4006
  154SAPE  H17X17209   0.392   6.761   8.588  0.5112 -1.1939 -1.6544
  154SAPE  H17Y17210   0.243   6.765   8.698 -1.5194 -2.2735 -0.9801
  154SAPE  C31817211   0.329   6.568   8.634  0.1803  0.0801  0.2350
  154SAPE  H18X17212   0.433   6.528   8.626 -0.4681 -1.3218 -1.4620
  154SAPE  H18Y17213   0.263   6.559   8.545  0.3254  3.5958 -0.3278
  154SAPE  H18Z17214   0.291   6.506   8.717  2.5051  1.5033  2.4427
  155SAPE     N17215   1.462   1.486  11.268 -0.4556  0.5586  0.1881
  155SAPE   HN117216   1.542   1.487  11.335  0.1197 -2.6145 -0.3713
  155SAPE   HN217217   1.474   1.549  11.187  0.4897 -1.2019 -1.0891
  155SAPE   HN317218   1.383   1.521  11.326 -2.7747 -0.5546 -2.1918
  155SAPE   C1217219   1.422   1.350  11.214 -0.1949  0.8811 -0.2001
  155SAPE  H12A17220   1.323   1.360  11.163 -2.7194  0.9069  4.4478
  155SAPE  H12B17221   1.415   1.278  11.299  0.4634 -1.1131 -1.7915
  155SAPE   C1117222   1.528   1.306  11.116 -0.3211 -0.2370  0.0300
  155SAPE  H11A17223   1.511   1.201  11.081  1.2743 -0.5437  0.1485
  155SAPE  H11B17224   1.624   1.303  11.170 -1.1780  0.0860  1.5923
  155SAPE     P17225   1.539   1.353  10.852  0.0469  0.0287  0.3147
  155SAPE   O1317226   1.568   1.472  10.775  0.0463 -0.3182 -0.0986
  155SAPE   O1417227   1.626   1.235  10.824 -0.0973 -0.3155  0.2766
  155SAPE   O1217228   1.543   1.393  11.007  0.3085 -0.2023 -0.0005
  155SAPE   O1117229   1.388   1.316  10.836  0.3237 -0.3969  0.1883
  155SAPE    C117230   1.330   1.195  10.779 -0.1700 -0.2337  0.4982
  155SAPE    HA17231   1.382   1.102  10.811 -0.4889 -0.9286 -0.9308
  155SAPE    HB17232   1.222   1.192  10.803 -0.6064 -0.1268 -1.3537
  155SAPE    C217233   1.338   1.205  10.623  0.5518 -0.0684 -0.3057
  155SAPE    HS17234   1.290   1.110  10.592  1.1375 -0.8164  1.0825
  155SAPE   O2117235   1.470   1.228  10.565 -0.0069  0.3034  0.4683
  155SAPE   C2117236   1.538   1.115  10.544  0.2191  0.2418 -0.2525
  155SAPE   O2217237   1.506   1.005  10.581  0.2661 -0.1463 -1.1039
  155SAPE   C2217238   1.662   1.146  10.466  0.4102 -0.3812 -0.5089
  155SAPE   H2R17239   1.669   1.256  10.452 -1.8327 -0.1969 -0.4446
  155SAPE   H2S17240   1.755   1.114  10.517 -0.0005  0.1820  0.6287
  155SAPE    C317241   1.245   1.325  10.578  0.0910  0.9473  0.0859
  155SAPE    HX17242   1.276   1.423  10.621  1.9000 -0.3693  1.8330
  155SAPE    HY17243   1.148   1.285  10.614 -0.1136 -0.1799 -1.6754
  155SAPE   O3117244   1.237   1.326  10.431  0.0423 -0.3957 -0.5548
  155SAPE   C3117245   1.145   1.417  10.387 -0.1304 -0.1100  0.2667
  155SAPE   O3217246   1.075   1.478  10.463  0.2509  0.4459  0.2078
  155SAPE   C3217247   1.154   1.450  10.240  0.4859 -0.2852  0.8141
  155SAPE   H2X17248   1.239   1.522  10.239  2.0091 -2.0413 -1.7556
  155SAPE   H2Y17249   1.062   1.499  10.203  0.6289 -1.3211 -0.9437
  155SAPE   C2317250   1.664   1.079  10.323  0.5900 -0.1600 -0.5250
  155SAPE   H3R17251   1.564   1.100  10.280  1.0416 -0.7427 -1.8927
  155SAPE   H3S17252   1.674   0.969  10.335  2.4088  0.1258  0.8016
  155SAPE   C2417253   1.767   1.141  10.223 -0.0419  0.2921  0.3144
  155SAPE   H4R17254   1.788   1.057  10.153  0.1940 -0.5477  1.3758
  155SAPE   H4S17255   1.862   1.157  10.278  0.5088 -0.1156 -0.5117
  155SAPE   C2517256   1.720   1.275  10.160  0.4354  0.5716 -0.3639
  155SAPE   H5R17257   1.685   1.351  10.232  1.7022 -0.4051  1.3130
  155SAPE   C2617258   1.719   1.301  10.027 -0.1391  0.1892 -0.0300
  155SAPE   H6R17259   1.679   1.397   9.994  0.4407  0.5530  0.3184
  155SAPE   C2717260   1.772   1.212   9.908 -0.1248 -0.1988 -0.6616
  155SAPE   H7R17261   1.790   1.108   9.944 -1.2889 -0.1540  0.0879
  155SAPE   H7S17262   1.867   1.254   9.871  0.2214  0.2336  0.6870
  155SAPE   C2817263   1.676   1.200   9.791  0.4428  0.6246 -0.2303
  155SAPE   H8R17264   1.601   1.121   9.805  1.4040  0.3352  4.1238
  155SAPE   C2917265   1.665   1.289   9.687 -0.1339  0.3740  0.3005
  155SAPE   H9R17266   1.593   1.267   9.608 -1.4780 -1.3203  1.9475
  155SAPE  C21017267   1.737   1.414   9.663  0.3190 -0.2074 -0.4743
  155SAPE  H10R17268   1.758   1.422   9.554  1.4823 -0.7779 -0.3044
  155SAPE  H10S17269   1.833   1.405   9.719 -0.4297  0.6944  1.0036
  155SAPE  C21117270   1.650   1.526   9.724 -0.1125 -0.2698  0.1782
  155SAPE  H11R17271   1.650   1.522   9.834 -0.1315 -0.6048  0.1670
  155SAPE  C21217272   1.581   1.626   9.666 -0.5600 -0.0781  0.0302
  155SAPE  H12R17273   1.534   1.703   9.730  0.8314  1.1176 -0.3411
  155SAPE  C21317274   1.580   1.646   9.515 -0.5961  0.4899 -0.1899
  155SAPE  H13R17275   1.553   1.547   9.474 -0.0799 -1.3541  3.6434
  155SAPE  H13S17276   1.677   1.692   9.489 -0.3247  0.8097  1.3323
  155SAPE  C21417277   1.464   1.737   9.471  0.6144 -0.1049 -0.4489
  155SAPE  H14R17278   1.376   1.734   9.537  0.7504  1.2390 -0.1967
  155SAPE  C21517279   1.469   1.809   9.359  0.4723 -0.2509  0.8364
  155SAPE  H15R17280   1.381   1.875   9.349  1.7517  1.2351 -0.7018
  155SAPE  C21617281   1.574   1.824   9.245  0.2448 -0.5614  0.4013
  155SAPE  H16R17282   1.665   1.769   9.277  0.2772 -1.2580 -0.8781
  155SAPE  H16S17283   1.607   1.928   9.221 -2.2136 -0.0869 -1.0219
  155SAPE  C21717284   1.521   1.760   9.116  0.3412 -0.4935  1.0491
  155SAPE  H17R17285   1.444   1.834   9.084  0.4404 -1.0017 -0.4320
  155SAPE  H17S17286   1.485   1.660   9.148  0.9313 -0.7073  1.0465
  155SAPE  C21817287   1.628   1.750   9.004 -0.1234 -1.3189  0.1530
  155SAPE  H18R17288   1.582   1.695   8.919  1.2200 -0.6387 -1.0302
  155SAPE  H18S17289   1.698   1.676   9.049  0.1260 -0.8420  0.5471
  155SAPE  C21917290   1.701   1.881   8.965 -0.0409  0.2711  0.2718
  155SAPE  H19R17291   1.757   1.862   8.871 -1.4082  2.1476 -0.9680
  155SAPE  H19S17292   1.770   1.921   9.042  0.1630  0.5717 -0.0626
  155SAPE  C22017293   1.600   1.996   8.925  0.2961 -0.2394  0.3883
  155SAPE  H20R17294   1.529   1.957   8.849 -1.3437  0.7624  1.3682
  155SAPE  H20S17295   1.651   2.085   8.883  1.1657 -0.5753  0.7142
  155SAPE  H20T17296   1.543   2.034   9.013  1.6711  0.1560  1.1196
  155SAPE   C3317297   1.207   1.336  10.150  0.1202 -0.9487 -0.2655
  155SAPE   H3X17298   1.127   1.259  10.154  1.0779 -1.9176  0.7017
  155SAPE   H3Y17299   1.299   1.290  10.190  0.4482  0.4297  0.6206
  155SAPE   C3417300   1.211   1.391   9.998  0.3250  0.1217 -0.0825
  155SAPE   H4X17301   1.301   1.455   9.984  1.2216 -1.1585 -0.2690
  155SAPE   H4Y17302   1.126   1.462   9.989  0.6959  0.6357  0.4183
  155SAPE   C3517303   1.186   1.285   9.897 -0.0972 -0.0366  0.4993
  155SAPE   H5X17304   1.147   1.327   9.802 -0.2988 -1.3441  0.0036
  155SAPE   H5Y17305   1.114   1.214   9.942 -1.0035  0.6237  0.0943
  155SAPE   C3617306   1.316   1.218   9.866 -0.2922  1.0222 -0.3465
  155SAPE   H6X17307   1.367   1.201   9.963  3.0059 -0.1067 -2.1768
  155SAPE   H6Y17308   1.386   1.280   9.805 -0.9005  0.7720 -1.3136
  155SAPE   C3717309   1.294   1.094   9.783 -0.3340  0.4981  0.0260
  155SAPE   H7X17310   1.223   1.021   9.829  0.3197 -0.6391 -0.7337
  155SAPE   H7Y17311   1.394   1.045   9.785 -1.1986 -1.4417 -1.7238
  155SAPE   C3817312   1.260   1.111   9.631 -0.2950  0.1628  0.6086
  155SAPE   H8X17313   1.169   1.173   9.620 -0.7732 -1.0527 -2.6226
  155SAPE   H8Y17314   1.223   1.016   9.588 -0.5637 -0.0259  1.2510
  155SAPE   C3917315   1.371   1.170   9.535  0.5812  0.2039  0.0144
  155SAPE   H9X17316   1.462   1.108   9.550 -1.0271 -1.5500  2.8478
  155SAPE   H9Y17317   1.395   1.274   9.568 -0.0638  0.1080  0.7939
  155SAPE  C31017318   1.329   1.160   9.390 -0.2638 -0.0430 -0.3531
  155SAPE  H10X17319   1.232   1.208   9.362 -1.1901  0.1784  3.0468
  155SAPE  H10Y17320   1.323   1.051   9.369  0.7551  0.2518 -2.3096
  155SAPE  C31117321   1.432   1.207   9.283  0.3497  0.2870 -0.0711
  155SAPE  H11X17322   1.530   1.163   9.309 -0.2307 -0.5913  0.6776
  155SAPE  H11Y17323   1.442   1.318   9.280  1.1773  0.2186  0.1333
  155SAPE  C31217324   1.390   1.175   9.140 -0.7440 -0.1826  1.1554
  155SAPE  H12X17325   1.460   1.232   9.076 -1.2038  0.0771  0.8880
  155SAPE  H12Y17326   1.293   1.219   9.110  0.4076  1.0908 -0.8001
  155SAPE  C31317327   1.406   1.027   9.110  0.1832  0.1720 -0.3144
  155SAPE  H13X17328   1.321   0.976   9.160  2.8652 -1.9068  2.3663
  155SAPE  H13Y17329   1.503   0.990   9.151 -0.2151  1.0415  1.4630
  155SAPE  C31417330   1.408   0.987   8.960  0.3669  0.4963 -0.0203
  155SAPE  H14X17331   1.333   1.042   8.898  0.0869  0.9678  0.7304
  155SAPE  H14Y17332   1.396   0.877   8.959  1.1919  0.3841 -2.6251
  155SAPE  C31517333   1.537   1.040   8.887 -0.1216  0.1781  0.1459
  155SAPE  H15X17334   1.623   1.010   8.951  0.5310  0.1566 -0.7288
  155SAPE  H15Y17335   1.545   1.150   8.878 -1.8613  0.4049  1.2233
  155SAPE  C31617336   1.540   0.976   8.753 -0.4203  0.7445 -0.7806
  155SAPE  H16X17337   1.466   1.031   8.692 -0.2912  1.3478 -0.3963
  155SAPE  H16Y17338   1.509   0.869   8.757 -0.8680  0.9430  4.1483
  155SAPE  C31717339   1.683   0.993   8.698 -0.2993 -0.6332  0.3906
  155SAPE  H17X17340   1.749   0.931   8.761  1.4601 -3.3073 -3.8513
  155SAPE  H17Y17341   1.719   1.098   8.702  0.2627 -0.8364  0.7370
  155SAPE  C31817342   1.695   0.938   8.551  0.6754  0.0314 -0.0204
  155SAPE  H18X17343   1.616   0.985   8.488 -0.4525 -2.3803 -0.4701
  155SAPE  H18Y17344   1.697   0.828   8.539 -1.0713  0.0178 -0.3998
  155SAPE  H18Z17345   1.792   0.975   8.513 -0.9761  3.0380 -1.4825
  156SAPE     N17346   6.234   5.948  10.788 -0.2063  0.4647  0.0132
  156SAPE   HN117347   6.222   6.018  10.712 -2.2031 -1.2044 -1.2819
  156SAPE   HN217348   6.137   5.923  10.813 -0.7486  1.4402 -1.0579
  156SAPE   HN317349   6.272   5.997  10.871  2.5486 -2.0874  0.3229
  156SAPE   C1217350   6.310   5.832  10.743 -0.1407  0.3956 -0.0234
  156SAPE  H12A17351   6.311   5.752  10.820 -0.5746  0.4534  0.0427
  156SAPE  H12B17352   6.415   5.863  10.724 -0.5111  0.1343 -2.7585
  156SAPE   C1117353   6.256   5.782  10.609 -0.0375  0.0530  0.5134
  156SAPE  H11A17354   6.301   5.688  10.571  1.0836  0.5252  0.6424
  156SAPE  H11B17355   6.289   5.865  10.543 -1.4750  0.7324  0.6359
  156SAPE     P17356   6.020   5.774  10.483  0.5771 -0.0931  0.0039
  156SAPE   O1317357   5.985   5.634  10.454 -0.4040 -0.4851 -0.0435
  156SAPE   O1417358   5.905   5.864  10.491  0.2729  0.8363 -0.2494
  156SAPE   O1217359   6.109   5.777  10.615 -0.3161 -0.3200 -0.2071
  156SAPE   O1117360   6.120   5.831  10.375  0.3846  0.4417 -0.9366
  156SAPE    C117361   6.081   5.797  10.243 -0.2630  0.6859 -0.0227
  156SAPE    HA17362   6.092   5.688  10.228  0.7645  0.7628  0.1279
  156SAPE    HB17363   5.981   5.830  10.207 -1.7960 -0.6696  2.7890
  156SAPE    C217364   6.189   5.850  10.142  0.0153 -1.1352  0.4484
  156SAPE    HS17365   6.179   5.960  10.131 -0.9229 -1.3850 -1.3155
  156SAPE   O2117366   6.182   5.783  10.012  0.0660  0.0341 -0.3026
  156SAPE   C2117367   6.083   5.821   9.937 -0.3027 -0.6802 -0.0845
  156SAPE   O2217368   6.014   5.919   9.956  0.0904  0.4190 -0.2166
  156SAPE   C2217369   6.066   5.715   9.819  0.8010 -0.5318 -0.1609
  156SAPE   H2R17370   6.134   5.770   9.750  0.5421 -0.1343 -0.1056
  156SAPE   H2S17371   6.109   5.620   9.856  0.1892 -1.1342 -0.9830
  156SAPE    C317372   6.338   5.822  10.206  0.1307 -0.7558  0.1775
  156SAPE    HX17373   6.348   5.713  10.228  0.0613 -0.5947  1.0136
  156SAPE    HY17374   6.334   5.880  10.300 -1.9092  1.0916 -1.0011
  156SAPE   O3117375   6.441   5.871  10.117 -0.1192  0.0161 -0.0205
  156SAPE   C3117376   6.564   5.838  10.150 -0.0930  0.1271  0.6671
  156SAPE   O3217377   6.602   5.777  10.248  0.2312 -0.3121  0.0463
  156SAPE   C3217378   6.655   5.900  10.050 -0.2669 -0.2523 -0.5811
  156SAPE   H2X17379   6.757   5.888  10.092 -0.0588 -0.3360 -1.1102
  156SAPE   H2Y17380   6.643   6.010  10.039 -0.4090 -0.0571  1.4431
  156SAPE   C2317381   5.921   5.716   9.762 -0.0776  0.7874  0.7053
  156SAPE   H3R17382   5.899   5.820   9.730 -0.6544  0.8213  1.1887
  156SAPE   H3S17383   5.846   5.690   9.840  0.2797  1.4355  1.2583
  156SAPE   C2417384   5.899   5.627   9.637 -0.2532  0.4351 -0.1073
  156SAPE   H4R17385   5.798   5.640   9.591  1.2578  0.4459 -3.5558
  156SAPE   H4S17386   5.895   5.519   9.666 -0.0524 -0.0906 -1.9639
  156SAPE   C2517387   5.993   5.654   9.526 -0.2951 -0.2016 -0.0706
  156SAPE   H5R17388   6.100   5.644   9.550  0.0877  0.8800 -1.3008
  156SAPE   C2617389   5.958   5.684   9.403 -0.5704  0.3732  0.5027
  156SAPE   H6R17390   6.038   5.700   9.329 -2.1252  0.6459 -1.1563
  156SAPE   C2717391   5.827   5.688   9.343 -0.0804 -0.4183  0.4509
  156SAPE   H7R17392   5.757   5.615   9.390 -1.1267 -0.1264 -0.6309
  156SAPE   H7S17393   5.828   5.661   9.236  2.4533 -1.3495  0.6793
  156SAPE   C2817394   5.775   5.833   9.360  0.4837  0.4229 -0.1318
  156SAPE   H8R17395   5.761   5.862   9.465  1.2599 -0.6264  0.2679
  156SAPE   C2917396   5.762   5.917   9.257 -0.2020 -0.2863 -0.4023
  156SAPE   H9R17397   5.718   6.016   9.277  0.8691  0.1281 -0.0787
  156SAPE  C21017398   5.792   5.902   9.112 -0.0481  0.2469  0.7651
  156SAPE  H10R17399   5.771   5.802   9.068 -0.5711  1.3190 -1.5045
  156SAPE  H10S17400   5.900   5.918   9.096  0.1095  0.6136  2.1369
  156SAPE  C21117401   5.700   5.996   9.033  0.4365 -0.0487  0.1546
  156SAPE  H11R17402   5.603   6.014   9.081 -0.5201  0.0461 -1.7956
  156SAPE  C21217403   5.721   6.036   8.907  0.3824 -0.0580  0.0013
  156SAPE  H12R17404   5.645   6.095   8.852 -0.5312 -1.2169 -0.0027
  156SAPE  C21317405   5.834   6.000   8.818  0.4501 -0.0259 -0.1327
  156SAPE  H13R17406   5.880   5.908   8.861  0.3779 -0.1300 -0.2785
  156SAPE  H13S17407   5.899   6.090   8.820 -0.8359  0.9005  2.6124
  156SAPE  C21417408   5.778   5.987   8.678 -0.4802  0.0245 -0.1883
  156SAPE  H14R17409   5.675   5.952   8.660 -0.7006  1.8421 -2.7384
  156SAPE  C21517410   5.842   6.023   8.564  0.6866 -0.4072  0.6451
  156SAPE  H15R17411   5.786   6.015   8.469  0.0055  0.2603  0.9880
  156SAPE  C21617412   5.973   6.079   8.546 -0.2276 -0.4479 -0.2996
  156SAPE  H16R17413   6.030   6.070   8.641  0.7993  2.8325 -0.5472
  156SAPE  H16S17414   5.971   6.184   8.510  1.9687 -0.3943 -0.3542
  156SAPE  C21717415   6.052   6.006   8.437 -0.0646 -0.3824  0.2575
  156SAPE  H17R17416   6.073   5.901   8.469  0.5299 -0.1945  0.4940
  156SAPE  H17S17417   6.151   6.054   8.421 -0.8688  1.7466  1.4163
  156SAPE  C21817418   5.985   6.014   8.305 -0.3619  0.5221  0.7516
  156SAPE  H18R17419   5.944   6.117   8.293  0.7297  0.6827 -1.8148
  156SAPE  H18S17420   5.896   5.948   8.300 -1.6115  2.2710 -0.8854
  156SAPE  C21917421   6.079   5.985   8.189 -1.1024  0.0619  0.0843
  156SAPE  H19R17422   6.134   6.078   8.164  0.8958  0.2547  4.6616
  156SAPE  H19S17423   6.018   5.949   8.104  0.6443  0.0519 -1.1992
  156SAPE  C22017424   6.186   5.879   8.214 -0.3460  0.1260 -0.4862
  156SAPE  H20R17425   6.146   5.781   8.249 -0.2350 -0.0506 -0.8522
  156SAPE  H20S17426   6.250   5.913   8.299 -0.4307  0.6330 -0.6312
  156SAPE  H20T17427   6.246   5.850   8.126 -1.7169  0.9588 -1.7048
  156SAPE   C3317428   6.644   5.840   9.909  0.1358  0.2526  0.2923
  156SAPE   H3X17429   6.539   5.830   9.875  0.7356 -0.6100 -1.3205
  156SAPE   H3Y17430   6.688   5.738   9.908  0.7354  0.5121 -0.6281
  156SAPE   C3417431   6.720   5.924   9.802  0.3252  0.3850 -0.6772
  156SAPE   H4X17432   6.803   5.864   9.758 -1.3197 -0.9548 -1.9893
  156SAPE   H4Y17433   6.768   6.006   9.859 -2.0591 -0.9477  3.5045
  156SAPE   C3517434   6.627   5.978   9.694  0.2846 -0.2377 -0.8225
  156SAPE   H5X17435   6.550   6.039   9.745  0.0568  0.3180 -1.8146
  156SAPE   H5Y17436   6.572   5.899   9.637 -0.5386  0.4955 -1.0547
  156SAPE   C3617437   6.699   6.061   9.597  0.5765  0.2395 -0.2392
  156SAPE   H6X17438   6.804   6.032   9.574  0.5224 -0.4132  0.3155
  156SAPE   H6Y17439   6.710   6.157   9.653 -1.1049  0.2368  0.1118
  156SAPE   C3717440   6.613   6.099   9.463 -0.2368 -0.0396  0.2057
  156SAPE   H7X17441   6.506   6.112   9.492  0.0591 -0.6137  1.6244
  156SAPE   H7Y17442   6.625   6.011   9.397 -1.9876 -0.1454 -0.0018
  156SAPE   C3817443   6.677   6.226   9.406 -0.5688 -0.0535  0.1561
  156SAPE   H8X17444   6.782   6.208   9.376 -0.5114 -0.0229  0.3391
  156SAPE   H8Y17445   6.681   6.314   9.474 -2.4565  0.6613 -0.6241
  156SAPE   C3917446   6.609   6.274   9.281 -0.0661 -0.1063  0.0540
  156SAPE   H9X17447   6.685   6.343   9.239 -0.1963 -0.5290 -0.8983
  156SAPE   H9Y17448   6.518   6.333   9.305  0.8492  0.8764  1.1446
  156SAPE  C31017449   6.580   6.175   9.167  0.7884  0.5429  0.2973
  156SAPE  H10X17450   6.521   6.234   9.093  1.0821  0.6703  0.1622
  156SAPE  H10Y17451   6.509   6.096   9.199  1.9943 -0.0009  1.6915
  156SAPE  C31117452   6.705   6.109   9.105 -0.1323  0.7121 -0.0788
  156SAPE  H11X17453   6.733   6.024   9.171 -0.4829  2.6551  2.6071
  156SAPE  H11Y17454   6.787   6.182   9.119  1.2415 -0.4198 -1.9447
  156SAPE  C31217455   6.680   6.085   8.960 -0.0775  0.1249  0.3165
  156SAPE  H12X17456   6.639   6.173   8.906 -1.1475 -0.7791 -0.3801
  156SAPE  H12Y17457   6.608   6.001   8.946  0.0905  0.1950 -0.9909
  156SAPE  C31317458   6.807   6.042   8.889  0.0168  0.0812 -0.1804
  156SAPE  H13X17459   6.784   6.002   8.788  1.2877  1.2962 -0.9713
  156SAPE  H13Y17460   6.844   5.953   8.944  0.0956  0.2686  0.0728
  156SAPE  C31417461   6.913   6.151   8.878 -0.0136  0.6029  0.6026
  156SAPE  H14X17462   6.937   6.174   8.984 -0.3234  1.3434  0.5149
  156SAPE  H14Y17463   6.875   6.241   8.826  0.9708  0.2144 -0.8425
  156SAPE  C31517464   7.037   6.109   8.801  0.1493  0.3958  1.1263
  156SAPE  H15X17465   6.990   6.048   8.720  0.1926  0.0262  1.3766
  156SAPE  H15Y17466   7.097   6.042   8.867  0.6001  0.3401  0.6573
  156SAPE  C31617467   7.120   6.214   8.728  0.2844 -0.3731  0.0514
  156SAPE  H16X17468   7.157   6.284   8.807 -0.9584 -2.0573  2.1861
  156SAPE  H16Y17469   7.080   6.275   8.645  1.0292 -3.7924 -2.9372
  156SAPE  C31717470   7.252   6.157   8.671  0.0232 -0.7959 -0.2890
  156SAPE  H17X17471   7.309   6.233   8.612  1.9536 -0.2081  2.2682
  156SAPE  H17Y17472   7.231   6.084   8.590  0.4900  0.0368 -1.1760
  156SAPE  C31817473   7.349   6.101   8.770  0.2909 -0.1531  0.5012
  156SAPE  H18X17474   7.432   6.052   8.714 -0.5936 -0.0786 -0.9144
  156SAPE  H18Y17475   7.298   6.030   8.839 -0.9162 -0.3061 -0.5236
  156SAPE  H18Z17476   7.385   6.188   8.829  0.1932 -0.9264  1.7111
  157SAPE     N17477   4.650   6.439  10.878 -0.4062 -0.5577 -0.5702
  157SAPE   HN117478   4.594   6.525  10.860  1.7403  0.6459 -1.7862
  157SAPE   HN217479   4.642   6.413  10.978 -1.2112 -0.3326 -0.5807
  157SAPE   HN317480   4.753   6.456  10.873 -0.3447  0.0603  2.3204
  157SAPE   C1217481   4.602   6.326  10.796 -0.0764  1.0856  0.3607
  157SAPE  H12A17482   4.601   6.362  10.691 -0.4864  0.7247  0.2368
  157SAPE  H12B17483   4.503   6.287  10.830  0.1392 -0.4610 -0.7467
  157SAPE   C1117484   4.716   6.216  10.813  0.3579  0.0135  0.0951
  157SAPE  H11A17485   4.679   6.127  10.757  0.4524  2.0528 -3.3238
  157SAPE  H11B17486   4.739   6.179  10.915  1.0843 -0.3653 -0.2041
  157SAPE     P17487   4.940   6.161  10.699 -0.3730 -0.0556 -0.2555
  157SAPE   O1317488   5.052   6.242  10.638 -0.3160 -0.0829  0.6511
  157SAPE   O1417489   4.986   6.076  10.811  0.1764 -0.9165 -0.1049
  157SAPE   O1217490   4.829   6.269  10.750 -0.1416 -0.2711  0.3335
  157SAPE   O1117491   4.871   6.071  10.586  0.0977  0.0082 -0.4180
  157SAPE    C117492   4.808   6.143  10.478 -0.5571  0.5071  0.1745
  157SAPE    HA17493   4.706   6.100  10.469  0.4215 -1.8291 -0.0873
  157SAPE    HB17494   4.809   6.253  10.490  1.1749  0.5207  0.0121
  157SAPE    C217495   4.882   6.121  10.348 -0.6005 -0.2322  0.2587
  157SAPE    HS17496   4.987   6.158  10.350 -1.1510  1.3757 -0.1723
  157SAPE   O2117497   4.808   6.197  10.248  0.4777  0.0573  0.1970
  157SAPE   C2117498   4.873   6.252  10.150  0.1443  0.0126  0.0070
  157SAPE   O2217499   4.995   6.251  10.142  0.3778 -0.7046  0.2086
  157SAPE   C2217500   4.775   6.323  10.055  0.1243 -0.0679 -1.2544
  157SAPE   H2R17501   4.705   6.389  10.111  0.7385  2.0998 -2.9672
  157SAPE   H2S17502   4.829   6.382   9.979 -0.6223  0.5566 -1.3059
  157SAPE    C317503   4.893   5.974  10.304  0.8228  0.0406  0.3598
  157SAPE    HX17504   4.789   5.938  10.294  0.5159  0.4877  1.9189
  157SAPE    HY17505   4.944   5.921  10.387  2.0958 -0.4643 -0.7218
  157SAPE   O3117506   4.968   5.967  10.181  0.8543 -0.4549 -0.1721
  157SAPE   C3117507   4.994   5.842  10.154  0.8346 -0.6794 -0.9958
  157SAPE   O3217508   4.952   5.747  10.222  0.4569 -0.2322  0.9586
  157SAPE   C3217509   5.071   5.817  10.025 -0.3790  0.1246  0.5487
  157SAPE   H2X17510   5.082   5.707  10.013 -3.8211 -0.4071  1.5872
  157SAPE   H2Y17511   5.170   5.864  10.042 -1.2324  2.9131 -1.7136
  157SAPE   C2317512   4.690   6.220   9.982 -0.5079  0.3353 -0.0897
  157SAPE   H3R17513   4.643   6.157  10.060 -0.0928 -0.7187 -0.6901
  157SAPE   H3S17514   4.751   6.142   9.931  0.4245  0.8740  0.1730
  157SAPE   C2417515   4.589   6.284   9.884 -0.4649 -0.2396 -0.1538
  157SAPE   H4R17516   4.662   6.322   9.809  2.2937  0.0436  2.6212
  157SAPE   H4S17517   4.549   6.379   9.925  2.0680  1.2237 -0.9992
  157SAPE   C2517518   4.472   6.200   9.830 -0.0816  0.1403 -0.6965
  157SAPE   H5R17519   4.404   6.159   9.906 -0.8387 -0.3060 -1.6020
  157SAPE   C2617520   4.455   6.158   9.699  0.3371  0.2677  0.8719
  157SAPE   H6R17521   4.363   6.105   9.669  1.1392 -0.9668  0.5775
  157SAPE   C2717522   4.537   6.207   9.583  0.2805  0.1755  1.4480
  157SAPE   H7R17523   4.531   6.318   9.584 -0.1928  0.1893 -0.8756
  157SAPE   H7S17524   4.476   6.189   9.492  1.5242 -0.9442  0.8215
  157SAPE   C2817525   4.676   6.156   9.581  0.8752  0.1911 -0.0277
  157SAPE   H8R17526   4.720   6.106   9.668 -0.6161  1.0974  1.2781
  157SAPE   C2917527   4.746   6.157   9.468  0.1360 -0.4385  0.8464
  157SAPE   H9R17528   4.846   6.112   9.460  0.9894  1.4738  0.4465
  157SAPE  C21017529   4.702   6.219   9.335 -0.8171 -0.5653  0.5459
  157SAPE  H10R17530   4.798   6.240   9.282  0.2401  1.1660  3.0781
  157SAPE  H10S17531   4.653   6.317   9.348  3.2537  1.5966  0.2985
  157SAPE  C21117532   4.599   6.136   9.255 -0.8552  0.3672  1.1415
  157SAPE  H11R17533   4.560   6.041   9.296 -1.6343 -0.7139 -1.9652
  157SAPE  C21217534   4.560   6.158   9.129 -0.4705 -0.6831  0.3909
  157SAPE  H12R17535   4.477   6.104   9.080  0.2337 -1.0095 -0.4435
  157SAPE  C21317536   4.613   6.263   9.043 -0.7236 -0.3112 -0.2509
  157SAPE  H13R17537   4.607   6.360   9.096 -0.0570  0.2538 -1.2160
  157SAPE  H13S17538   4.535   6.277   8.965 -0.8940  1.3318  0.2127
  157SAPE  C21417539   4.749   6.238   8.980  0.0105 -0.1783 -0.2401
  157SAPE  H14R17540   4.828   6.236   9.056  0.1259  0.9054 -0.3335
  157SAPE  C21517541   4.767   6.215   8.842 -0.0842  0.2749 -0.3304
  157SAPE  H15R17542   4.871   6.196   8.809  0.0830  0.4657  0.0800
  157SAPE  C21617543   4.667   6.201   8.730 -0.6260 -0.0455  0.2595
  157SAPE  H16R17544   4.717   6.235   8.637  0.7705 -1.4855  0.4834
  157SAPE  H16S17545   4.576   6.265   8.733 -0.0350  0.8353 -0.4967
  157SAPE  C21717546   4.612   6.057   8.695  0.1012  0.1566 -0.7438
  157SAPE  H17R17547   4.518   6.077   8.639 -0.9313  1.9495  1.5366
  157SAPE  H17S17548   4.563   6.020   8.788 -0.5098  2.8035  0.0149
  157SAPE  C21817549   4.707   5.963   8.616  0.0028 -0.1969 -0.7363
  157SAPE  H18R17550   4.785   5.939   8.692 -0.6504 -2.7763 -0.8437
  157SAPE  H18S17551   4.770   6.007   8.535  0.0606  0.1725 -0.4879
  157SAPE  C21917552   4.641   5.837   8.589 -0.7153  0.9480  0.1684
  157SAPE  H19R17553   4.555   5.857   8.522 -1.0550  1.0268  0.6256
  157SAPE  H19S17554   4.599   5.782   8.676 -0.7575  0.5727 -0.0903
  157SAPE  C22017555   4.730   5.736   8.517  0.0188 -0.8103  0.0016
  157SAPE  H20R17556   4.770   5.773   8.420  0.9354 -0.1499  0.6268
  157SAPE  H20S17557   4.665   5.654   8.481  0.6128 -0.7326 -1.2741
  157SAPE  H20T17558   4.822   5.709   8.572  0.8753  0.5687 -0.7194
  157SAPE   C3317559   5.013   5.883   9.899 -0.3299 -0.2700  0.7401
  157SAPE   H3X17560   5.009   5.993   9.917  0.9813 -0.0882 -0.0138
  157SAPE   H3Y17561   4.906   5.851   9.896 -1.0564  2.1561 -0.9702
  157SAPE   C3417562   5.078   5.855   9.759  0.0916 -0.4125 -0.1180
  157SAPE   H4X17563   5.126   5.755   9.764  1.3448 -0.1847 -4.7389
  157SAPE   H4Y17564   5.159   5.928   9.736 -0.1955  0.2085  0.8350
  157SAPE   C3517565   4.973   5.860   9.646  0.1131  0.2082  0.1637
  157SAPE   H5X17566   4.918   5.955   9.629 -1.3428 -0.2756  2.0573
  157SAPE   H5Y17567   4.894   5.794   9.688 -0.0962  0.9512  0.9332
  157SAPE   C3617568   5.017   5.821   9.502 -0.2090  0.1847  0.0109
  157SAPE   H6X17569   5.054   5.716   9.506  1.0336  0.5832 -0.7966
  157SAPE   H6Y17570   5.106   5.882   9.474 -0.0357 -0.6554 -1.2911
  157SAPE   C3717571   4.908   5.816   9.396 -0.2121  0.2877 -0.6758
  157SAPE   H7X17572   4.885   5.920   9.363  4.0380  0.7360 -2.5655
  157SAPE   H7Y17573   4.814   5.785   9.445  1.0630 -1.2999  0.8293
  157SAPE   C3817574   4.945   5.713   9.280  0.0240  0.3359  0.5949
  157SAPE   H8X17575   4.922   5.609   9.309  2.6808 -0.4324  0.1394
  157SAPE   H8Y17576   5.054   5.730   9.263 -0.6886  3.0571 -1.7290
  157SAPE   C3917577   4.875   5.742   9.143  0.0673 -0.4354  0.5680
  157SAPE   H9X17578   4.914   5.833   9.094 -1.6316 -1.6094 -3.2310
  157SAPE   H9Y17579   4.766   5.757   9.160  0.0231 -0.3003  0.1877
  157SAPE  C31017580   4.873   5.621   9.050  0.0659  0.9168  0.8777
  157SAPE  H10X17581   4.870   5.530   9.115  0.8030  1.3947  1.5793
  157SAPE  H10Y17582   4.971   5.621   8.998 -0.5005  3.2522 -0.2333
  157SAPE  C31117583   4.763   5.620   8.939 -0.0048 -0.3630  0.2799
  157SAPE  H11X17584   4.790   5.682   8.852 -2.7557  0.5232 -0.0007
  157SAPE  H11Y17585   4.682   5.679   8.987 -0.5568  0.0210 -1.0875
  157SAPE  C31217586   4.727   5.479   8.886  0.6246 -1.0328 -0.0478
  157SAPE  H12X17587   4.705   5.418   8.976  2.2904 -1.3539  0.1680
  157SAPE  H12Y17588   4.815   5.438   8.832 -0.8344 -2.5433 -1.3339
  157SAPE  C31317589   4.603   5.470   8.788  0.2239  0.3213  0.2315
  157SAPE  H13X17590   4.618   5.553   8.715 -0.2468 -0.7967 -1.1445
  157SAPE  H13Y17591   4.506   5.503   8.830 -0.9293 -1.1906 -1.1632
  157SAPE  C31417592   4.583   5.340   8.718 -0.1946  0.7069  0.2272
  157SAPE  H14X17593   4.578   5.248   8.779  0.9454  1.1669  1.0342
  157SAPE  H14Y17594   4.665   5.331   8.644  0.5901 -0.7020  1.2540
  157SAPE  C31517595   4.447   5.360   8.643 -0.2868  1.0206 -0.0759
  157SAPE  H15X17596   4.449   5.285   8.562 -0.8330  2.2063 -1.1995
  157SAPE  H15Y17597   4.453   5.464   8.604 -0.3022  0.6251 -1.1490
  157SAPE  C31617598   4.320   5.333   8.731 -0.6728  0.5682  0.1671
  157SAPE  H16X17599   4.290   5.423   8.789 -3.8503  0.2513 -0.9310
  157SAPE  H16Y17600   4.338   5.249   8.802 -1.8189 -0.6640 -0.9797
  157SAPE  C31717601   4.205   5.291   8.640  0.5619  0.2747  0.7536
  157SAPE  H17X17602   4.225   5.186   8.608 -1.1152 -0.5425  2.2391
  157SAPE  H17Y17603   4.218   5.347   8.546  0.1548 -1.9366 -0.6682
  157SAPE  C31817604   4.075   5.294   8.708  0.1177 -0.0282 -0.0731
  157SAPE  H18X17605   4.043   5.398   8.729 -1.0761 -0.7901  2.0213
  157SAPE  H18Y17606   4.054   5.234   8.799  1.9436 -0.5884 -0.0112
  157SAPE  H18Z17607   3.992   5.277   8.636 -1.1429  0.4552  1.2373
  158SAPE     N17608   0.032   6.583  10.665 -0.2566  0.0630  0.3692
  158SAPE   HN117609   0.062   6.485  10.646 -1.2104 -0.5239  1.7394
  158SAPE   HN217610  -0.008   6.615  10.575  0.2070 -1.8520 -0.5392
  158SAPE   HN317611   0.108   6.646  10.697 -1.3232  2.3806 -1.5139
  158SAPE   C1217612  -0.079   6.590  10.765  0.0437  0.0772  0.8166
  158SAPE  H12A17613  -0.108   6.695  10.786 -0.4835  0.2732 -0.8444
  158SAPE  H12B17614  -0.049   6.543  10.861 -0.9291 -0.4945  0.8454
  158SAPE   C1117615  -0.205   6.513  10.708  0.4594  0.4126  0.5536
  158SAPE  H11A17616  -0.249   6.575  10.627 -1.6397  0.6390  1.8322
  158SAPE  H11B17617  -0.277   6.518  10.792 -1.1476 -1.2811 -0.6679
  158SAPE     P17618  -0.215   6.250  10.745  0.7590  0.4383 -0.3424
  158SAPE   O1317619  -0.099   6.208  10.821 -0.0843  0.5646 -0.7319
  158SAPE   O1417620  -0.341   6.275  10.823  0.2270  0.1234 -0.3836
  158SAPE   O1217621  -0.174   6.384  10.666 -0.6752  0.3462  0.0133
  158SAPE   O1117622  -0.247   6.137  10.636 -0.3524  0.0245  0.2446
  158SAPE    C117623  -0.286   6.169  10.507  0.6480  0.1723 -0.5719
  158SAPE    HA17624  -0.347   6.083  10.472  1.3258 -0.6566  0.2429
  158SAPE    HB17625  -0.354   6.256  10.497 -0.1856 -0.3491  0.4620
  158SAPE    C217626  -0.161   6.189  10.414 -0.1124 -0.2966 -0.4967
  158SAPE    HS17627  -0.094   6.277  10.430  3.0590 -2.4143 -1.6657
  158SAPE   O2117628  -0.210   6.195  10.283 -0.3033 -0.1093 -0.0059
  158SAPE   C2117629  -0.248   6.315  10.232 -0.1886  0.1823 -0.6650
  158SAPE   O2217630  -0.228   6.426  10.283 -0.2075 -0.4267 -0.0809
  158SAPE   C2217631  -0.316   6.287  10.096  0.0243 -0.0607 -0.8285
  158SAPE   H2R17632  -0.303   6.184  10.055  4.5015  0.3806 -0.7474
  158SAPE   H2S17633  -0.425   6.308  10.099  0.1184  0.3699 -0.4247
  158SAPE    C317634  -0.054   6.070  10.433 -0.3125 -0.1877 -0.5297
  158SAPE    HX17635  -0.115   5.979  10.451  0.4094 -0.8097 -1.1596
  158SAPE    HY17636   0.005   6.102  10.521 -0.8323  0.9530 -0.5847
  158SAPE   O3117637   0.042   6.062  10.321 -0.1093  0.1832 -0.4908
  158SAPE   C3117638   0.120   6.162  10.303  0.6160 -0.6843 -0.9097
  158SAPE   O3217639   0.124   6.266  10.366  0.4373 -0.1228  0.8639
  158SAPE   C3217640   0.214   6.132  10.193 -0.9592 -0.0056 -0.2550
  158SAPE   H2X17641   0.244   6.027  10.212 -0.0937  0.3467  0.3512
  158SAPE   H2Y17642   0.306   6.194  10.206 -0.5106 -0.2585 -2.0347
  158SAPE   C2317643  -0.260   6.386   9.989  0.0044 -0.4564  0.0990
  158SAPE   H3R17644  -0.149   6.376   9.990  0.0300 -0.3163  2.8598
  158SAPE   H3S17645  -0.282   6.490  10.022 -2.2361 -0.7182 -0.5162
  158SAPE   C2417646  -0.307   6.358   9.845  0.8521 -0.4297 -0.2062
  158SAPE   H4R17647  -0.295   6.253   9.811  0.4951 -0.3500 -0.5819
  158SAPE   H4S17648  -0.245   6.429   9.785 -1.4867  0.8689 -1.1695
  158SAPE   C2517649  -0.450   6.392   9.813 -0.4082  0.0055  0.2750
  158SAPE   H5R17650  -0.484   6.493   9.840 -2.8610 -0.4726 -0.8247
  158SAPE   C2617651  -0.544   6.308   9.751 -0.0239 -0.1261  0.2727
  158SAPE   H6R17652  -0.645   6.349   9.734 -0.6326 -1.5451  0.4736
  158SAPE   C2717653  -0.520   6.167   9.703 -0.5897 -0.2607  0.2242
  158SAPE   H7R17654  -0.469   6.102   9.777  0.9269  0.6768  0.0177
  158SAPE   H7S17655  -0.462   6.173   9.608 -1.8205 -0.6596 -0.5596
  158SAPE   C2817656  -0.651   6.090   9.682  0.3698 -0.1728  0.2384
  158SAPE   H8R17657  -0.724   6.085   9.764  1.7826  1.9752  1.6907
  158SAPE   C2917658  -0.681   6.025   9.572 -0.0255 -0.0659  0.3551
  158SAPE   H9R17659  -0.781   5.980   9.566 -1.4923  2.9165  1.3342
  158SAPE  C21017660  -0.597   6.012   9.449  0.9629 -0.2332 -0.0276
  158SAPE  H10R17661  -0.626   5.915   9.403  1.9526 -1.4238  1.7857
  158SAPE  H10S17662  -0.491   6.010   9.480  0.8527  1.1118  0.4642
  158SAPE  C21117663  -0.612   6.118   9.352  0.6457 -0.3585 -0.0387
  158SAPE  H11R17664  -0.587   6.218   9.391  1.3845 -0.4446 -0.2790
  158SAPE  C21217665  -0.626   6.111   9.219 -0.1854  0.5086  0.2240
  158SAPE  H12R17666  -0.641   6.205   9.164  1.0628  0.6297  0.0898
  158SAPE  C21317667  -0.634   5.994   9.130  0.5213  0.2911 -0.4514
  158SAPE  H13R17668  -0.695   6.019   9.041 -1.3829  0.6623  0.9289
  158SAPE  H13S17669  -0.691   5.909   9.173 -0.7674  0.8976 -0.9676
  158SAPE  C21417670  -0.504   5.944   9.082 -0.7738 -0.2444  0.6298
  158SAPE  H14R17671  -0.430   5.936   9.162  0.9423  1.6729 -0.7182
  158SAPE  C21517672  -0.471   5.912   8.956 -0.0532  0.1398  0.7796
  158SAPE  H15R17673  -0.373   5.865   8.937 -0.2654  0.6961 -1.8714
  158SAPE  C21617674  -0.560   5.912   8.830  0.3058 -0.1081  0.0983
  158SAPE  H16R17675  -0.539   6.006   8.775 -1.1830 -0.8545 -1.7910
  158SAPE  H16S17676  -0.667   5.904   8.857  0.6227 -1.9848  0.8449
  158SAPE  C21717677  -0.527   5.794   8.732  0.4255 -0.1339 -0.5549
  158SAPE  H17R17678  -0.622   5.740   8.710  1.6704 -2.6826  0.2117
  158SAPE  H17S17679  -0.465   5.719   8.784  0.3661  0.2238  0.0412
  158SAPE  C21817680  -0.445   5.839   8.603  0.1731  0.7399 -0.4050
  158SAPE  H18R17681  -0.484   5.938   8.572  2.6684  1.7304 -0.4730
  158SAPE  H18S17682  -0.461   5.768   8.519 -0.3001 -0.0011  0.3026
  158SAPE  C21917683  -0.293   5.836   8.627  0.1656 -0.7077 -0.6339
  158SAPE  H19R17684  -0.262   5.730   8.622  0.5927 -0.7267  1.8048
  158SAPE  H19S17685  -0.286   5.879   8.730 -2.1391  1.7825 -1.4556
  158SAPE  C22017686  -0.232   5.926   8.526  0.0098  0.2608 -0.0074
  158SAPE  H20R17687  -0.261   6.033   8.519 -0.3731  0.2291  1.0619
  158SAPE  H20S17688  -0.263   5.883   8.429  1.7171  0.2825 -0.5880
  158SAPE  H20T17689  -0.121   5.927   8.533  0.0990 -0.2000 -1.3146
  158SAPE   C3317690   0.163   6.159  10.052 -0.4876  0.1105  0.5169
  158SAPE   H3X17691   0.058   6.124  10.046 -1.0088  1.8765 -1.0685
  158SAPE   H3Y17692   0.220   6.106   9.973  0.0658 -0.5382  1.3447
  158SAPE   C3417693   0.182   6.311  10.019 -0.7939 -0.1419 -0.0303
  158SAPE   H4X17694   0.286   6.336  10.048 -1.1692  1.0271  0.3373
  158SAPE   H4Y17695   0.107   6.366  10.079 -0.4564  0.7166 -0.3845
  158SAPE   C3517696   0.160   6.330   9.873 -0.5301 -0.5586  0.1011
  158SAPE   H5X17697   0.076   6.264   9.842 -0.2737 -0.8609  0.0548
  158SAPE   H5Y17698   0.249   6.288   9.822 -0.7412  0.9595 -1.5967
  158SAPE   C3617699   0.139   6.477   9.829 -0.4486  0.7718  0.3121
  158SAPE   H6X17700   0.234   6.534   9.841  0.3713 -0.7945  1.4323
  158SAPE   H6Y17701   0.074   6.531   9.901  3.5137  4.7924  1.1000
  158SAPE   C3717702   0.083   6.504   9.691  0.1375 -0.1388 -0.1922
  158SAPE   H7X17703   0.055   6.611   9.681 -3.6575 -0.9988  0.1779
  158SAPE   H7Y17704  -0.006   6.443   9.664  0.2171 -0.2055 -0.2983
  158SAPE   C3817705   0.196   6.490   9.584  0.0660 -0.0553 -0.5212
  158SAPE   H8X17706   0.263   6.404   9.606  1.7524  0.7399 -2.4395
  158SAPE   H8Y17707   0.255   6.584   9.580 -2.0514  1.3411 -0.1497
  158SAPE   C3917708   0.140   6.475   9.440  0.2261 -0.3937  0.0208
  158SAPE   H9X17709   0.054   6.542   9.419 -1.5365 -3.3667 -2.8495
  158SAPE   H9Y17710   0.107   6.370   9.421 -0.1641 -0.2642 -0.0117
  158SAPE  C31017711   0.251   6.493   9.334 -0.2043 -0.0096 -0.0038
  158SAPE  H10X17712   0.337   6.427   9.357  0.3128  0.4100 -0.7325
  158SAPE  H10Y17713   0.276   6.601   9.336 -0.3383  0.0189  0.2725
  158SAPE  C31117714   0.218   6.445   9.190  0.2470 -0.2781  0.6912
  158SAPE  H11X17715   0.122   6.496   9.166  1.1554  0.8436 -0.6483
  158SAPE  H11Y17716   0.197   6.336   9.176  2.7802 -0.6516 -0.3641
  158SAPE  C31217717   0.320   6.488   9.085  0.0495 -0.0216  0.0767
  158SAPE  H12X17718   0.346   6.593   9.111  2.6388 -0.9126  1.2691
  158SAPE  H12Y17719   0.282   6.491   8.981 -1.9596 -2.0563  0.7186
  158SAPE  C31317720   0.452   6.410   9.079 -0.5905  0.5420  0.1045
  158SAPE  H13X17721   0.431   6.311   9.035  0.8103  0.7288 -0.9924
  158SAPE  H13Y17722   0.509   6.403   9.174  1.6434  3.3101 -0.9592
  158SAPE  C31417723   0.577   6.477   9.005  0.2777  0.4636 -0.0888
  158SAPE  H14X17724   0.579   6.584   9.032  2.0766  0.1131  1.2132
  158SAPE  H14Y17725   0.544   6.474   8.898  1.1865  1.5568 -0.4076
  158SAPE  C31517726   0.711   6.415   9.021 -0.3193 -0.2166 -0.5290
  158SAPE  H15X17727   0.713   6.310   8.984 -0.2816 -1.6127  3.2049
  158SAPE  H15Y17728   0.733   6.411   9.130 -1.2231  1.0084 -0.2948
  158SAPE  C31617729   0.830   6.502   8.957  0.4505  0.0034  0.0997
  158SAPE  H16X17730   0.786   6.604   8.955 -2.4001 -1.1519  0.8427
  158SAPE  H16Y17731   0.848   6.468   8.853 -1.6296  1.1714 -0.6925
  158SAPE  C31717732   0.966   6.509   9.027  0.4231 -0.3640  0.0561
  158SAPE  H17X17733   1.028   6.562   8.951 -0.6644 -0.4087 -0.8712
  158SAPE  H17Y17734   1.011   6.408   9.037  0.4282 -0.1629  2.4054
  158SAPE  C31817735   0.971   6.583   9.164  0.2240 -0.0778  0.0447
  158SAPE  H18X17736   0.921   6.678   9.138 -0.9596 -0.6919  0.0381
  158SAPE  H18Y17737   1.079   6.589   9.190  0.1880  0.6267  0.0320
  158SAPE  H18Z17738   0.917   6.525   9.241 -1.2590 -2.3742 -2.6331
  159SAPE     N17739   6.157   3.064   6.214  0.3600 -0.0760  0.2291
  159SAPE   HN117740   6.158   2.977   6.156  2.6115  0.4319 -0.5796
  159SAPE   HN217741   6.228   3.127   6.171 -0.2040  2.5274  2.9467
  159SAPE   HN317742   6.185   3.047   6.313  1.0837 -0.5829 -0.0552
  159SAPE   C1217743   6.024   3.128   6.221  0.9159  0.1279 -0.1918
  159SAPE  H12A17744   5.948   3.047   6.225 -0.7424  1.7623  2.2656
  159SAPE  H12B17745   6.015   3.184   6.126 -0.7694 -1.3025 -0.8954
  159SAPE   C1117746   6.002   3.222   6.337  0.5691  0.4008  0.4096
  159SAPE  H11A17747   6.003   3.158   6.428 -1.1227 -1.7342 -1.0078
  159SAPE  H11B17748   5.897   3.260   6.335  0.5505  0.4125  1.4306
  159SAPE     P17749   6.069   3.457   6.430 -0.2459 -0.2920  0.3687
  159SAPE   O1317750   6.195   3.528   6.465  0.1052  0.4180  0.5075
  159SAPE   O1417751   5.974   3.541   6.349  0.1268  0.1910 -0.2649
  159SAPE   O1217752   6.102   3.326   6.342 -0.2911 -0.0663 -0.0118
  159SAPE   O1117753   5.993   3.405   6.556  0.1703  0.1297 -0.5987
  159SAPE    C117754   6.060   3.354   6.674 -0.1904  0.3527 -0.0406
  159SAPE    HA17755   6.135   3.279   6.644 -0.3291  0.4877 -0.7310
  159SAPE    HB17756   6.112   3.434   6.731  2.5823 -1.0268 -0.5517
  159SAPE    C217757   5.954   3.294   6.766 -0.0312  0.1528  0.6052
  159SAPE    HS17758   5.885   3.228   6.709  0.9692 -0.1229 -0.3011
  159SAPE   O2117759   5.879   3.403   6.823  0.6726  0.2088  0.5574
  159SAPE   C2117760   5.763   3.357   6.892  0.5485 -0.0691 -0.2829
  159SAPE   O2217761   5.718   3.243   6.886 -0.4598 -0.6927 -0.1522
  159SAPE   C2217762   5.717   3.477   6.980 -0.1667 -0.3966  0.7473
  159SAPE   H2R17763   5.790   3.559   6.967 -0.3957 -0.3674 -0.4272
  159SAPE   H2S17764   5.614   3.511   6.956  0.8969  2.2482 -0.2307
  159SAPE    C317765   6.007   3.200   6.875 -0.4420  1.0984 -0.7745
  159SAPE    HX17766   6.063   3.120   6.821 -0.5187  0.3851  0.1994
  159SAPE    HY17767   5.929   3.141   6.927 -0.5587  1.4956 -0.5020
  159SAPE   O3117768   6.101   3.267   6.969 -0.1318  0.5560 -0.0272
  159SAPE   C3117769   6.110   3.207   7.087 -0.1967  0.1071 -0.3035
  159SAPE   O3217770   6.064   3.099   7.117 -0.2672  0.1530  0.0519
  159SAPE   C3217771   6.179   3.308   7.177  0.3577  0.2753  0.0805
  159SAPE   H2X17772   6.129   3.404   7.157  0.4522  1.2201  3.9511
  159SAPE   H2Y17773   6.284   3.310   7.141 -0.0535  1.8068 -1.0581
  159SAPE   C2317774   5.706   3.425   7.125  0.1143  0.4384 -0.2805
  159SAPE   H3R17775   5.806   3.412   7.172  0.4563 -0.1758 -1.1681
  159SAPE   H3S17776   5.655   3.326   7.124  2.8167 -1.0025 -1.7433
  159SAPE   C2417777   5.635   3.523   7.217  0.3072  0.3583 -0.1162
  159SAPE   H4R17778   5.538   3.551   7.171 -1.3265  0.0448  2.9672
  159SAPE   H4S17779   5.698   3.614   7.226 -0.9929  1.3044 -0.5263
  159SAPE   C2517780   5.631   3.470   7.360 -0.4917 -0.0144 -0.0105
  159SAPE   H5R17781   5.596   3.366   7.356  1.2986 -0.6947  1.0659
  159SAPE   C2617782   5.674   3.534   7.471  0.4649 -0.0874 -0.0942
  159SAPE   H6R17783   5.660   3.479   7.566 -0.4434  0.7591  0.2643
  159SAPE   C2717784   5.734   3.670   7.475  0.1430  0.1715 -0.0514
  159SAPE   H7R17785   5.656   3.735   7.520  1.4237  1.4460  0.3570
  159SAPE   H7S17786   5.749   3.714   7.374  0.4978  1.0552  0.3773
  159SAPE   C2817787   5.864   3.663   7.549 -0.0769  0.4075  0.1465
  159SAPE   H8R17788   5.937   3.600   7.496  0.2368  2.0760 -1.4575
  159SAPE   C2917789   5.899   3.722   7.665  0.2234  0.5770  0.5741
  159SAPE   H9R17790   6.003   3.726   7.700 -0.2791  0.5251  2.0798
  159SAPE  C21017791   5.805   3.814   7.736  0.0887 -0.3148  0.0238
  159SAPE  H10R17792   5.765   3.894   7.671 -1.1481 -1.7139 -0.9901
  159SAPE  H10S17793   5.886   3.861   7.796  0.4646 -1.3095  0.3125
  159SAPE  C21117794   5.707   3.749   7.831 -0.5325  0.3773 -0.2653
  159SAPE  H11R17795   5.629   3.685   7.786 -0.5827 -1.4601  2.3739
  159SAPE  C21217796   5.710   3.745   7.962  0.4179 -0.0138 -0.7624
  159SAPE  H12R17797   5.634   3.686   8.016  1.3585  0.7517  1.4769
  159SAPE  C21317798   5.806   3.820   8.053  0.0510 -0.0324 -0.6772
  159SAPE  H13R17799   5.764   3.847   8.153  1.1580  0.2661 -0.2868
  159SAPE  H13S17800   5.836   3.918   8.010 -3.4425  2.0117  1.2962
  159SAPE  C21417801   5.929   3.736   8.071  0.0172 -0.3682 -0.7124
  159SAPE  H14R17802   6.014   3.764   8.008  0.4039 -2.9428 -1.3885
  159SAPE  C21517803   5.954   3.652   8.177  0.0363 -0.6802 -0.5008
  159SAPE  H15R17804   6.051   3.600   8.172 -0.9632 -2.5618 -0.7737
  159SAPE  C21617805   5.877   3.636   8.304 -0.2448  0.8030 -0.4376
  159SAPE  H16R17806   5.856   3.527   8.308  1.8931  0.3031 -1.8890
  159SAPE  H16S17807   5.778   3.687   8.298 -2.5343 -3.2306  0.9092
  159SAPE  C21717808   5.934   3.661   8.446 -0.3740  0.1121  0.6292
  159SAPE  H17R17809   6.030   3.605   8.451 -1.4088 -1.7919 -0.6074
  159SAPE  H17S17810   5.866   3.628   8.528  1.2213 -1.1369  1.4864
  159SAPE  C21817811   5.959   3.812   8.473  0.4284 -0.3359 -0.0312
  159SAPE  H18R17812   5.859   3.860   8.468  0.5067 -0.1364  0.2908
  159SAPE  H18S17813   6.024   3.853   8.393  1.2666 -1.4990  0.0322
  159SAPE  C21917814   6.018   3.855   8.608 -0.1366  0.7475 -0.2485
  159SAPE  H19R17815   5.999   3.963   8.622  0.3779  0.8845 -0.6041
  159SAPE  H19S17816   6.126   3.835   8.623 -0.6852 -0.0097  3.3391
  159SAPE  C22017817   5.962   3.778   8.724 -0.3421 -0.5349 -0.0761
  159SAPE  H20R17818   6.003   3.814   8.821  0.6409 -1.0711 -0.2880
  159SAPE  H20S17819   5.995   3.672   8.724 -0.8366 -0.6907  0.6002
  159SAPE  H20T17820   5.851   3.776   8.724 -0.3470 -0.3540  0.2814
  159SAPE   C3317821   6.150   3.283   7.331 -0.5588 -0.7898 -0.4787
  159SAPE   H3X17822   6.213   3.349   7.395 -0.5727 -0.5787 -0.6803
  159SAPE   H3Y17823   6.200   3.185   7.346  0.7372 -0.1870 -0.7698
  159SAPE   C3417824   6.005   3.295   7.375 -0.2898  1.1391 -0.8174
  159SAPE   H4X17825   5.941   3.226   7.315 -2.6642 -0.5826  3.4589
  159SAPE   H4Y17826   5.976   3.401   7.362  2.0336  1.9893  0.6160
  159SAPE   C3517827   5.982   3.254   7.521 -1.3047  0.7744 -0.0869
  159SAPE   H5X17828   6.005   3.146   7.536  0.1988  1.1574  0.4212
  159SAPE   H5Y17829   5.875   3.275   7.544 -1.6181  0.5501 -1.3279
  159SAPE   C3617830   6.063   3.328   7.628  0.4707 -0.6346 -0.8125
  159SAPE   H6X17831   6.027   3.433   7.628  1.0015 -0.4476 -1.7551
  159SAPE   H6Y17832   6.173   3.317   7.616  0.5905  2.5754 -3.1751
  159SAPE   C3717833   6.033   3.268   7.767 -0.0324 -0.5345 -0.2358
  159SAPE   H7X17834   6.039   3.157   7.771  1.6867 -0.4170  0.8178
  159SAPE   H7Y17835   5.924   3.288   7.774  0.1958  1.1080 -1.2115
  159SAPE   C3817836   6.125   3.332   7.865  0.0747 -0.1145  0.2973
  159SAPE   H8X17837   6.124   3.442   7.846 -0.4519 -0.3588 -1.1644
  159SAPE   H8Y17838   6.230   3.298   7.854 -0.3132 -0.5971 -2.2823
  159SAPE   C3917839   6.076   3.314   8.008 -0.1470 -0.6129  0.2253
  159SAPE   H9X17840   5.972   3.353   7.999  0.6316  1.4768  0.0685
  159SAPE   H9Y17841   6.135   3.382   8.072  0.3161  1.6384 -2.4978
  159SAPE  C31017842   6.065   3.169   8.051  0.1162 -0.1240  0.5958
  159SAPE  H10X17843   6.134   3.105   7.991 -2.1903 -0.5487 -1.6635
  159SAPE  H10Y17844   5.967   3.125   8.024  1.3835 -1.3227 -2.2585
  159SAPE  C31117845   6.108   3.157   8.197 -0.1301  0.1396  0.0688
  159SAPE  H11X17846   6.029   3.182   8.271  2.0086  0.0825  2.4377
  159SAPE  H11Y17847   6.197   3.221   8.211 -0.7842  0.6021  2.3055
  159SAPE  C31217848   6.144   3.013   8.243 -0.7268 -0.9995  0.3527
  159SAPE  H12X17849   6.059   2.944   8.227 -1.1849 -0.6289  1.1225
  159SAPE  H12Y17850   6.167   3.014   8.352 -0.3203  1.1209  0.2631
  159SAPE  C31317851   6.269   2.959   8.163 -0.2595 -0.2978 -0.1886
  159SAPE  H13X17852   6.349   3.028   8.129  0.0443 -0.9067 -0.7449
  159SAPE  H13Y17853   6.228   2.925   8.065 -0.8370  0.0957 -0.0831
  159SAPE  C31417854   6.327   2.846   8.242 -0.5615  0.8924 -0.5644
  159SAPE  H14X17855   6.255   2.774   8.285  0.3685  0.6870  0.6617
  159SAPE  H14Y17856   6.379   2.887   8.331 -0.1739  0.2789 -0.5017
  159SAPE  C31517857   6.425   2.746   8.169  0.0927  0.7955 -0.1496
  159SAPE  H15X17858   6.517   2.799   8.137 -0.8723  1.7550 -1.4000
  159SAPE  H15Y17859   6.368   2.714   8.079 -1.6584 -1.4735  1.7025
  159SAPE  C31617860   6.464   2.619   8.241  0.1856 -0.4596 -0.5413
  159SAPE  H16X17861   6.557   2.590   8.187  0.2780 -1.7419  0.2777
  159SAPE  H16Y17862   6.380   2.549   8.219  1.0556 -1.1228 -1.7663
  159SAPE  C31717863   6.506   2.631   8.387 -0.0983  0.0358 -0.0241
  159SAPE  H17X17864   6.431   2.683   8.451  1.4868 -1.0137  2.7952
  159SAPE  H17Y17865   6.597   2.694   8.389 -0.3028  0.3064  1.7998
  159SAPE  C31817866   6.537   2.498   8.458  0.4411  0.0796 -0.0830
  159SAPE  H18X17867   6.580   2.521   8.557  0.4108 -2.6298  0.5961
  159SAPE  H18Y17868   6.616   2.449   8.397 -1.0952 -0.0772 -2.0118
  159SAPE  H18Z17869   6.448   2.433   8.469 -0.1431  1.3670  3.1691
  160SAPE     N17870   4.773   3.722   6.752 -0.1514 -0.4706  0.0670
  160SAPE   HN117871   4.822   3.748   6.664 -2.2815  0.1848 -0.9725
  160SAPE   HN217872   4.801   3.792   6.824 -3.8259  2.6459 -1.2932
  160SAPE   HN317873   4.810   3.630   6.782 -0.3311 -0.9889 -1.2780
  160SAPE   C1217874   4.622   3.718   6.750 -0.5985 -0.2956 -0.3790
  160SAPE  H12A17875   4.595   3.659   6.839 -1.7416 -0.5208 -0.8667
  160SAPE  H12B17876   4.595   3.670   6.653 -2.6606  1.5110 -0.7504
  160SAPE   C1117877   4.574   3.866   6.751 -0.4914  0.4130 -0.3000
  160SAPE  H11A17878   4.593   3.902   6.854 -1.3511  2.3776 -0.7892
  160SAPE  H11B17879   4.464   3.862   6.735 -0.4385  1.9557 -1.1677
  160SAPE     P17880   4.612   3.982   6.506  0.1487  0.2456  0.1411
  160SAPE   O1317881   4.657   3.869   6.422 -0.7165  0.3190  0.1001
  160SAPE   O1417882   4.471   4.027   6.492 -0.2303 -0.2103 -0.1534
  160SAPE   O1217883   4.643   3.953   6.658 -0.0509  0.8414 -0.3668
  160SAPE   O1117884   4.710   4.101   6.473 -0.0851  0.0962  0.4412
  160SAPE    C117885   4.792   4.175   6.560  0.0465  0.4544 -0.5518
  160SAPE    HA17886   4.857   4.118   6.630 -0.3778  0.2110 -0.3528
  160SAPE    HB17887   4.866   4.229   6.498  4.0411  0.4118  3.9165
  160SAPE    C217888   4.724   4.289   6.641 -0.6249  0.2975  0.2805
  160SAPE    HS17889   4.812   4.347   6.676 -0.3464 -0.0119  0.0907
  160SAPE   O2117890   4.652   4.243   6.753  0.4433 -0.5747 -0.1189
  160SAPE   C2117891   4.722   4.188   6.856  0.0505  0.4321  0.5803
  160SAPE   O2217892   4.844   4.184   6.862  0.6768  0.4194  0.4365
  160SAPE   C2217893   4.623   4.128   6.964 -0.8342 -0.3972  0.2712
  160SAPE   H2R17894   4.533   4.084   6.916 -1.1512 -1.2226  1.6105
  160SAPE   H2S17895   4.677   4.041   7.006  0.7606 -0.6885 -2.2498
  160SAPE    C317896   4.640   4.366   6.542 -0.4095  0.5539 -1.0839
  160SAPE    HX17897   4.562   4.296   6.503 -1.7567  1.7158 -0.5329
  160SAPE    HY17898   4.703   4.402   6.458 -0.2062  0.3603 -1.0156
  160SAPE   O3117899   4.568   4.481   6.598  0.1688  0.0812  0.4659
  160SAPE   C3117900   4.440   4.460   6.650 -0.2634 -0.0595 -0.3175
  160SAPE   O3217901   4.386   4.355   6.666  0.1199  0.3529  0.3940
  160SAPE   C3217902   4.386   4.598   6.688  0.0180 -0.1293 -0.9599
  160SAPE   H2X17903   4.284   4.604   6.645 -0.4160 -0.4235  0.0142
  160SAPE   H2Y17904   4.442   4.673   6.627 -2.3696  1.0203 -1.8031
  160SAPE   C2317905   4.572   4.226   7.071  0.2906 -0.4517  0.0576
  160SAPE   H3R17906   4.547   4.315   7.010 -1.0200 -0.9460 -0.1510
  160SAPE   H3S17907   4.663   4.250   7.130 -0.2965  0.3289  0.6504
  160SAPE   C2417908   4.454   4.182   7.154 -0.5574 -0.9626  0.4551
  160SAPE   H4R17909   4.363   4.157   7.095  0.6171 -1.8767 -0.9951
  160SAPE   H4S17910   4.431   4.270   7.218  1.3669  1.4407 -2.0411
  160SAPE   C2517911   4.493   4.053   7.229 -0.6668  0.2812  0.2550
  160SAPE   H5R17912   4.528   3.972   7.162  0.0780  1.9449 -1.4018
  160SAPE   C2617913   4.471   4.018   7.358 -0.4447 -0.1219  0.3592
  160SAPE   H6R17914   4.509   3.921   7.394  1.2071 -0.3223 -1.8294
  160SAPE   C2717915   4.410   4.114   7.465  0.1465 -0.8243 -0.3451
  160SAPE   H7R17916   4.319   4.065   7.504 -1.2024  0.6744 -1.5568
  160SAPE   H7S17917   4.368   4.206   7.419 -0.6004 -1.2241 -0.4641
  160SAPE   C2817918   4.507   4.166   7.568 -0.7397  0.2551 -1.2504
  160SAPE   H8R17919   4.588   4.228   7.526 -2.1008  1.1995 -2.5249
  160SAPE   C2917920   4.510   4.127   7.695  0.4118  0.0222 -0.4935
  160SAPE   H9R17921   4.591   4.154   7.765 -1.0362 -0.8122  1.5523
  160SAPE  C21017922   4.412   4.032   7.760  0.2151 -0.0873 -0.2479
  160SAPE  H10R17923   4.471   3.957   7.816 -3.6417 -0.1714  3.9093
  160SAPE  H10S17924   4.347   3.976   7.689 -0.6381 -1.7823  1.8325
  160SAPE  C21117925   4.334   4.095   7.865 -0.3139  0.4584  1.0208
  160SAPE  H11R17926   4.249   4.158   7.833 -0.4328  0.0483  0.5201
  160SAPE  C21217927   4.350   4.083   8.003  0.8919 -0.1938 -0.1608
  160SAPE  H12R17928   4.285   4.150   8.062  0.2777  1.4597 -2.6311
  160SAPE  C21317929   4.440   3.992   8.078 -0.7195 -0.2503 -0.0812
  160SAPE  H13R17930   4.451   3.903   8.012  2.2479 -0.4297  0.6082
  160SAPE  H13S17931   4.393   3.954   8.172 -0.2127  0.0832  0.3046
  160SAPE  C21417932   4.575   4.041   8.102  0.3564 -0.2334 -0.3083
  160SAPE  H14R17933   4.641   4.042   8.014  0.9723  2.3771  0.1377
  160SAPE  C21517934   4.613   4.124   8.198 -0.8000 -0.0262 -0.1619
  160SAPE  H15R17935   4.712   4.169   8.179 -0.6916 -0.7357 -1.2999
  160SAPE  C21617936   4.531   4.171   8.319 -0.0753 -0.5340 -0.1012
  160SAPE  H16R17937   4.476   4.091   8.373  0.1634  0.2878  1.3821
  160SAPE  H16S17938   4.455   4.245   8.286 -0.2198  0.2367  1.8580
  160SAPE  C21717939   4.622   4.242   8.424  0.5009  0.2482 -0.2859
  160SAPE  H17R17940   4.659   4.331   8.369  0.9759  0.7822  0.8778
  160SAPE  H17S17941   4.708   4.178   8.452 -0.1440 -0.2529  0.5637
  160SAPE  C21817942   4.558   4.286   8.558  0.0227 -0.3777  0.4198
  160SAPE  H18R17943   4.540   4.200   8.627 -1.8233 -0.3703 -0.0227
  160SAPE  H18S17944   4.462   4.334   8.529  0.0749 -0.7567 -0.4048
  160SAPE  C21917945   4.658   4.374   8.633 -0.3238 -0.3752 -0.0339
  160SAPE  H19R17946   4.692   4.463   8.575 -0.9253  0.1892  0.4560
  160SAPE  H19S17947   4.745   4.322   8.678  0.5702  2.7483  2.0908
  160SAPE  C22017948   4.586   4.441   8.756  0.7048 -0.8197 -0.5601
  160SAPE  H20R17949   4.650   4.525   8.789 -0.5338 -0.6467  1.4569
  160SAPE  H20S17950   4.566   4.372   8.840  0.3509 -0.8769 -0.6908
  160SAPE  H20T17951   4.494   4.487   8.714 -0.5257 -0.8275  2.0445
  160SAPE   C3317952   4.370   4.629   6.838 -0.3568  0.1058 -0.5739
  160SAPE   H3X17953   4.302   4.549   6.875  0.5990 -0.0932  0.7555
  160SAPE   H3Y17954   4.321   4.729   6.845  1.1329  0.7824  0.3270
  160SAPE   C3417955   4.497   4.639   6.927 -0.1698 -0.3509  0.4424
  160SAPE   H4X17956   4.559   4.722   6.886 -0.0193 -0.4793  0.4108
  160SAPE   H4Y17957   4.557   4.548   6.907 -0.5523 -0.5640  0.2663
  160SAPE   C3517958   4.459   4.659   7.068  0.3410 -0.1564  0.1427
  160SAPE   H5X17959   4.386   4.580   7.096 -0.3017  0.7481  1.0032
  160SAPE   H5Y17960   4.409   4.757   7.079  1.9632  0.5907  1.0844
  160SAPE   C3617961   4.571   4.648   7.177 -0.3357 -0.3103  0.1163
  160SAPE   H6X17962   4.661   4.703   7.143  0.2402 -1.4454 -0.2225
  160SAPE   H6Y17963   4.610   4.545   7.188  1.9696  0.6281  1.0275
  160SAPE   C3717964   4.522   4.686   7.317 -0.0927  0.0788  0.1906
  160SAPE   H7X17965   4.425   4.739   7.304  0.2975  1.0454  1.2112
  160SAPE   H7Y17966   4.596   4.748   7.371  0.6732  0.0956 -0.8576
  160SAPE   C3817967   4.492   4.557   7.405  0.4014 -0.3814  0.7530
  160SAPE   H8X17968   4.592   4.512   7.418  1.3562  1.5234  0.2575
  160SAPE   H8Y17969   4.431   4.487   7.345  0.2516  0.3379  0.0496
  160SAPE   C3917970   4.456   4.605   7.548  0.3815 -0.3977  0.0897
  160SAPE   H9X17971   4.354   4.650   7.554  1.0908  1.5836 -1.9072
  160SAPE   H9Y17972   4.522   4.689   7.578  1.0864 -0.9922  0.1990
  160SAPE  C31017973   4.467   4.496   7.658  0.4456 -0.3799 -0.7911
  160SAPE  H10X17974   4.569   4.453   7.663  0.4778 -0.4095 -1.5763
  160SAPE  H10Y17975   4.393   4.417   7.635 -0.2368 -0.2482  0.9030
  160SAPE  C31117976   4.452   4.554   7.801 -0.2686  0.8494  0.0124
  160SAPE  H11X17977   4.347   4.587   7.818 -1.1183 -0.5160 -2.2983
  160SAPE  H11Y17978   4.525   4.637   7.812  0.0068  0.6022  0.0626
  160SAPE  C31217979   4.488   4.448   7.912 -0.4787  0.2918  0.4134
  160SAPE  H12X17980   4.596   4.426   7.897 -0.5788 -0.8518  1.3002
  160SAPE  H12Y17981   4.428   4.356   7.892 -0.0284 -0.0475  0.6133
  160SAPE  C31317982   4.462   4.495   8.052  0.4853  0.4080 -0.5090
  160SAPE  H13X17983   4.487   4.412   8.121  3.0360 -1.2420 -3.2483
  160SAPE  H13Y17984   4.355   4.522   8.062  0.4764  0.2719 -0.2335
  160SAPE  C31417985   4.544   4.614   8.095 -0.1078 -0.1068  0.4367
  160SAPE  H14X17986   4.516   4.706   8.038  1.6420  1.1529  1.5753
  160SAPE  H14Y17987   4.649   4.592   8.065 -0.0871  1.9013 -1.1058
  160SAPE  C31517988   4.548   4.637   8.246  0.5619 -0.2132 -0.5147
  160SAPE  H15X17989   4.599   4.556   8.303 -0.1012 -1.1062 -1.1960
  160SAPE  H15Y17990   4.443   4.630   8.280 -0.0546 -0.1564 -2.4029
  160SAPE  C31617991   4.614   4.770   8.286 -0.0386 -0.2952 -0.2891
  160SAPE  H16X17992   4.560   4.860   8.249  1.5913  0.5500 -0.6582
  160SAPE  H16Y17993   4.716   4.773   8.242 -0.6797 -2.7346 -2.0738
  160SAPE  C31717994   4.638   4.785   8.442  0.4285  0.1778  1.2717
  160SAPE  H17X17995   4.744   4.755   8.457  1.0589  0.0407 -2.8530
  160SAPE  H17Y17996   4.585   4.705   8.498 -3.3434  1.7307  0.0845
  160SAPE  C31817997   4.600   4.926   8.495 -0.4889  0.1252 -0.1260
  160SAPE  H18X17998   4.639   4.954   8.595  0.6509  0.9240 -0.7801
  160SAPE  H18Y17999   4.491   4.946   8.486 -0.7158  0.5052  2.9407
  160SAPE  H18Z18000   4.655   4.992   8.425 -0.1137 -1.9657 -1.8553
  161SAPE     N18001   0.593   2.179   6.301  0.4514  0.1140 -0.5662
  161SAPE   HN118002   0.692   2.197   6.274 -0.1508  2.5730 -1.3450
  161SAPE   HN218003   0.585   2.215   6.398 -2.3585  2.4112 -1.5723
  161SAPE   HN318004   0.559   2.082   6.289 -0.4642  0.5842 -1.9882
  161SAPE   C1218005   0.523   2.270   6.217  0.4452  0.4508 -0.3636
  161SAPE  H12A18006   0.554   2.252   6.111  2.1346  2.0735 -0.1545
  161SAPE  H12B18007   0.546   2.373   6.252 -1.0073 -0.0087  2.0215
  161SAPE   C1118008   0.367   2.249   6.234  0.4380 -0.9494 -0.0114
  161SAPE  H11A18009   0.355   2.146   6.193  2.7996 -1.4241  0.4121
  161SAPE  H11B18010   0.314   2.329   6.178 -0.6705 -1.2150  0.6531
  161SAPE     P18011   0.187   2.209   6.417  0.2048  0.2548  0.0448
  161SAPE   O1318012   0.083   2.312   6.386 -0.2071  0.7772  0.6453
  161SAPE   O1418013   0.166   2.080   6.360 -0.8981  0.0621 -0.2821
  161SAPE   O1218014   0.325   2.263   6.369 -0.3962 -0.1533  0.2274
  161SAPE   O1118015   0.221   2.190   6.575  0.4619 -0.5632 -0.2555
  161SAPE    C118016   0.304   2.090   6.626 -0.5294 -0.2005  0.3937
  161SAPE    HA18017   0.253   1.994   6.605  2.0216 -1.0621 -2.0840
  161SAPE    HB18018   0.405   2.096   6.580 -0.8620  0.5642 -0.2506
  161SAPE    C218019   0.327   2.102   6.786  0.6317  0.6468  0.3113
  161SAPE    HS18020   0.413   2.041   6.821  1.2245  1.1129 -0.3077
  161SAPE   O2118021   0.208   2.050   6.847 -0.2635  0.1059  0.2321
  161SAPE   C2118022   0.190   1.917   6.850 -0.2387  0.1383  0.2026
  161SAPE   O2218023   0.271   1.829   6.821  0.2969 -0.5632 -0.2583
  161SAPE   C2218024   0.064   1.897   6.934 -0.2994 -0.1006 -0.0686
  161SAPE   H2R18025   0.009   1.993   6.943 -1.1494 -0.5759 -0.1285
  161SAPE   H2S18026   0.001   1.825   6.877  0.5961 -1.0841  0.1658
  161SAPE    C318027   0.364   2.247   6.821  0.2987 -0.3683  0.2353
  161SAPE    HX18028   0.275   2.309   6.796 -0.9467 -1.2911  2.2243
  161SAPE    HY18029   0.449   2.280   6.758 -0.9677  2.2314 -0.1927
  161SAPE   O3118030   0.394   2.244   6.963 -0.1668  0.4789 -0.3707
  161SAPE   C3118031   0.435   2.360   7.006  0.0376 -0.8984  0.0257
  161SAPE   O3218032   0.444   2.466   6.943  0.2098  0.0910  0.2286
  161SAPE   C3218033   0.474   2.348   7.152  0.3293 -0.6204  0.1002
  161SAPE   H2X18034   0.564   2.284   7.157  2.0428  1.6852 -0.1884
  161SAPE   H2Y18035   0.392   2.295   7.204 -1.7928 -0.2048 -2.6810
  161SAPE   C2318036   0.092   1.837   7.076  0.3739 -0.0417  0.8077
  161SAPE   H3R18037   0.171   1.762   7.054  2.3253  2.0214  0.5696
  161SAPE   H3S18038   0.002   1.790   7.120  1.8583 -2.7084  1.1682
  161SAPE   C2418039   0.150   1.948   7.167 -0.7992 -0.0062 -0.3592
  161SAPE   H4R18040   0.230   2.004   7.114  1.4868 -2.1349  0.7638
  161SAPE   H4S18041   0.215   1.906   7.246  0.6387  2.0027 -0.4356
  161SAPE   C2518042   0.035   2.034   7.221 -0.3945  0.7282  0.2724
  161SAPE   H5R18043  -0.023   2.082   7.141 -2.7793 -1.6204  0.5433
  161SAPE   C2618044  -0.016   2.035   7.343  0.1686 -0.0408 -0.2013
  161SAPE   H6R18045  -0.102   2.102   7.358 -1.5642 -2.4828  1.1497
  161SAPE   C2718046   0.014   1.963   7.468 -0.0306  0.2633  0.4645
  161SAPE   H7R18047   0.111   2.007   7.500  0.1617  1.0738 -1.1525
  161SAPE   H7S18048   0.032   1.855   7.448 -1.8342  0.2043 -1.0155
  161SAPE   C2818049  -0.086   1.966   7.581 -0.3041  0.0352 -0.0440
  161SAPE   H8R18050  -0.193   1.957   7.559 -0.3461  0.2568  0.0792
  161SAPE   C2918051  -0.058   1.970   7.707 -1.4599 -0.0778  0.5828
  161SAPE   H9R18052  -0.143   1.979   7.776 -1.1038 -0.5732  1.0892
  161SAPE  C21018053   0.078   1.984   7.770  0.1391  0.0358  0.2827
  161SAPE  H10R18054   0.144   1.944   7.690 -1.1022 -0.3386 -0.5715
  161SAPE  H10S18055   0.092   1.926   7.864  0.8176 -0.5700 -0.1908
  161SAPE  C21118056   0.114   2.130   7.795  0.2705  0.0632 -0.1984
  161SAPE  H11R18057   0.094   2.202   7.714 -2.0968 -0.8731 -0.4738
  161SAPE  C21218058   0.165   2.188   7.903  0.1527 -0.7103  0.3981
  161SAPE  H12R18059   0.191   2.295   7.898  0.4472 -0.7120  1.8614
  161SAPE  C21318060   0.194   2.127   8.033 -0.1711  0.3070 -0.1109
  161SAPE  H13R18061   0.157   2.022   8.035  1.3220 -0.2218  3.6223
  161SAPE  H13S18062   0.137   2.180   8.112 -0.3648  0.8698 -0.6308
  161SAPE  C21418063   0.341   2.135   8.056  0.3867 -0.1122  0.8137
  161SAPE  H14R18064   0.396   2.088   7.974 -0.0269 -0.5881  0.8064
  161SAPE  C21518065   0.401   2.199   8.156  0.1119  0.6854 -0.1635
  161SAPE  H15R18066   0.511   2.195   8.160  0.0543 -1.2481  0.1509
  161SAPE  C21618067   0.329   2.256   8.272  0.3041 -0.4568 -0.2521
  161SAPE  H16R18068   0.227   2.297   8.254  0.7066  1.1015  0.8912
  161SAPE  H16S18069   0.394   2.336   8.314 -0.1836  0.7091 -1.6633
  161SAPE  C21718070   0.306   2.153   8.383 -0.0089  0.0148  0.2924
  161SAPE  H17R18071   0.399   2.103   8.418  1.9532  2.8430 -0.6108
  161SAPE  H17S18072   0.244   2.067   8.352 -0.1828  0.4744 -0.6691
  161SAPE  C21818073   0.235   2.207   8.509 -0.0281  0.2259 -0.4634
  161SAPE  H18R18074   0.300   2.291   8.542 -1.5777  0.4952  1.9718
  161SAPE  H18S18075   0.228   2.122   8.580  1.4021 -1.5083 -2.3301
  161SAPE  C21918076   0.096   2.256   8.491 -0.4481 -0.6435  0.6113
  161SAPE  H19R18077   0.032   2.178   8.444 -0.1401 -0.2249 -0.5114
  161SAPE  H19S18078   0.107   2.346   8.427  3.2204 -1.5501 -0.1317
  161SAPE  C22018079   0.033   2.303   8.622  0.5155 -0.2000  0.2101
  161SAPE  H20R18080   0.090   2.391   8.657 -0.8007  0.4210  0.8183
  161SAPE  H20S18081   0.043   2.222   8.697 -2.5246 -2.6626 -1.8930
  161SAPE  H20T18082  -0.074   2.322   8.602  0.8268  1.0644 -0.3179
  161SAPE   C3318083   0.508   2.481   7.228 -0.0901 -0.4114 -0.2921
  161SAPE   H3X18084   0.422   2.551   7.225 -1.2214 -1.7501  0.0694
  161SAPE   H3Y18085   0.596   2.519   7.172  0.1445 -3.4899 -2.2056
  161SAPE   C3418086   0.562   2.454   7.370  0.5852 -0.8302  0.4864
  161SAPE   H4X18087   0.489   2.391   7.425 -0.6468 -2.2010 -2.6544
  161SAPE   H4Y18088   0.573   2.555   7.415 -1.8867  0.3087 -1.3396
  161SAPE   C3518089   0.699   2.385   7.379 -0.2583 -0.0673 -0.0993
  161SAPE   H5X18090   0.767   2.453   7.324  0.6313 -0.3212  0.6727
  161SAPE   H5Y18091   0.698   2.285   7.330  2.5935  0.5586 -1.5490
  161SAPE   C3618092   0.746   2.372   7.522 -0.4436  1.0628  0.0829
  161SAPE   H6X18093   0.668   2.311   7.573 -2.0418  2.4934 -0.6020
  161SAPE   H6Y18094   0.753   2.472   7.571  2.6203  1.8106 -1.7542
  161SAPE   C3718095   0.878   2.297   7.529  0.7387 -0.0695  0.1335
  161SAPE   H7X18096   0.934   2.353   7.451  0.3229  0.7516  0.4169
  161SAPE   H7Y18097   0.854   2.190   7.510  0.0043  0.1966 -0.4391
  161SAPE   C3818098   0.959   2.307   7.666  0.2120  0.2909 -0.0235
  161SAPE   H8X18099   0.960   2.414   7.698  0.0190  0.1835  0.3581
  161SAPE   H8Y18100   1.063   2.268   7.661  0.1366  0.3127 -1.9253
  161SAPE   C3918101   0.886   2.230   7.781  0.3482 -0.5610  0.6212
  161SAPE   H9X18102   0.893   2.123   7.749 -4.1454 -0.7465 -0.0359
  161SAPE   H9Y18103   0.785   2.274   7.794 -0.5673 -2.8002  1.3871
  161SAPE  C31018104   0.958   2.248   7.914  0.6982  0.3653 -0.4603
  161SAPE  H10X18105   0.937   2.352   7.948 -0.9458 -0.2915  0.5760
  161SAPE  H10Y18106   1.067   2.240   7.895  0.8165  2.3962 -0.7627
  161SAPE  C31118107   0.910   2.159   8.036 -0.0748 -0.2044  0.3901
  161SAPE  H11X18108   0.922   2.052   8.011  3.0659  0.3882 -0.7990
  161SAPE  H11Y18109   0.801   2.183   8.043  0.1316  0.9768 -0.2571
  161SAPE  C31218110   0.967   2.202   8.164  0.6472  0.3124 -0.7005
  161SAPE  H12X18111   0.937   2.306   8.190  0.9782  0.7506 -2.0408
  161SAPE  H12Y18112   1.078   2.191   8.163  0.5603 -0.5630 -1.3701
  161SAPE  C31318113   0.930   2.116   8.282 -1.1458 -1.1060  0.0884
  161SAPE  H13X18114   0.975   2.015   8.272  0.8912 -0.3844  1.5929
  161SAPE  H13Y18115   0.820   2.103   8.292 -0.8246 -3.1626  1.1485
  161SAPE  C31418116   0.975   2.187   8.415 -0.0367 -0.3272 -0.0772
  161SAPE  H14X18117   0.917   2.149   8.502 -0.5255 -0.7459 -0.5799
  161SAPE  H14Y18118   0.949   2.293   8.393 -2.0629 -0.6671  0.5059
  161SAPE  C31518119   1.118   2.159   8.457  0.0155  0.7250 -0.1058
  161SAPE  H15X18120   1.181   2.202   8.376 -0.5671 -0.1350 -1.0242
  161SAPE  H15Y18121   1.120   2.049   8.471  2.5212  0.7541 -0.0513
  161SAPE  C31618122   1.149   2.211   8.601 -0.5681 -0.7200 -0.2428
  161SAPE  H16X18123   1.049   2.217   8.648  0.1707 -2.6941  1.6541
  161SAPE  H16Y18124   1.198   2.311   8.594  0.7145 -1.0700  2.9637
  161SAPE  C31718125   1.246   2.120   8.685  1.0939  0.0858  0.3476
  161SAPE  H17X18126   1.349   2.114   8.644  1.6100  1.9211  1.3106
  161SAPE  H17Y18127   1.207   2.017   8.676 -0.1234  0.7698 -2.7313
  161SAPE  C31818128   1.244   2.156   8.834 -0.1128 -0.0200  0.6320
  161SAPE  H18X18129   1.294   2.256   8.838 -0.8227  0.2804  2.1374
  161SAPE  H18Y18130   1.321   2.094   8.885  2.2687 -0.1383 -2.9001
  161SAPE  H18Z18131   1.138   2.155   8.865 -0.5898  1.3302 -0.8502
  162SAPE     N18132   5.796   4.813   6.146  0.0637  0.4138  0.3131
  162SAPE   HN118133   5.744   4.724   6.133  0.5443  0.3094 -0.9796
  162SAPE   HN218134   5.792   4.879   6.065 -1.5601  0.3027  0.2806
  162SAPE   HN318135   5.896   4.793   6.162 -0.0790  0.5559  1.4166
  162SAPE   C1218136   5.728   4.864   6.273 -0.6385 -0.2039 -0.7600
  162SAPE  H12A18137   5.814   4.906   6.329 -0.2489  1.2819 -2.3935
  162SAPE  H12B18138   5.683   4.783   6.334 -1.1679  1.0796  0.5655
  162SAPE   C1118139   5.612   4.966   6.246 -1.2457  0.1356  0.3361
  162SAPE  H11A18140   5.598   5.028   6.337 -0.6326  1.6864 -0.6119
  162SAPE  H11B18141   5.535   4.893   6.215  1.3389 -1.7231 -2.0720
  162SAPE     P18142   5.534   5.146   6.081  0.1402 -0.2157  0.3628
  162SAPE   O1318143   5.602   5.251   6.005  0.5963 -0.0752  0.3179
  162SAPE   O1418144   5.438   5.065   6.004  0.0643  0.0655  0.4519
  162SAPE   O1218145   5.636   5.048   6.140 -0.4536 -0.2227  0.4047
  162SAPE   O1118146   5.464   5.198   6.211  0.2938  0.2514 -0.2960
  162SAPE    C118147   5.483   5.334   6.247  0.2197  0.3735  0.0970
  162SAPE    HA18148   5.586   5.347   6.284  0.6624 -0.0324 -0.9629
  162SAPE    HB18149   5.472   5.408   6.165 -1.2784  1.6155  1.3808
  162SAPE    C218150   5.367   5.375   6.349  0.3055  0.1121 -0.4428
  162SAPE    HS18151   5.358   5.479   6.386 -0.3330  0.0730 -0.4788
  162SAPE   O2118152   5.377   5.281   6.455  0.2683 -0.0159 -0.0038
  162SAPE   C2118153   5.470   5.313   6.547 -0.3592  0.0444 -0.5206
  162SAPE   O2218154   5.562   5.396   6.536  0.2373 -0.4750 -0.0624
  162SAPE   C2218155   5.441   5.223   6.670  0.3648  0.2594 -0.0163
  162SAPE   H2R18156   5.334   5.193   6.671  0.1384  0.7603 -3.4954
  162SAPE   H2S18157   5.502   5.130   6.662 -1.1616 -0.7648  0.1654
  162SAPE    C318158   5.228   5.363   6.283 -0.5122 -0.2366  0.4719
  162SAPE    HX18159   5.227   5.264   6.234 -0.5800  0.7479 -1.5497
  162SAPE    HY18160   5.224   5.436   6.200 -0.2088  0.5648  1.1466
  162SAPE   O3118161   5.122   5.382   6.384 -0.0684 -0.3455 -0.1468
  162SAPE   C3118162   5.021   5.297   6.362  0.3775  0.4953 -0.9046
  162SAPE   O3218163   5.024   5.207   6.279 -0.0739  0.3926 -0.0381
  162SAPE   C3218164   4.910   5.319   6.459 -0.1253  0.6180  0.0500
  162SAPE   H2X18165   4.810   5.291   6.418  0.1845 -1.5201  0.7359
  162SAPE   H2Y18166   4.906   5.426   6.490 -1.3938  0.9344 -1.1182
  162SAPE   C2318167   5.485   5.297   6.803  0.2916 -0.2184 -0.5244
  162SAPE   H3R18168   5.440   5.245   6.890  0.4697  1.6405  0.7012
  162SAPE   H3S18169   5.458   5.404   6.814 -1.4790 -0.7428  0.3267
  162SAPE   C2418170   5.641   5.299   6.832  0.0874  0.2267 -0.0270
  162SAPE   H4R18171   5.663   5.383   6.901  1.0641  0.7351 -0.9426
  162SAPE   H4S18172   5.690   5.330   6.737  0.6661  0.7361  0.4341
  162SAPE   C2518173   5.698   5.166   6.877 -0.2834 -0.0422 -0.7539
  162SAPE   H5R18174   5.699   5.100   6.789  0.8266 -0.3631 -0.5075
  162SAPE   C2618175   5.748   5.131   6.991 -0.2540 -0.6090  0.1375
  162SAPE   H6R18176   5.774   5.024   6.998  2.4806 -0.1805 -2.3081
  162SAPE   C2718177   5.757   5.220   7.111  0.6186 -0.0142 -0.2243
  162SAPE   H7R18178   5.708   5.319   7.101  1.1991  0.2829 -0.1080
  162SAPE   H7S18179   5.865   5.236   7.128  0.1527  2.3773  0.6965
  162SAPE   C2818180   5.682   5.160   7.230 -0.8071 -0.3828 -0.6020
  162SAPE   H8R18181   5.636   5.066   7.197  1.7416 -1.3468 -1.5388
  162SAPE   C2918182   5.673   5.212   7.351  0.1067  0.5806  0.3553
  162SAPE   H9R18183   5.612   5.157   7.425  0.9913 -0.7131  0.1426
  162SAPE  C21018184   5.734   5.342   7.399  0.0703 -0.0737  0.5798
  162SAPE  H10R18185   5.651   5.392   7.454 -0.1956  0.8658 -0.6490
  162SAPE  H10S18186   5.755   5.416   7.319  1.3564 -0.2235  0.7692
  162SAPE  C21118187   5.859   5.319   7.475 -0.4879  0.6497 -0.2708
  162SAPE  H11R18188   5.942   5.269   7.423 -2.1786 -0.5363 -1.8722
  162SAPE  C21218189   5.891   5.348   7.599 -0.9474 -0.3273 -0.0792
  162SAPE  H12R18190   5.993   5.325   7.633 -1.5004  1.3395  3.0088
  162SAPE  C21318191   5.792   5.435   7.693  0.5478 -0.5578  0.1508
  162SAPE  H13R18192   5.735   5.506   7.629  0.1138 -1.2868 -0.2777
  162SAPE  H13S18193   5.851   5.506   7.755 -0.4077 -0.2094  0.6644
  162SAPE  C21418194   5.687   5.362   7.765  0.5382  0.3226 -0.3615
  162SAPE  H14R18195   5.655   5.285   7.693 -2.3781 -0.2157  1.4205
  162SAPE  C21518196   5.633   5.373   7.891 -0.3549  0.2904 -0.0258
  162SAPE  H15R18197   5.568   5.292   7.926  1.1094 -0.2487  1.5523
  162SAPE  C21618198   5.684   5.452   8.008  0.5104  0.2086  0.1397
  162SAPE  H16R18199   5.771   5.510   7.969  0.4295  1.0430  1.1703
  162SAPE  H16S18200   5.726   5.379   8.080  0.9222  0.9559  0.6667
  162SAPE  C21718201   5.595   5.566   8.073 -0.0413  0.8377 -0.4667
  162SAPE  H17R18202   5.521   5.528   8.147  0.5327  0.1519 -0.2300
  162SAPE  H17S18203   5.534   5.624   8.001 -0.7210  0.5767 -0.0991
  162SAPE  C21818204   5.684   5.666   8.137  0.3893 -0.1365 -0.7401
  162SAPE  H18R18205   5.758   5.714   8.070  2.0159 -0.9214  0.4566
  162SAPE  H18S18206   5.753   5.623   8.213  0.7503  0.4417 -0.7414
  162SAPE  C21918207   5.591   5.777   8.203  0.6220  0.2734 -0.9726
  162SAPE  H19R18208   5.522   5.815   8.124 -0.6510  0.7737  0.3632
  162SAPE  H19S18209   5.654   5.862   8.235  0.0837  0.4179 -0.2831
  162SAPE  C22018210   5.504   5.734   8.320 -0.0124  0.6245 -0.4767
  162SAPE  H20R18211   5.483   5.805   8.403  0.3790 -1.2688  1.2866
  162SAPE  H20S18212   5.563   5.658   8.374 -0.9313 -0.3796 -0.8627
  162SAPE  H20T18213   5.405   5.698   8.284 -1.2778  0.0914  3.3351
  162SAPE   C3318214   4.928   5.218   6.575  0.3366  0.0462 -0.2046
  162SAPE   H3X18215   4.952   5.114   6.545  3.2126  0.4596  0.5047
  162SAPE   H3Y18216   4.830   5.210   6.627 -1.8670 -1.6197 -4.3784
  162SAPE   C3418217   5.018   5.280   6.686 -0.2651 -0.3827  0.0311
  162SAPE   H4X18218   4.969   5.376   6.714 -2.2500 -0.7740 -1.9280
  162SAPE   H4Y18219   5.119   5.316   6.657 -1.4094  0.1058 -3.7614
  162SAPE   C3518220   5.029   5.185   6.816  0.3534 -0.4391  0.6275
  162SAPE   H5X18221   5.119   5.123   6.798  0.6518 -0.1760  1.2093
  162SAPE   H5Y18222   4.943   5.114   6.820  0.1935 -0.3507 -1.1711
  162SAPE   C3618223   5.037   5.269   6.944 -0.3812 -0.0839  1.5430
  162SAPE   H6X18224   4.939   5.319   6.958 -0.5429  1.5001 -4.0916
  162SAPE   H6Y18225   5.122   5.340   6.939  2.3745 -3.3724 -0.7597
  162SAPE   C3718226   5.055   5.183   7.072  0.0492  0.0083 -0.1477
  162SAPE   H7X18227   5.130   5.108   7.038  1.4536  0.1367  2.5306
  162SAPE   H7Y18228   4.967   5.120   7.097  0.8702 -0.6432  1.1500
  162SAPE   C3818229   5.108   5.269   7.191  0.0954  0.1254 -0.4209
  162SAPE   H8X18230   5.037   5.350   7.219 -0.4327 -1.1423  2.0348
  162SAPE   H8Y18231   5.209   5.314   7.178 -0.3138  1.9237  2.1778
  162SAPE   C3918232   5.118   5.183   7.323 -0.1344 -0.9100 -0.4403
  162SAPE   H9X18233   5.204   5.119   7.296  1.4864  1.6063 -1.4861
  162SAPE   H9Y18234   5.029   5.117   7.334 -0.3544 -0.7550 -1.2617
  162SAPE  C31018235   5.167   5.254   7.449 -0.3044  0.2654  0.7369
  162SAPE  H10X18236   5.085   5.322   7.483 -0.2857  2.0523 -2.5965
  162SAPE  H10Y18237   5.252   5.314   7.411  0.2098 -0.9315 -0.0136
  162SAPE  C31118238   5.199   5.160   7.565  0.2247  0.7815  0.1565
  162SAPE  H11X18239   5.294   5.103   7.552 -0.3525 -0.4874  1.3958
  162SAPE  H11Y18240   5.114   5.093   7.587  1.1679 -0.6386 -0.4636
  162SAPE  C31218241   5.221   5.234   7.704  0.5035 -0.2947  0.6714
  162SAPE  H12X18242   5.124   5.248   7.755  0.6106  1.6072  0.3908
  162SAPE  H12Y18243   5.281   5.327   7.692 -0.3815  0.2589  0.5582
  162SAPE  C31318244   5.306   5.144   7.789 -0.2377 -0.3331 -0.5084
  162SAPE  H13X18245   5.412   5.133   7.757  0.8519  0.1053  2.7201
  162SAPE  H13Y18246   5.252   5.048   7.801 -2.0332  0.8009  0.7372
  162SAPE  C31418247   5.319   5.193   7.936  0.4184  0.0337 -0.2302
  162SAPE  H14X18248   5.213   5.187   7.967  0.9863  1.3737  2.0944
  162SAPE  H14Y18249   5.345   5.300   7.946 -1.6715  0.8799 -3.2804
  162SAPE  C31518250   5.398   5.099   8.027 -0.6048  0.4715  0.2137
  162SAPE  H15X18251   5.504   5.125   8.005 -0.7663  0.8033 -0.1902
  162SAPE  H15Y18252   5.375   4.994   7.996 -0.4517  0.7477 -0.8659
  162SAPE  C31618253   5.367   5.120   8.172 -0.3033  0.1860 -0.8503
  162SAPE  H16X18254   5.256   5.108   8.175 -0.4584  1.8404  2.0389
  162SAPE  H16Y18255   5.396   5.223   8.204  1.1594 -0.8757  1.2879
  162SAPE  C31718256   5.429   5.021   8.277 -0.5074 -0.1898 -0.7811
  162SAPE  H17X18257   5.538   5.020   8.254 -0.7961 -1.5348 -2.1802
  162SAPE  H17Y18258   5.390   4.918   8.266 -1.3280 -0.0940  1.0569
  162SAPE  C31818259   5.405   5.061   8.425  0.5847 -0.1242  0.5221
  162SAPE  H18X18260   5.486   5.034   8.497  0.9256  1.2323  0.6641
  162SAPE  H18Y18261   5.323   4.991   8.451 -0.7917  1.8159  1.4382
  162SAPE  H18Z18262   5.384   5.169   8.434  0.5836 -0.2066  1.5751
  163SAPE     N18263   4.245   3.264   6.501  0.3756 -0.1273  0.4900
  163SAPE   HN118264   4.229   3.319   6.587 -0.4736 -1.8877  1.4825
  163SAPE   HN218265   4.205   3.317   6.420 -0.7140 -0.0169  1.0869
  163SAPE   HN318266   4.197   3.172   6.496  1.5410 -0.6582 -1.6821
  163SAPE   C1218267   4.389   3.250   6.480 -0.2974 -0.1353 -1.0538
  163SAPE  H12A18268   4.417   3.226   6.375  1.0579  1.3648 -1.0604
  163SAPE  H12B18269   4.424   3.178   6.557 -1.4287  1.1954  0.7143
  163SAPE   C1118270   4.461   3.376   6.515 -0.3314  0.0174  0.0898
  163SAPE  H11A18271   4.438   3.450   6.436  2.3061 -0.7859 -1.4986
  163SAPE  H11B18272   4.572   3.365   6.515 -0.2191  1.0838 -1.1540
  163SAPE     P18273   4.462   3.364   6.779 -0.0107  0.0832 -0.1389
  163SAPE   O1318274   4.367   3.253   6.795 -0.4934 -0.1820 -0.1856
  163SAPE   O1418275   4.605   3.338   6.778  0.1277  0.3885 -0.3633
  163SAPE   O1218276   4.422   3.439   6.641  0.3417 -0.2426 -0.0386
  163SAPE   O1118277   4.438   3.464   6.897 -0.0403 -0.0949  0.5461
  163SAPE    C118278   4.321   3.550   6.909  0.1728  0.0459  0.6208
  163SAPE    HA18279   4.352   3.657   6.919  0.6672 -0.2482  2.4800
  163SAPE    HB18280   4.255   3.533   6.821  2.3335 -0.4358 -0.9600
  163SAPE    C218281   4.250   3.509   7.039  0.2926  0.1329  0.4713
  163SAPE    HS18282   4.186   3.591   7.078  2.1275  0.7773  2.1996
  163SAPE   O2118283   4.340   3.476   7.152 -0.3241  0.0751  1.0510
  163SAPE   C2118284   4.427   3.571   7.173 -0.2931 -0.7885 -0.2153
  163SAPE   O2218285   4.418   3.688   7.135 -0.4853 -0.4088  0.2583
  163SAPE   C2218286   4.540   3.507   7.243  0.1644 -0.2211  0.0704
  163SAPE   H2R18287   4.556   3.580   7.326  1.5340  0.1736 -0.5211
  163SAPE   H2S18288   4.509   3.407   7.280  2.1313 -0.7893  0.2201
  163SAPE    C318289   4.156   3.386   7.016 -0.1803 -0.4861 -0.1569
  163SAPE    HX18290   4.229   3.306   6.992 -0.0776 -0.2279 -0.7295
  163SAPE    HY18291   4.089   3.406   6.929  0.7274 -2.2794 -1.3032
  163SAPE   O3118292   4.079   3.348   7.129 -0.1579  0.3385 -0.1711
  163SAPE   C3118293   4.038   3.225   7.112  0.2308  0.0176 -0.6959
  163SAPE   O3218294   4.053   3.151   7.016 -0.2114  0.0697  0.4484
  163SAPE   C3218295   3.958   3.183   7.234  0.2298  0.1389 -0.0959
  163SAPE   H2X18296   3.924   3.078   7.221  2.6860 -0.3663 -3.0352
  163SAPE   H2Y18297   3.869   3.248   7.225 -0.0835 -0.3090 -0.2496
  163SAPE   C2318298   4.661   3.492   7.151  0.1440 -0.5726  0.3732
  163SAPE   H3R18299   4.694   3.593   7.121 -1.6400 -0.2367 -0.5217
  163SAPE   H3S18300   4.646   3.433   7.057  2.4685 -0.0703 -0.3481
  163SAPE   C2418301   4.764   3.402   7.227 -0.2022 -0.4480 -0.7796
  163SAPE   H4R18302   4.845   3.373   7.158  0.0511 -0.7122 -0.3663
  163SAPE   H4S18303   4.706   3.309   7.247 -1.4275  0.5170  0.3366
  163SAPE   C2518304   4.834   3.462   7.350  0.5995 -0.0158  0.4994
  163SAPE   H5R18305   4.913   3.532   7.319  0.2057  0.3278  0.2642
  163SAPE   C2618306   4.819   3.422   7.479  0.0595  0.5076  0.6762
  163SAPE   H6R18307   4.874   3.473   7.560 -0.2501  2.8792 -0.5733
  163SAPE   C2718308   4.721   3.320   7.529 -0.1904  0.0338 -0.6432
  163SAPE   H7R18309   4.753   3.214   7.533 -0.5486 -0.0254  3.2265
  163SAPE   H7S18310   4.636   3.308   7.459 -1.6365 -0.9425  1.2196
  163SAPE   C2818311   4.654   3.349   7.665 -0.8728 -0.3945 -0.0539
  163SAPE   H8R18312   4.554   3.394   7.666  0.2140  2.0936 -1.1520
  163SAPE   C2918313   4.715   3.311   7.773 -0.2657  0.3737  0.0489
  163SAPE   H9R18314   4.671   3.343   7.869  2.3022  0.8037  1.1129
  163SAPE  C21018315   4.842   3.243   7.802  0.0317 -0.7173 -0.7301
  163SAPE  H10R18316   4.887   3.199   7.710  2.9100 -0.4769  0.5186
  163SAPE  H10S18317   4.817   3.153   7.862 -0.2491 -0.0409  0.1734
  163SAPE  C21118318   4.943   3.321   7.882  0.0016  0.1554  0.6441
  163SAPE  H11R18319   5.004   3.395   7.829  0.5830 -1.0054 -0.3270
  163SAPE  C21218320   4.953   3.325   8.014  0.3253 -0.4139 -0.3140
  163SAPE  H12R18321   5.022   3.401   8.054  0.6038 -0.3046 -0.9833
  163SAPE  C21318322   4.862   3.245   8.109 -0.3376  0.1357  0.3026
  163SAPE  H13R18323   4.931   3.163   8.137  1.3065  2.0909  2.1583
  163SAPE  H13S18324   4.771   3.194   8.070 -1.0816  0.9686  0.9509
  163SAPE  C21418325   4.822   3.326   8.227 -0.0559  0.2501 -0.2044
  163SAPE  H14R18326   4.815   3.435   8.210 -0.5021  0.2200 -0.2220
  163SAPE  C21518327   4.800   3.285   8.351  0.0434 -0.1819 -0.0606
  163SAPE  H15R18328   4.795   3.360   8.432  1.1281  0.7742 -0.8602
  163SAPE  C21618329   4.803   3.143   8.385 -0.4051 -0.2883  0.0520
  163SAPE  H16R18330   4.891   3.117   8.449  0.8294 -0.7037 -1.7776
  163SAPE  H16S18331   4.798   3.090   8.288 -2.3314 -0.9703  0.4966
  163SAPE  C21718332   4.667   3.103   8.455  0.3744  0.0581  0.2795
  163SAPE  H17R18333   4.662   2.992   8.458 -1.8105  0.0490 -2.2423
  163SAPE  H17S18334   4.582   3.133   8.391  2.0518  2.1782 -1.0455
  163SAPE  C21818335   4.641   3.153   8.597 -0.3524 -0.0023  0.3039
  163SAPE  H18R18336   4.613   3.260   8.591 -0.9249 -0.2017 -0.7214
  163SAPE  H18S18337   4.737   3.153   8.654  1.2427  0.8252 -2.2944
  163SAPE  C21918338   4.522   3.084   8.663 -0.5654  0.1539 -0.2933
  163SAPE  H19R18339   4.509   2.984   8.618 -2.4737 -0.7495  2.1681
  163SAPE  H19S18340   4.439   3.145   8.621  0.9130  2.0048 -0.6144
  163SAPE  C22018341   4.532   3.068   8.813  0.5169  1.0744  0.3707
  163SAPE  H20R18342   4.518   3.164   8.868 -1.3169  0.8445  0.3288
  163SAPE  H20S18343   4.617   2.999   8.829 -0.1289 -0.0860 -1.0879
  163SAPE  H20T18344   4.443   3.009   8.845  1.4329  0.0831  1.1349
  163SAPE   C3318345   4.042   3.209   7.363 -0.6836  0.1929  0.1213
  163SAPE   H3X18346   4.072   3.316   7.364 -1.1420  0.3504 -1.3093
  163SAPE   H3Y18347   4.137   3.154   7.376 -1.2596 -0.6323  0.9357
  163SAPE   C3418348   3.950   3.182   7.483 -0.2694 -0.1918  0.5745
  163SAPE   H4X18349   3.918   3.076   7.474 -0.0898 -0.1299 -0.8636
  163SAPE   H4Y18350   3.871   3.259   7.490  0.0297  0.0840  0.9078
  163SAPE   C3518351   4.031   3.204   7.609  0.2803  0.2144  0.1309
  163SAPE   H5X18352   4.066   3.309   7.620  0.3878  0.4079 -1.9119
  163SAPE   H5Y18353   4.120   3.137   7.608  0.8330  0.9616 -0.7534
  163SAPE   C3618354   3.961   3.163   7.743 -0.4939  0.2310 -0.1808
  163SAPE   H6X18355   3.918   3.063   7.722  1.2179 -0.7766  0.9805
  163SAPE   H6Y18356   3.878   3.234   7.768  1.2078  0.9628  3.8989
  163SAPE   C3718357   4.055   3.144   7.860 -0.5279 -0.2366  0.3305
  163SAPE   H7X18358   4.100   3.236   7.901  2.4832 -1.2174 -0.6277
  163SAPE   H7Y18359   4.143   3.090   7.819 -1.6020 -0.9220 -1.1379
  163SAPE   C3818360   3.981   3.072   7.980  0.5593  0.6033 -0.2651
  163SAPE   H8X18361   3.930   2.989   7.927 -0.8326  0.6053  1.0489
  163SAPE   H8Y18362   3.903   3.139   8.021 -2.2857 -1.0667 -2.8133
  163SAPE   C3918363   4.079   3.031   8.085 -0.3776  0.7126  0.3668
  163SAPE   H9X18364   4.132   3.122   8.122 -0.1940  0.6883  0.1663
  163SAPE   H9Y18365   4.155   2.967   8.034  0.2174  1.6330  0.0852
  163SAPE  C31018366   4.021   2.945   8.206  0.1601 -0.0011  0.6493
  163SAPE  H10X18367   3.959   2.863   8.165 -1.3427  1.2905  0.2582
  163SAPE  H10Y18368   3.946   3.006   8.260 -0.2750  0.8875 -0.9228
  163SAPE  C31118369   4.128   2.892   8.295 -0.4190 -0.3968 -0.0510
  163SAPE  H11X18370   4.211   2.966   8.303  1.0806 -2.0564  0.0106
  163SAPE  H11Y18371   4.169   2.800   8.249 -0.3143 -1.6396  2.4354
  163SAPE  C31218372   4.066   2.840   8.420  0.6649  0.1800 -0.3480
  163SAPE  H12X18373   3.978   2.776   8.399 -0.1835  1.6440 -1.2547
  163SAPE  H12Y18374   4.033   2.924   8.484 -0.3336  0.5638 -1.3604
  163SAPE  C31318375   4.151   2.741   8.515 -0.2184 -0.2201 -0.3429
  163SAPE  H13X18376   4.145   2.641   8.468 -0.0142  0.0096 -0.8563
  163SAPE  H13Y18377   4.094   2.739   8.611  0.4375  0.2621  0.0566
  163SAPE  C31418378   4.296   2.774   8.528 -0.5934  0.8353 -0.5646
  163SAPE  H14X18379   4.326   2.853   8.600  0.8494 -2.2837  2.3637
  163SAPE  H14Y18380   4.332   2.798   8.425 -0.3054 -1.0816 -0.9383
  163SAPE  C31518381   4.369   2.657   8.589  0.0097 -0.0464 -0.3811
  163SAPE  H15X18382   4.396   2.593   8.503 -1.7407 -1.2444 -0.0744
  163SAPE  H15Y18383   4.301   2.609   8.664  0.4152 -0.2976 -0.1739
  163SAPE  C31618384   4.512   2.709   8.636 -0.1869  0.1359  0.0932
  163SAPE  H16X18385   4.507   2.763   8.733  1.5374 -0.1873  0.3620
  163SAPE  H16Y18386   4.554   2.777   8.559  2.2104  2.0310  2.9594
  163SAPE  C31718387   4.615   2.600   8.632 -0.3786 -0.8223 -0.1229
  163SAPE  H17X18388   4.629   2.551   8.533  3.6206 -0.0868 -0.0118
  163SAPE  H17Y18389   4.568   2.531   8.705 -1.2745  1.2800  1.3216
  163SAPE  C31818390   4.741   2.654   8.697  0.2393 -0.2667  0.1550
  163SAPE  H18X18391   4.824   2.580   8.692  0.1431 -0.4776  1.4343
  163SAPE  H18Y18392   4.714   2.680   8.802 -1.1167  5.3169 -1.4325
  163SAPE  H18Z18393   4.774   2.747   8.647  0.3412 -0.3126  0.1358
  164SAPE     N18394   0.204   0.486   5.669  0.0439 -0.3219 -0.0815
  164SAPE   HN118395   0.191   0.510   5.568  0.9463  2.2304  0.3529
  164SAPE   HN218396   0.279   0.414   5.673 -0.7212 -1.0904  0.6994
  164SAPE   HN318397   0.110   0.455   5.700  0.2625  1.8390  2.9733
  164SAPE   C1218398   0.238   0.601   5.751  0.1643 -0.8941  0.0551
  164SAPE  H12A18399   0.152   0.669   5.763 -0.0116 -0.5061 -3.0285
  164SAPE  H12B18400   0.309   0.664   5.694 -0.6935  1.3594  1.4462
  164SAPE   C1118401   0.302   0.567   5.884  0.7200 -0.7065  0.0004
  164SAPE  H11A18402   0.222   0.528   5.950  0.6125 -2.1612 -0.9627
  164SAPE  H11B18403   0.342   0.661   5.927 -3.3879  0.8370  0.6678
  164SAPE     P18404   0.495   0.425   5.985  0.1520  0.4887  0.2247
  164SAPE   O1318405   0.466   0.286   6.026  0.1291  0.5192 -0.2412
  164SAPE   O1418406   0.637   0.451   5.949 -0.0962 -0.6632 -0.3298
  164SAPE   O1218407   0.403   0.472   5.867 -0.2300 -0.4113 -0.0946
  164SAPE   O1118408   0.457   0.524   6.103  0.6098 -0.0794  1.0900
  164SAPE    C118409   0.518   0.493   6.229 -0.0060  0.3643  0.0847
  164SAPE    HA18410   0.506   0.385   6.251  0.0730  0.2990 -0.1920
  164SAPE    HB18411   0.628   0.506   6.226 -0.1675  1.8738  0.1901
  164SAPE    C218412   0.479   0.591   6.340 -0.1529  0.2154  0.1535
  164SAPE    HS18413   0.489   0.689   6.288  3.1650 -0.9443 -1.5055
  164SAPE   O2118414   0.575   0.583   6.459  0.5007  0.2198 -0.1803
  164SAPE   C2118415   0.695   0.636   6.445 -0.1691 -0.0533 -0.2315
  164SAPE   O2218416   0.726   0.710   6.352 -0.0480  0.0514 -0.4981
  164SAPE   C2218417   0.781   0.590   6.561  0.0059 -0.0823  0.3369
  164SAPE   H2R18418   0.730   0.635   6.649 -1.3520  0.2880 -0.6224
  164SAPE   H2S18419   0.774   0.480   6.571  1.7883 -0.6770 -3.9809
  164SAPE    C318420   0.327   0.577   6.382 -0.0408 -0.7933  0.1717
  164SAPE    HX18421   0.319   0.472   6.417  1.1566 -1.2711 -0.9609
  164SAPE    HY18422   0.273   0.583   6.285 -0.0575 -2.4649  0.0729
  164SAPE   O3118423   0.279   0.666   6.488  0.1651  0.8110 -0.3513
  164SAPE   C3118424   0.279   0.794   6.448 -0.1293 -0.3250 -0.4538
  164SAPE   O3218425   0.296   0.833   6.335  0.0687 -0.0203  0.0396
  164SAPE   C3218426   0.234   0.890   6.563 -0.1391  0.0263  0.0708
  164SAPE   H2X18427   0.224   0.992   6.520 -1.2852  0.0177  0.3035
  164SAPE   H2Y18428   0.314   0.894   6.641 -0.5245 -3.2534  0.7217
  164SAPE   C2318429   0.930   0.629   6.550  0.0225  0.2161 -0.5930
  164SAPE   H3R18430   0.963   0.590   6.452 -1.1608 -2.5273  0.0596
  164SAPE   H3S18431   0.995   0.584   6.629  0.9751  0.2496 -1.3492
  164SAPE   C2418432   0.961   0.779   6.556 -0.0594 -0.4624 -0.5892
  164SAPE   H4R18433   0.894   0.833   6.626  2.4041  1.7284  0.1664
  164SAPE   H4S18434   0.954   0.834   6.461  1.0284  1.2246  0.2807
  164SAPE   C2518435   1.103   0.809   6.600 -0.4437 -0.0431 -0.0191
  164SAPE   H5R18436   1.179   0.802   6.522  0.1500  0.8777  0.4723
  164SAPE   C2618437   1.137   0.842   6.726 -0.3323  0.0095  0.2666
  164SAPE   H6R18438   1.241   0.866   6.752  0.5805 -2.8469 -0.5981
  164SAPE   C2718439   1.039   0.866   6.839 -0.5689  0.1172 -0.0189
  164SAPE   H7R18440   1.064   0.804   6.927 -0.1701  1.5368  0.8876
  164SAPE   H7S18441   0.932   0.842   6.825 -0.3945  0.0288 -1.3052
  164SAPE   C2818442   1.040   1.014   6.884  0.4699 -0.2290  0.4524
  164SAPE   H8R18443   1.007   1.078   6.801 -0.7198 -0.9353  0.3558
  164SAPE   C2918444   1.100   1.072   6.997 -0.2877  0.2994  0.0113
  164SAPE   H9R18445   1.096   1.181   7.010 -2.5682  0.3364 -0.6956
  164SAPE  C21018446   1.163   0.990   7.113 -0.1292  0.0517  0.1419
  164SAPE  H10R18447   1.245   0.924   7.076  2.7103  1.2176  3.9788
  164SAPE  H10S18448   1.090   0.918   7.156  0.6330 -0.3926  0.7125
  164SAPE  C21118449   1.225   1.088   7.207 -0.3159  0.7467  0.2108
  164SAPE  H11R18450   1.254   1.185   7.164  2.0839 -0.1722 -0.3519
  164SAPE  C21218451   1.243   1.065   7.339  0.2326 -0.1157 -0.4137
  164SAPE  H12R18452   1.289   1.149   7.393 -1.3004  1.4163 -1.4357
  164SAPE  C21318453   1.205   0.931   7.409  0.2640 -0.1958  0.2943
  164SAPE  H13R18454   1.295   0.885   7.455 -0.6812 -1.6753  0.7170
  164SAPE  H13S18455   1.164   0.859   7.334 -0.6619  0.4739  0.1630
  164SAPE  C21418456   1.088   0.959   7.500 -0.2736 -0.2326  0.2739
  164SAPE  H14R18457   1.031   1.051   7.483 -0.1693  0.5915  3.8581
  164SAPE  C21518458   1.055   0.880   7.601  0.0076  0.3842  1.2088
  164SAPE  H15R18459   0.970   0.908   7.665  0.5967 -1.4489  2.8511
  164SAPE  C21618460   1.117   0.749   7.636 -0.4589 -0.3090  0.7902
  164SAPE  H16R18461   1.216   0.727   7.590 -0.9961 -0.2884 -0.4141
  164SAPE  H16S18462   1.044   0.666   7.619 -1.6146  0.0836  3.6377
  164SAPE  C21718463   1.158   0.751   7.781  0.2489  0.0234  0.1671
  164SAPE  H17R18464   1.220   0.841   7.801  0.8589  0.0675 -1.7490
  164SAPE  H17S18465   1.221   0.664   7.812  0.8235 -0.2446 -1.6296
  164SAPE  C21818466   1.041   0.769   7.879  0.3552 -1.0534 -0.2084
  164SAPE  H18R18467   0.992   0.868   7.862  0.5104 -0.9751 -0.1967
  164SAPE  H18S18468   1.085   0.775   7.981  3.6805 -1.9208 -1.5427
  164SAPE  C21918469   0.943   0.654   7.892  0.9843 -0.8625 -0.8342
  164SAPE  H19R18470   0.888   0.637   7.797 -0.8639  0.8213 -0.1000
  164SAPE  H19S18471   0.868   0.683   7.969 -0.4511 -0.8115 -2.2248
  164SAPE  C22018472   1.013   0.531   7.941  0.5477  0.2487 -0.6303
  164SAPE  H20R18473   1.083   0.494   7.864  1.4868  0.4212  0.1316
  164SAPE  H20S18474   0.939   0.451   7.961  0.4990  0.5525  0.4625
  164SAPE  H20T18475   1.067   0.552   8.036 -0.0281  2.1989 -0.7082
  164SAPE   C3318476   0.112   0.857   6.645 -0.1193  0.4626  0.2028
  164SAPE   H3X18477   0.041   0.801   6.581  0.0433  0.1727  0.2766
  164SAPE   H3Y18478   0.065   0.952   6.679 -3.7102 -1.3318  0.4627
  164SAPE   C3418479   0.138   0.762   6.755 -0.7101 -0.3710  0.6216
  164SAPE   H4X18480   0.230   0.794   6.807  0.6847  0.7492 -2.3868
  164SAPE   H4Y18481   0.146   0.656   6.721  0.4830  0.0900 -0.5761
  164SAPE   C3518482   0.007   0.758   6.841  0.4702 -0.6327 -0.1014
  164SAPE   H5X18483  -0.076   0.713   6.783  0.3218  1.0191 -1.2171
  164SAPE   H5Y18484  -0.040   0.857   6.863 -1.6384 -1.6526  0.0973
  164SAPE   C3618485   0.018   0.671   6.969  0.1514 -0.4502 -0.3269
  164SAPE   H6X18486   0.070   0.722   7.052 -0.4669  1.2564 -0.9718
  164SAPE   H6Y18487   0.077   0.578   6.959  0.8059 -0.3094  2.0997
  164SAPE   C3718488  -0.117   0.627   7.024  0.0314  0.8643 -0.0892
  164SAPE   H7X18489  -0.168   0.560   6.951  1.0543  1.7700 -1.6585
  164SAPE   H7Y18490  -0.179   0.718   7.027 -1.9984 -0.4760 -0.1217
  164SAPE   C3818491  -0.105   0.560   7.164 -0.2591  0.0328 -0.1939
  164SAPE   H8X18492  -0.029   0.615   7.223 -0.6079  0.2946  0.0127
  164SAPE   H8Y18493  -0.080   0.452   7.160 -1.8788 -0.3662  0.1898
  164SAPE   C3918494  -0.235   0.570   7.238 -0.3399  0.2833 -0.0306
  164SAPE   H9X18495  -0.321   0.517   7.194 -0.5790 -1.5486  2.5173
  164SAPE   H9Y18496  -0.264   0.676   7.253 -2.3680 -0.2192 -0.2475
  164SAPE  C31018497  -0.222   0.510   7.379  0.2629  0.0138  0.3288
  164SAPE  H10X18498  -0.185   0.405   7.375  1.8794  0.6001 -0.6614
  164SAPE  H10Y18499  -0.324   0.497   7.421  0.4793  2.1961  1.6157
  164SAPE  C31118500  -0.138   0.590   7.475 -0.2967 -0.1337 -0.2581
  164SAPE  H11X18501  -0.180   0.693   7.479  0.4787  0.1953 -0.4204
  164SAPE  H11Y18502  -0.034   0.600   7.436  0.2390  1.5796  1.4858
  164SAPE  C31218503  -0.135   0.511   7.604 -0.0480  0.0069  0.1649
  164SAPE  H12X18504  -0.081   0.417   7.577 -0.4188 -0.5693  1.3623
  164SAPE  H12Y18505  -0.236   0.485   7.644  0.1785  0.5039  1.0828
  164SAPE  C31318506  -0.056   0.573   7.715 -0.3460 -0.2482  0.0729
  164SAPE  H13X18507  -0.118   0.664   7.734 -1.5986 -0.9750 -0.4947
  164SAPE  H13Y18508   0.044   0.607   7.681  2.2622 -4.1833  3.3978
  164SAPE  C31418509  -0.043   0.485   7.841 -0.4965 -0.2289 -0.0591
  164SAPE  H14X18510   0.038   0.410   7.835  0.2276  0.4732  0.6575
  164SAPE  H14Y18511  -0.138   0.430   7.861  0.8822 -0.7743  6.1354
  164SAPE  C31518512   0.002   0.580   7.954  0.3178  0.2129 -0.1157
  164SAPE  H15X18513  -0.045   0.678   7.933  0.8172 -0.2201 -3.5802
  164SAPE  H15Y18514   0.113   0.584   7.946  0.4701 -1.8966  0.5326
  164SAPE  C31618515  -0.042   0.518   8.085 -0.2619  0.0564 -0.8190
  164SAPE  H16X18516  -0.145   0.476   8.085 -1.0936  1.9255  1.9707
  164SAPE  H16Y18517  -0.040   0.589   8.170 -0.6746 -0.7708 -0.1017
  164SAPE  C31718518   0.049   0.404   8.133 -0.1282  0.3352 -0.0540
  164SAPE  H17X18519   0.152   0.446   8.139 -0.9284  2.6031 -1.3707
  164SAPE  H17Y18520   0.060   0.318   8.063  0.9068  2.3725 -2.4816
  164SAPE  C31818521  -0.001   0.351   8.262 -0.7691  0.6562  0.5055
  164SAPE  H18X18522  -0.103   0.312   8.240 -1.0061  0.7572  1.3868
  164SAPE  H18Y18523   0.004   0.427   8.342  2.7449  1.3522 -0.2975
  164SAPE  H18Z18524   0.063   0.264   8.290  0.3470  1.9987  2.1910
  165SAPE     N18525   0.151   3.010   6.166 -1.2629 -0.5397 -0.1342
  165SAPE   HN118526   0.062   3.062   6.151 -0.7919 -0.0313 -1.2328
  165SAPE   HN218527   0.138   2.910   6.140  0.2645 -0.8196  0.1545
  165SAPE   HN318528   0.169   3.019   6.268 -1.2612 -1.6547 -0.0295
  165SAPE   C1218529   0.265   3.082   6.092  0.6386 -0.5537 -0.2751
  165SAPE  H12A18530   0.231   3.080   5.986 -1.8612 -1.0884  0.5053
  165SAPE  H12B18531   0.351   3.012   6.098  1.5943  0.6217  0.0263
  165SAPE   C1118532   0.289   3.224   6.138  0.4475 -0.4697  0.2542
  165SAPE  H11A18533   0.365   3.278   6.077  1.2000 -0.5877  1.0798
  165SAPE  H11B18534   0.347   3.225   6.233  2.4126  1.3431 -0.9305
  165SAPE     P18535   0.156   3.437   6.219  0.0187  0.2354  0.2832
  165SAPE   O1318536   0.294   3.485   6.233  0.4409  0.3831  0.4321
  165SAPE   O1418537   0.063   3.532   6.143 -0.6872 -0.4882 -0.1426
  165SAPE   O1218538   0.161   3.295   6.144  0.0943  0.0241  0.1310
  165SAPE   O1118539   0.091   3.399   6.352 -0.2992 -0.4384 -0.0201
  165SAPE    C118540   0.121   3.286   6.434 -0.1565  0.6811 -0.4034
  165SAPE    HA18541   0.042   3.211   6.417 -0.9659  1.1352  1.2386
  165SAPE    HB18542   0.219   3.234   6.426  0.3601  1.5106  0.3207
  165SAPE    C218543   0.107   3.324   6.590  0.1325 -0.1324  0.1705
  165SAPE    HS18544   0.002   3.359   6.602  0.6069  1.2784  0.1947
  165SAPE   O2118545   0.211   3.412   6.639  0.0315  0.1110  0.1807
  165SAPE   C2118546   0.173   3.534   6.638 -0.1028  1.0855  0.1526
  165SAPE   O2218547   0.063   3.581   6.618  0.5175  0.0802  0.8197
  165SAPE   C2218548   0.294   3.621   6.670  0.0404 -0.1901 -0.3782
  165SAPE   H2R18549   0.359   3.626   6.580 -0.6202 -1.4137 -0.9220
  165SAPE   H2S18550   0.244   3.717   6.697  0.5163 -0.0251 -0.0798
  165SAPE    C318551   0.108   3.194   6.673  0.0259 -0.7816  0.3782
  165SAPE    HX18552   0.209   3.148   6.668  0.2225 -0.5556  1.8510
  165SAPE    HY18553   0.049   3.111   6.628  0.9042 -2.4640  2.2294
  165SAPE   O3118554   0.060   3.207   6.802  0.0534  0.2887 -0.5084
  165SAPE   C3118555   0.152   3.228   6.896 -0.0909  0.0315  0.3742
  165SAPE   O3218556   0.274   3.245   6.872  0.1021 -0.0718 -0.4761
  165SAPE   C3218557   0.093   3.215   7.037 -0.7507  0.2581  0.2546
  165SAPE   H2X18558   0.030   3.124   7.039 -1.4339  0.7451  1.0550
  165SAPE   H2Y18559   0.033   3.308   7.045  1.7169  1.9309 -0.0839
  165SAPE   C2318560   0.379   3.571   6.794  0.2797 -0.1673 -0.0708
  165SAPE   H3R18561   0.476   3.626   6.802  0.5819 -0.6767 -0.2420
  165SAPE   H3S18562   0.407   3.466   6.772  2.6078  0.6283 -1.0111
  165SAPE   C2418563   0.313   3.566   6.935 -0.4530  1.2134  0.8773
  165SAPE   H4R18564   0.363   3.490   6.999  0.6422  1.7261  0.6526
  165SAPE   H4S18565   0.210   3.526   6.922  1.1325 -2.6958 -0.3966
  165SAPE   C2518566   0.302   3.694   7.003 -0.3811  0.7665  0.0885
  165SAPE   H5R18567   0.243   3.770   6.950 -2.7328 -0.1701  1.2791
  165SAPE   C2618568   0.359   3.721   7.124  0.2160  0.5019 -0.2250
  165SAPE   H6R18569   0.333   3.816   7.175  1.5387 -0.7059  2.8216
  165SAPE   C2718570   0.449   3.638   7.212  0.5458 -0.8408 -0.4902
  165SAPE   H7R18571   0.489   3.711   7.286 -2.8372 -0.8019  1.3735
  165SAPE   H7S18572   0.529   3.585   7.156  0.8279  0.1762 -1.0690
  165SAPE   C2818573   0.363   3.540   7.289  0.3069  0.1225  0.1290
  165SAPE   H8R18574   0.352   3.444   7.236  1.0568 -0.0430  0.2688
  165SAPE   C2918575   0.315   3.552   7.414  0.1558 -0.8190 -0.2475
  165SAPE   H9R18576   0.246   3.470   7.440 -0.1372 -0.2122  0.9471
  165SAPE  C21018577   0.340   3.671   7.505  0.7944  0.0643  0.1119
  165SAPE  H10R18578   0.250   3.693   7.566  0.7718  2.0729 -0.5877
  165SAPE  H10S18579   0.348   3.765   7.445 -0.4833 -0.5298 -1.0060
  165SAPE  C21118580   0.466   3.663   7.583 -0.0513 -0.4351  1.1201
  165SAPE  H11R18581   0.561   3.638   7.534  0.4580  2.3691  0.5991
  165SAPE  C21218582   0.471   3.657   7.713 -0.6246 -0.3652 -0.5554
  165SAPE  H12R18583   0.563   3.650   7.773 -1.3460 -0.6855  0.5343
  165SAPE  C21318584   0.348   3.667   7.808  0.1287  1.0865 -1.0092
  165SAPE  H13R18585   0.281   3.748   7.772  1.7669  2.5360 -0.8951
  165SAPE  H13S18586   0.376   3.706   7.908 -2.5103 -1.9687  0.9881
  165SAPE  C21418587   0.268   3.536   7.828 -0.4064  0.5500 -0.5105
  165SAPE  H14R18588   0.329   3.447   7.806  0.9508  1.4162 -0.3424
  165SAPE  C21518589   0.143   3.525   7.863  0.0112 -0.1846  0.4330
  165SAPE  H15R18590   0.101   3.428   7.894 -1.9589  0.6341  0.3839
  165SAPE  C21618591   0.050   3.642   7.885 -0.0165 -0.4246 -0.0543
  165SAPE  H16R18592   0.019   3.690   7.790 -1.5678  2.9038  2.0645
  165SAPE  H16S18593   0.098   3.723   7.944 -0.7924 -0.1888  0.2507
  165SAPE  C21718594  -0.070   3.599   7.974 -0.7083 -0.4631 -0.0951
  165SAPE  H17R18595  -0.122   3.509   7.935  0.8003 -1.5739  0.3872
  165SAPE  H17S18596  -0.147   3.678   7.987  0.0137  0.0755  0.9938
  165SAPE  C21818597  -0.034   3.589   8.124  0.0839 -0.2705  0.1619
  165SAPE  H18R18598   0.006   3.679   8.175 -1.1958  0.7233 -0.5808
  165SAPE  H18S18599   0.040   3.506   8.138  0.3770 -0.0443 -0.0363
  165SAPE  C21918600  -0.155   3.555   8.212  0.1344  0.4066  0.3578
  165SAPE  H19R18601  -0.210   3.472   8.163  1.3184 -0.4600  0.4606
  165SAPE  H19S18602  -0.228   3.639   8.214 -0.6311 -0.2510  0.0154
  165SAPE  C22018603  -0.130   3.529   8.364 -0.4001 -0.3298 -0.1688
  165SAPE  H20R18604  -0.081   3.616   8.412 -1.4836 -0.1294  0.5840
  165SAPE  H20S18605  -0.057   3.445   8.363 -0.4937 -0.4500 -3.0204
  165SAPE  H20T18606  -0.216   3.494   8.424 -0.6802 -1.6708 -1.3251
  165SAPE   C3318607   0.199   3.219   7.152  0.0907  0.4389 -0.2902
  165SAPE   H3X18608   0.286   3.289   7.144 -1.1987  2.5463  3.1611
  165SAPE   H3Y18609   0.241   3.116   7.147 -2.1616 -0.4494 -1.9589
  165SAPE   C3418610   0.132   3.220   7.296  0.7539  0.0012  0.4346
  165SAPE   H4X18611   0.046   3.150   7.294 -0.3681  1.3245  1.5113
  165SAPE   H4Y18612   0.089   3.321   7.310  0.1997 -0.1595 -0.1014
  165SAPE   C3518613   0.234   3.176   7.401  0.4140  0.3393 -0.4585
  165SAPE   H5X18614   0.331   3.229   7.394 -0.1298  1.5680  1.2079
  165SAPE   H5Y18615   0.256   3.067   7.389  1.1049  0.2618  1.4025
  165SAPE   C3618616   0.187   3.197   7.549  0.2692  0.6220  0.2807
  165SAPE   H6X18617   0.090   3.146   7.563  0.2636  0.3999 -0.5319
  165SAPE   H6Y18618   0.179   3.307   7.557  1.1223  0.8015 -1.0571
  165SAPE   C3718619   0.295   3.150   7.649  0.4520 -0.3409 -1.2521
  165SAPE   H7X18620   0.328   3.237   7.709  1.9018 -1.4453 -0.4213
  165SAPE   H7Y18621   0.377   3.119   7.581  1.3209  0.7370 -0.6953
  165SAPE   C3818622   0.247   3.031   7.730 -0.0043  0.8805 -0.2679
  165SAPE   H8X18623   0.331   2.958   7.723 -0.1299  0.7635 -0.5852
  165SAPE   H8Y18624   0.149   2.991   7.696 -1.3822  2.1644  2.0818
  165SAPE   C3918625   0.229   3.054   7.880 -0.0899 -0.2012  0.2627
  165SAPE   H9X18626   0.317   3.110   7.920 -0.6764  1.3026 -0.5199
  165SAPE   H9Y18627   0.232   2.958   7.935  3.2212 -0.0974  0.4140
  165SAPE  C31018628   0.097   3.129   7.913  0.0473  0.2631 -0.2230
  165SAPE  H10X18629   0.019   3.050   7.905 -0.4494  0.6827  0.3641
  165SAPE  H10Y18630   0.070   3.218   7.851 -1.7965 -0.4795 -0.5151
  165SAPE  C31118631   0.085   3.187   8.055 -0.6007  0.0332  0.5049
  165SAPE  H11X18632   0.140   3.283   8.055  4.0133 -2.3548 -3.8732
  165SAPE  H11Y18633   0.135   3.118   8.126  0.6626 -1.4107 -1.7231
  165SAPE  C31218634  -0.060   3.209   8.105 -0.4231  0.3096 -0.1360
  165SAPE  H12X18635  -0.127   3.253   8.029  0.0738 -0.4647 -1.0297
  165SAPE  H12Y18636  -0.056   3.293   8.178 -0.9901  0.3107 -0.1053
  165SAPE  C31318637  -0.133   3.080   8.171  0.2496  0.1816 -0.3842
  165SAPE  H13X18638  -0.141   3.010   8.084  1.0217 -1.5982  0.9487
  165SAPE  H13Y18639  -0.240   3.094   8.197 -0.2040 -0.0652 -2.0293
  165SAPE  C31418640  -0.080   3.024   8.301 -0.3717  0.1061 -1.0229
  165SAPE  H14X18641   0.026   2.994   8.292 -0.3297 -0.3438  0.6757
  165SAPE  H14Y18642  -0.138   2.933   8.326  0.6299 -0.1042  0.6089
  165SAPE  C31518643  -0.096   3.121   8.421 -0.1026  0.3426  0.5342
  165SAPE  H15X18644  -0.048   3.219   8.403  1.0817 -0.5934 -1.5280
  165SAPE  H15Y18645  -0.041   3.064   8.500  1.1339  1.1707  0.2791
  165SAPE  C31618646  -0.234   3.138   8.479  0.0833  0.0182  0.1867
  165SAPE  H16X18647  -0.284   3.040   8.494  0.2941 -0.2564 -0.8778
  165SAPE  H16Y18648  -0.289   3.202   8.407  2.9471  2.1452 -0.2081
  165SAPE  C31718649  -0.231   3.225   8.603 -0.2563 -0.3766  0.2454
  165SAPE  H17X18650  -0.336   3.240   8.635  0.0141  2.3897 -0.0237
  165SAPE  H17Y18651  -0.196   3.328   8.582 -1.5414 -0.3041 -1.6536
  165SAPE  C31818652  -0.166   3.165   8.729  0.4184  0.9012  0.0076
  165SAPE  H18X18653  -0.055   3.165   8.717  0.6847 -1.0041  2.0695
  165SAPE  H18Y18654  -0.206   3.061   8.729 -1.5329  1.5863 -2.6267
  165SAPE  H18Z18655  -0.194   3.215   8.824 -0.1325 -3.5602  2.3614
  166SAPE     N18656   5.875   0.188   5.867  0.5443 -0.0875 -0.2132
  166SAPE   HN118657   5.800   0.122   5.894  0.2170  0.9196  1.4144
  166SAPE   HN218658   5.869   0.285   5.903  1.2356  0.9315 -2.7487
  166SAPE   HN318659   5.877   0.192   5.763 -1.7051 -0.3795 -0.2883
  166SAPE   C1218660   6.004   0.119   5.914 -0.0608  0.4200  0.4723
  166SAPE  H12A18661   5.992   0.008   5.911 -1.6866  0.5806  0.3763
  166SAPE  H12B18662   6.035   0.158   6.014 -0.2813  1.3185  0.1940
  166SAPE   C1118663   6.110   0.169   5.816 -0.3009 -0.2945 -0.3412
  166SAPE  H11A18664   6.080   0.149   5.711  0.3490 -0.6246 -0.4687
  166SAPE  H11B18665   6.196   0.100   5.829  0.7947  1.0526 -0.3050
  166SAPE     P18666   6.234   0.373   5.933 -1.0045 -0.1225  0.0443
  166SAPE   O1318667   6.351   0.431   5.863  0.3798 -0.4231 -0.4119
  166SAPE   O1418668   6.152   0.461   6.018  0.1633 -0.2346  0.2512
  166SAPE   O1218669   6.141   0.312   5.821 -0.2935 -0.4880  0.2309
  166SAPE   O1118670   6.275   0.244   6.016  0.9742  0.6235  0.3036
  166SAPE    C118671   6.387   0.241   6.110 -0.7923  0.5711 -0.0191
  166SAPE    HA18672   6.456   0.156   6.089 -1.1378  1.2756 -4.3548
  166SAPE    HB18673   6.441   0.336   6.128  0.0724  0.2964 -1.1501
  166SAPE    C218674   6.331   0.187   6.250  0.7796  0.5371  0.2299
  166SAPE    HS18675   6.304   0.081   6.227 -0.0605  0.7953  0.0051
  166SAPE   O2118676   6.220   0.262   6.295  0.4196  0.5589  0.3038
  166SAPE   C2118677   6.100   0.211   6.309 -0.6894 -0.3089 -0.5223
  166SAPE   O2218678   6.072   0.097   6.276 -0.2316  0.9979  0.3570
  166SAPE   C2218679   6.006   0.320   6.372  0.8055 -0.1616  0.3459
  166SAPE   H2R18680   6.034   0.419   6.331  0.4306  0.0402  0.5834
  166SAPE   H2S18681   5.902   0.290   6.347  1.2636 -1.5912  0.0618
  166SAPE    C318682   6.437   0.189   6.357  0.1946 -0.5747  0.8979
  166SAPE    HX18683   6.472   0.294   6.360 -1.7176  0.0902  1.1076
  166SAPE    HY18684   6.524   0.127   6.326  0.1649  0.0358 -0.4014
  166SAPE   O3118685   6.382   0.163   6.490 -0.0325 -0.6144  0.7237
  166SAPE   C3118686   6.399   0.040   6.536  0.5883  0.3916  0.5613
  166SAPE   O3218687   6.470  -0.047   6.487  0.6183 -0.2682  0.0726
  166SAPE   C3218688   6.328   0.026   6.672  0.7775  0.4571  0.5434
  166SAPE   H2X18689   6.217   0.026   6.668  0.6925 -1.6635  1.8515
  166SAPE   H2Y18690   6.354   0.114   6.735 -0.5827  0.6264  0.8930
  166SAPE   C2318691   6.026   0.337   6.527 -0.2989 -0.1877 -0.4144
  166SAPE   H3R18692   6.028   0.446   6.549 -0.9766  0.1994 -2.2031
  166SAPE   H3S18693   6.130   0.306   6.551 -0.0560 -1.5138 -2.9894
  166SAPE   C2418694   5.920   0.271   6.610  0.5836 -0.5868  0.3260
  166SAPE   H4R18695   5.819   0.295   6.570  0.5148 -4.3245 -2.0078
  166SAPE   H4S18696   5.919   0.304   6.716  1.2526 -0.4467  0.2857
  166SAPE   C2518697   5.914   0.117   6.602 -0.8522 -0.5877  0.6611
  166SAPE   H5R18698   5.919   0.068   6.504  1.0988  0.7639  0.0385
  166SAPE   C2618699   5.909   0.034   6.704  0.0862 -0.1073 -0.1391
  166SAPE   H6R18700   5.905  -0.072   6.676  0.2385 -0.3111  0.5918
  166SAPE   C2718701   5.918   0.072   6.852  0.4166  0.2656 -0.3236
  166SAPE   H7R18702   5.979   0.164   6.869  1.4381 -0.6438  0.9914
  166SAPE   H7S18703   5.974  -0.006   6.908 -0.0380  0.4566  0.4032
  166SAPE   C2818704   5.772   0.084   6.893  0.0603  0.5200 -0.6674
  166SAPE   H8R18705   5.694   0.128   6.829 -3.1197 -2.6949  0.7912
  166SAPE   C2918706   5.737   0.067   7.023  0.5411 -0.0998  0.8894
  166SAPE   H9R18707   5.629   0.067   7.046  0.5928  1.3583  1.1978
  166SAPE  C21018708   5.829   0.023   7.138  0.1894  0.8846  0.0829
  166SAPE  H10R18709   5.881   0.109   7.185  0.6464 -0.5086  2.1529
  166SAPE  H10S18710   5.922  -0.028   7.105  0.9956  3.0361 -1.0541
  166SAPE  C21118711   5.751  -0.061   7.239  0.1050 -0.8029  0.6598
  166SAPE  H11R18712   5.672  -0.120   7.190 -1.4452  0.7922  1.1984
  166SAPE  C21218713   5.753  -0.055   7.373  0.5057  0.2074  0.0859
  166SAPE  H12R18714   5.693  -0.124   7.434 -1.7980  0.5429 -1.7329
  166SAPE  C21318715   5.838   0.048   7.445  0.3321  0.1387  0.0370
  166SAPE  H13R18716   5.844   0.150   7.402  0.8079  1.0730  2.2319
  166SAPE  H13S18717   5.942   0.012   7.435 -0.2326 -1.2862 -0.8957
  166SAPE  C21418718   5.780   0.074   7.581  0.2174 -0.2546 -0.0258
  166SAPE  H14R18719   5.671   0.082   7.575  0.2545  0.4369  0.1488
  166SAPE  C21518720   5.828   0.062   7.709 -0.0816  0.6891 -0.2266
  166SAPE  H15R18721   5.765   0.093   7.794  0.4150 -1.1253  0.8339
  166SAPE  C21618722   5.962   0.014   7.758  1.0027 -0.3399 -0.3081
  166SAPE  H16R18723   6.023  -0.021   7.672  0.4899  0.1560 -0.8779
  166SAPE  H16S18724   5.956  -0.069   7.831 -0.5808 -0.3172 -0.4016
  166SAPE  C21718725   6.038   0.133   7.822 -0.7851  0.4319  0.3749
  166SAPE  H17R18726   6.027   0.234   7.777 -1.4995 -0.2523 -1.0263
  166SAPE  H17S18727   6.144   0.113   7.797 -1.3998 -0.4032 -1.6889
  166SAPE  C21818728   6.019   0.148   7.966  0.0214 -0.2241 -0.2915
  166SAPE  H18R18729   6.033   0.048   8.013  0.7499  0.3980  0.8477
  166SAPE  H18S18730   5.916   0.181   7.991  0.0416  0.5727 -1.2536
  166SAPE  C21918731   6.122   0.241   8.026 -0.4835  0.0154  0.2896
  166SAPE  H19R18732   6.132   0.340   7.975 -0.0582 -0.2398 -0.1235
  166SAPE  H19S18733   6.215   0.185   8.004 -0.8773 -0.3238 -0.5203
  166SAPE  C22018734   6.113   0.270   8.175  0.3514 -0.1229  0.1616
  166SAPE  H20R18735   6.192   0.330   8.226 -0.6799 -0.3494  2.0762
  166SAPE  H20S18736   6.105   0.177   8.235  0.0841  0.4725  1.0582
  166SAPE  H20T18737   6.019   0.322   8.203  0.1239 -1.0252  1.0952
  166SAPE   C3318738   6.385  -0.096   6.740 -0.2418 -0.0718 -0.3967
  166SAPE   H3X18739   6.494  -0.092   6.760  0.0693 -2.0492 -1.6121
  166SAPE   H3Y18740   6.364  -0.191   6.687 -0.6393 -1.3742  2.0235
  166SAPE   C3418741   6.325  -0.098   6.879  0.7430 -0.2453 -0.0141
  166SAPE   H4X18742   6.216  -0.110   6.860  0.6257 -1.0146  1.0774
  166SAPE   H4Y18743   6.341  -0.003   6.934 -1.8175  1.3269 -1.9034
  166SAPE   C3518744   6.380  -0.225   6.954 -0.3894  0.2171 -0.0154
  166SAPE   H5X18745   6.491  -0.222   6.962 -0.2917 -3.6133  0.9107
  166SAPE   H5Y18746   6.353  -0.317   6.898  1.6531  0.0787 -0.8035
  166SAPE   C3618747   6.329  -0.238   7.100 -0.0758  0.2323  0.4011
  166SAPE   H6X18748   6.353  -0.149   7.161 -1.2631 -0.6297  2.1926
  166SAPE   H6Y18749   6.385  -0.327   7.136 -0.1668 -0.1495 -0.3863
  166SAPE   C3718750   6.173  -0.245   7.104 -0.4226 -0.0028 -0.3907
  166SAPE   H7X18751   6.127  -0.300   7.020 -1.6991 -1.1136  1.0010
  166SAPE   H7Y18752   6.135  -0.140   7.103  0.0779  0.2099  1.3849
  166SAPE   C3818753   6.135  -0.327   7.234 -0.0804 -0.3370 -0.3527
  166SAPE   H8X18754   6.194  -0.420   7.240  0.2053 -0.1665 -0.5052
  166SAPE   H8Y18755   6.027  -0.352   7.241 -0.0842  0.4373  3.3530
  166SAPE   C3918756   6.162  -0.261   7.372  0.5490  0.3009 -0.5734
  166SAPE   H9X18757   6.132  -0.154   7.362  0.0942  0.0953 -1.4686
  166SAPE   H9Y18758   6.270  -0.266   7.395  0.0358 -2.9724  1.5368
  166SAPE  C31018759   6.078  -0.330   7.475  0.5943  0.9095  0.4550
  166SAPE  H10X18760   6.046  -0.436   7.464 -0.3584  1.3797 -1.4376
  166SAPE  H10Y18761   5.982  -0.275   7.476  0.7627  1.2043  1.7989
  166SAPE  C31118762   6.133  -0.297   7.612 -0.0992 -0.1596 -0.5284
  166SAPE  H11X18763   6.166  -0.192   7.605  1.0485 -0.4235  0.7385
  166SAPE  H11Y18764   6.218  -0.366   7.628 -0.2642  0.1927  2.0584
  166SAPE  C31218765   6.037  -0.318   7.728  0.2592  0.1378 -0.4480
  166SAPE  H12X18766   5.946  -0.257   7.711 -1.4021 -1.8422  1.1027
  166SAPE  H12Y18767   6.078  -0.274   7.821  2.1658 -0.6274 -0.8883
  166SAPE  C31318768   5.979  -0.466   7.746 -0.1064  0.3796  0.2268
  166SAPE  H13X18769   6.068  -0.533   7.750  0.6727  1.2152 -2.3553
  166SAPE  H13Y18770   5.931  -0.483   7.648  0.8869 -1.4924  0.0284
  166SAPE  C31418771   5.877  -0.477   7.860  0.1190 -0.2719  0.4470
  166SAPE  H14X18772   5.782  -0.425   7.831  2.1711  3.4952  0.1039
  166SAPE  H14Y18773   5.924  -0.440   7.953  1.4443  0.1429 -0.3719
  166SAPE  C31518774   5.840  -0.625   7.890 -0.0765  0.5415 -0.4788
  166SAPE  H15X18775   5.768  -0.620   7.975  1.1220  0.7467  0.5381
  166SAPE  H15Y18776   5.938  -0.663   7.927  0.4578  0.5983 -1.7882
  166SAPE  C31618777   5.791  -0.706   7.769 -0.5248  0.5381  0.5772
  166SAPE  H16X18778   5.868  -0.710   7.688  0.6418 -1.0327  1.7310
  166SAPE  H16Y18779   5.717  -0.637   7.723  1.8783  4.0171  1.7483
  166SAPE  C31718780   5.740  -0.841   7.811 -0.3680 -0.2205 -0.1361
  166SAPE  H17X18781   5.674  -0.822   7.899 -1.1196 -0.6855 -0.5993
  166SAPE  H17Y18782   5.815  -0.918   7.838 -3.9080 -4.1784 -1.1408
  166SAPE  C31818783   5.663  -0.900   7.696  0.3171  0.1620  0.1091
  166SAPE  H18X18784   5.730  -0.904   7.608  1.0014  1.9711  0.5199
  166SAPE  H18Y18785   5.579  -0.833   7.669  1.7141  1.6257 -0.6865
  166SAPE  H18Z18786   5.640  -1.008   7.713 -0.0872  0.3781  0.9483
  167SAPE     N18787   1.140   6.228   5.980 -0.1320 -0.5097  0.7790
  167SAPE   HN118788   1.210   6.296   6.016  0.0218 -0.9145  1.2579
  167SAPE   HN218789   1.184   6.136   6.000 -0.8848 -0.8769  0.7588
  167SAPE   HN318790   1.125   6.257   5.882 -0.3487 -1.6205  0.4769
  167SAPE   C1218791   1.021   6.237   6.072 -0.7261 -0.3806 -0.2279
  167SAPE  H12A18792   0.928   6.197   6.027 -1.4157  1.4586 -0.4779
  167SAPE  H12B18793   0.998   6.342   6.100  1.4206  0.1578 -0.4189
  167SAPE   C1118794   1.037   6.167   6.214  0.2352 -0.1285 -0.2249
  167SAPE  H11A18795   0.953   6.206   6.277 -0.4035  0.1429 -1.2364
  167SAPE  H11B18796   1.128   6.201   6.268  0.2174 -0.7041  0.1819
  167SAPE     P18797   1.163   5.931   6.192  0.1881 -0.1972  0.5989
  167SAPE   O1318798   1.122   5.793   6.226 -0.1486 -0.8150 -1.0093
  167SAPE   O1418799   1.226   5.961   6.061  0.2301  0.4462  0.3024
  167SAPE   O1218800   1.034   6.029   6.204 -0.0745  0.1520  0.6449
  167SAPE   O1118801   1.256   5.996   6.296 -0.4841  0.2310  0.3217
  167SAPE    C118802   1.275   5.929   6.426  0.1430 -0.1145  0.3379
  167SAPE    HA18803   1.296   5.820   6.416  1.5182  0.1918 -0.3357
  167SAPE    HB18804   1.372   5.965   6.468  0.7228  3.1222 -3.4814
  167SAPE    C218805   1.174   5.959   6.534 -0.0842 -1.2485  0.2384
  167SAPE    HS18806   1.080   5.911   6.499 -1.7562  0.8462  1.6803
  167SAPE   O2118807   1.175   6.108   6.548  0.4530 -0.3918 -1.1236
  167SAPE   C2118808   1.054   6.155   6.583  0.7874 -0.2303 -0.0371
  167SAPE   O2218809   0.954   6.087   6.601  0.5064 -0.5126  0.1963
  167SAPE   C2218810   1.061   6.306   6.598 -0.1843 -0.6089  0.1308
  167SAPE   H2R18811   1.151   6.341   6.652  1.3152 -0.8584 -2.1183
  167SAPE   H2S18812   1.071   6.346   6.495 -0.4298  0.1759  0.4160
  167SAPE    C318813   1.210   5.898   6.667 -0.2867  0.2658  0.3145
  167SAPE    HX18814   1.294   5.956   6.711 -0.0266 -1.4684  2.1606
  167SAPE    HY18815   1.256   5.801   6.637 -1.0085  1.0083 -3.4343
  167SAPE   O3118816   1.096   5.888   6.762 -0.2724  0.4947 -0.3542
  167SAPE   C3118817   1.093   5.969   6.862  0.2803  0.4239 -0.0425
  167SAPE   O3218818   1.166   6.066   6.872 -0.3244 -0.8995  0.3455
  167SAPE   C3218819   0.991   5.923   6.967 -0.0430  0.0885  0.1724
  167SAPE   H2X18820   0.993   5.812   6.977  0.3331  0.0607 -0.2013
  167SAPE   H2Y18821   0.896   5.943   6.914 -0.0464 -0.1704  0.0798
  167SAPE   C2318822   0.936   6.372   6.671  0.0400 -0.3739  0.2304
  167SAPE   H3R18823   0.848   6.376   6.603  0.2457  1.0530  0.0325
  167SAPE   H3S18824   0.962   6.477   6.698  1.2033 -0.9664  1.4727
  167SAPE   C2418825   0.904   6.324   6.815 -1.1911 -0.1387  0.0415
  167SAPE   H4R18826   0.883   6.215   6.823  0.8711 -0.4488  1.5804
  167SAPE   H4S18827   0.800   6.356   6.838 -2.0219 -2.3091 -0.5462
  167SAPE   C2518828   1.013   6.364   6.906 -0.0421 -0.7404  0.3652
  167SAPE   H5R18829   1.113   6.321   6.892  1.1465  1.9199  0.5645
  167SAPE   C2618830   1.007   6.461   7.005 -0.1264  0.8452 -0.4392
  167SAPE   H6R18831   1.099   6.477   7.063  0.5669  0.6328 -1.4741
  167SAPE   C2718832   0.887   6.553   7.027  0.3044  0.7226 -0.2132
  167SAPE   H7R18833   0.835   6.578   6.932  0.8713  0.3065 -0.6404
  167SAPE   H7S18834   0.925   6.653   7.057  1.3087  0.7960 -1.6650
  167SAPE   C2818835   0.779   6.488   7.110  0.1793  0.5067 -0.3565
  167SAPE   H8R18836   0.695   6.437   7.061 -0.7674  0.3247  1.4356
  167SAPE   C2918837   0.768   6.492   7.238 -1.1853 -0.1738 -0.0087
  167SAPE   H9R18838   0.686   6.430   7.277 -0.4225 -2.2669 -1.6576
  167SAPE  C21018839   0.864   6.567   7.332 -0.6333 -0.2120  0.2187
  167SAPE  H10R18840   0.802   6.647   7.378 -1.2068  0.2474 -1.3313
  167SAPE  H10S18841   0.937   6.627   7.274  0.2072 -2.9661 -1.6922
  167SAPE  C21118842   0.945   6.476   7.422 -0.1390 -0.2579  0.4684
  167SAPE  H11R18843   1.025   6.422   7.369 -0.9594 -1.4073  0.3781
  167SAPE  C21218844   0.926   6.440   7.543  0.3581  0.2752 -0.3766
  167SAPE  H12R18845   1.006   6.385   7.596  1.6552  2.2522 -0.2065
  167SAPE  C21318846   0.808   6.481   7.629 -0.1191  0.0647 -0.1476
  167SAPE  H13R18847   0.764   6.386   7.664  1.5064 -0.3273  0.9112
  167SAPE  H13S18848   0.734   6.540   7.572 -0.6597  1.4741  1.9301
  167SAPE  C21418849   0.851   6.559   7.755 -0.7071 -0.7164  0.7303
  167SAPE  H14R18850   0.961   6.567   7.763 -0.2253 -2.7079 -2.8545
  167SAPE  C21518851   0.775   6.626   7.842 -0.0498  0.2280 -0.5101
  167SAPE  H15R18852   0.822   6.701   7.908  1.1510  0.0108 -1.1127
  167SAPE  C21618853   0.624   6.627   7.836 -0.4592 -0.2515  0.5876
  167SAPE  H16R18854   0.588   6.546   7.769  1.1407 -0.7771  0.3445
  167SAPE  H16S18855   0.589   6.724   7.793  0.9852 -1.1358 -2.7675
  167SAPE  C21718856   0.566   6.600   7.979 -0.1692  0.0607 -0.3985
  167SAPE  H17R18857   0.457   6.620   7.978  0.1246  1.7520 -0.4094
  167SAPE  H17S18858   0.594   6.686   8.043 -1.7691 -0.4715  1.0489
  167SAPE  C21818859   0.596   6.463   8.037  0.2055  0.2172  0.0342
  167SAPE  H18R18860   0.706   6.446   8.027 -0.2091 -0.8590 -3.2763
  167SAPE  H18S18861   0.557   6.388   7.965  0.0926 -0.9118  1.2620
  167SAPE  C21918862   0.548   6.432   8.178 -0.0859 -0.2617 -1.0212
  167SAPE  H19R18863   0.441   6.406   8.167 -0.4633  1.3778 -1.2760
  167SAPE  H19S18864   0.557   6.526   8.236  1.1159 -1.3781  0.6653
  167SAPE  C22018865   0.622   6.320   8.252  0.2387 -0.0174 -0.5926
  167SAPE  H20R18866   0.641   6.229   8.192 -1.7675 -1.4866  0.9214
  167SAPE  H20S18867   0.556   6.284   8.334 -1.3386  1.1728 -1.2975
  167SAPE  H20T18868   0.715   6.352   8.304  0.3389 -0.7743 -0.2951
  167SAPE   C3318869   1.007   5.999   7.108 -0.1794  0.7846  0.6671
  167SAPE   H3X18870   0.921   5.983   7.177  0.7396  1.5119  1.9998
  167SAPE   H3Y18871   1.013   6.106   7.078 -1.2567  0.1713 -1.8449
  167SAPE   C3418872   1.140   5.960   7.175 -0.1802 -0.0744 -0.5200
  167SAPE   H4X18873   1.232   5.980   7.117 -0.4560  2.7577 -0.0502
  167SAPE   H4Y18874   1.130   5.850   7.188  1.0006 -0.0280  0.8826
  167SAPE   C3518875   1.153   6.034   7.312  0.1570 -0.1772 -0.5614
  167SAPE   H5X18876   1.121   6.138   7.291 -0.9828 -0.7207 -1.5537
  167SAPE   H5Y18877   1.251   6.014   7.360  0.2346  2.8282  0.6434
  167SAPE   C3618878   1.047   5.981   7.419  0.1383 -0.5113 -0.2760
  167SAPE   H6X18879   1.040   5.870   7.423 -0.0954 -0.4658  0.7370
  167SAPE   H6Y18880   0.946   6.019   7.392 -0.2180 -2.1249 -1.3049
  167SAPE   C3718881   1.067   6.028   7.560  0.0646 -0.0020 -0.8546
  167SAPE   H7X18882   1.040   6.136   7.563  0.1388  0.0086 -0.5492
  167SAPE   H7Y18883   1.173   6.021   7.594 -0.0657 -1.2326 -0.6925
  167SAPE   C3818884   0.980   5.959   7.670 -0.2986 -0.4843  0.0706
  167SAPE   H8X18885   1.016   5.855   7.683  1.0075  0.1998  2.1224
  167SAPE   H8Y18886   0.877   5.955   7.629  0.1178 -1.9407 -0.8486
  167SAPE   C3918887   0.997   6.026   7.810  0.6059 -0.9323 -0.2334
  167SAPE   H9X18888   0.974   6.134   7.800  1.1645 -0.7595  0.2877
  167SAPE   H9Y18889   1.100   6.023   7.852  0.9236 -2.3081 -1.1104
  167SAPE  C31018890   0.899   5.963   7.908  0.0586  0.4351 -0.4891
  167SAPE  H10X18891   0.917   5.855   7.930 -1.2266  0.1427 -0.8626
  167SAPE  H10Y18892   0.797   5.973   7.865  0.9852 -1.8307 -3.3920
  167SAPE  C31118893   0.885   6.046   8.038 -0.0368  0.3457 -0.6446
  167SAPE  H11X18894   0.809   5.988   8.094  2.0055 -1.0977  0.7142
  167SAPE  H11Y18895   0.858   6.150   8.011  1.5869  1.3764  1.4840
  167SAPE  C31218896   1.018   6.060   8.122  0.1518 -0.6290 -0.1734
  167SAPE  H12X18897   1.090   6.138   8.090  0.0182 -0.2216  0.5003
  167SAPE  H12Y18898   1.073   5.964   8.131 -0.1150 -0.8905 -1.2553
  167SAPE  C31318899   0.969   6.102   8.265  0.7351  0.2107 -0.0446
  167SAPE  H13X18900   0.883   6.037   8.291  1.5240 -0.9082 -0.2034
  167SAPE  H13Y18901   0.925   6.203   8.251 -2.0072 -1.0241 -0.6473
  167SAPE  C31418902   1.082   6.091   8.370 -1.0356  0.1142  0.1236
  167SAPE  H14X18903   1.168   6.161   8.358 -1.2475  0.5070  0.8736
  167SAPE  H14Y18904   1.132   5.995   8.345 -1.3020  0.0492 -0.1775
  167SAPE  C31518905   1.024   6.102   8.506  0.1552 -0.4370 -0.1142
  167SAPE  H15X18906   1.098   6.076   8.585 -1.8806  0.0170  2.0100
  167SAPE  H15Y18907   0.941   6.031   8.526  1.3377 -1.0490  2.9219
  167SAPE  C31618908   1.004   6.253   8.543  0.0332 -0.1665 -0.5521
  167SAPE  H16X18909   1.039   6.317   8.459 -0.7779  0.5495 -0.3571
  167SAPE  H16Y18910   1.068   6.270   8.633  0.6030 -0.8041 -0.8320
  167SAPE  C31718911   0.852   6.295   8.565  0.1715 -0.0125 -0.2306
  167SAPE  H17X18912   0.821   6.256   8.664  1.4669  2.3638  1.1595
  167SAPE  H17Y18913   0.790   6.240   8.491  2.2433 -2.1660 -0.4169
  167SAPE  C31818914   0.812   6.442   8.548  0.3833  0.7410 -0.0767
  167SAPE  H18X18915   0.704   6.446   8.571  0.3377 -0.0248 -0.1489
  167SAPE  H18Y18916   0.827   6.471   8.442 -0.1165  1.1213 -0.0430
  167SAPE  H18Z18917   0.872   6.502   8.619 -2.6920  1.8359  1.6895
  168SAPE     N18918   3.076   1.479   6.490 -0.1676  0.0789  0.3364
  168SAPE   HN118919   3.169   1.522   6.507  0.1690  0.1252 -1.5036
  168SAPE   HN218920   3.092   1.376   6.489 -3.0236 -0.4097 -1.1232
  168SAPE   HN318921   3.036   1.503   6.397 -0.7393  3.1630  1.3253
  168SAPE   C1218922   2.968   1.508   6.597 -0.4916  0.2879  0.1151
  168SAPE  H12A18923   2.963   1.617   6.620  2.8474  0.6555 -0.6004
  168SAPE  H12B18924   3.008   1.465   6.692 -0.4977 -0.4546 -0.2177
  168SAPE   C1118925   2.833   1.463   6.550  0.8640 -0.2830  0.0867
  168SAPE  H11A18926   2.761   1.460   6.635  0.9221 -0.9424  0.1213
  168SAPE  H11B18927   2.822   1.355   6.523  1.8453  0.2864 -2.7032
  168SAPE     P18928   2.639   1.577   6.412 -0.3199  0.4670 -0.6376
  168SAPE   O1318929   2.627   1.672   6.303  0.2496 -0.1996  0.2194
  168SAPE   O1418930   2.568   1.449   6.393 -0.0431 -0.2604  0.1458
  168SAPE   O1218931   2.791   1.546   6.443  0.3195 -0.2800 -0.0227
  168SAPE   O1118932   2.573   1.651   6.543 -0.0546 -0.2583 -0.3116
  168SAPE    C118933   2.625   1.776   6.589  0.5064  0.1829  0.6064
  168SAPE    HA18934   2.703   1.819   6.522  1.5646 -0.8626  1.1489
  168SAPE    HB18935   2.544   1.848   6.610 -0.1060 -0.5995  0.9644
  168SAPE    C218936   2.689   1.761   6.731 -0.9024  0.0783  0.5931
  168SAPE    HS18937   2.796   1.734   6.720 -0.7019 -0.2221  3.1409
  168SAPE   O2118938   2.622   1.650   6.792 -0.9031  0.5919 -0.0860
  168SAPE   C2118939   2.690   1.566   6.870  0.2867  0.6928  0.1548
  168SAPE   O2218940   2.808   1.577   6.894 -0.1737  0.2643  0.7871
  168SAPE   C2218941   2.594   1.457   6.921  0.1632  0.0973 -0.1928
  168SAPE   H2R18942   2.528   1.507   6.995 -1.3219  0.0878 -1.4813
  168SAPE   H2S18943   2.539   1.422   6.831 -0.6305  3.1837 -1.0018
  168SAPE    C318944   2.689   1.890   6.808 -0.5599  0.1385 -0.7065
  168SAPE    HX18945   2.582   1.917   6.820 -0.1324  1.5229 -0.0181
  168SAPE    HY18946   2.733   1.969   6.743  0.3671  1.8192  1.8718
  168SAPE   O3118947   2.758   1.863   6.936  0.2084  0.3358 -0.6363
  168SAPE   C3118948   2.708   1.921   7.048 -0.1842  1.0331 -0.0744
  168SAPE   O3218949   2.619   2.007   7.050  0.5945 -0.0501  0.2226
  168SAPE   C3218950   2.785   1.871   7.173  0.2634  0.5756 -0.3715
  168SAPE   H2X18951   2.842   1.962   7.203 -0.8395  1.2242 -0.1991
  168SAPE   H2Y18952   2.861   1.794   7.151 -0.4414 -0.2918  0.2176
  168SAPE   C2318953   2.671   1.345   6.996  0.1806  0.1338 -0.0545
  168SAPE   H3R18954   2.756   1.386   7.054  0.1057  0.3536 -0.0991
  168SAPE   H3S18955   2.726   1.294   6.914 -1.8711 -2.8143  0.3202
  168SAPE   C2418956   2.592   1.252   7.083 -0.5706  0.4452  0.0321
  168SAPE   H4R18957   2.494   1.235   7.034 -0.2696  0.4348 -0.5670
  168SAPE   H4S18958   2.565   1.295   7.182 -1.7662  0.8662 -0.4648
  168SAPE   C2518959   2.665   1.123   7.106  0.6512 -0.2778  0.4832
  168SAPE   H5R18960   2.654   1.053   7.022 -0.0919 -0.4741  0.7393
  168SAPE   C2618961   2.733   1.087   7.215  0.1635 -0.9504 -0.1464
  168SAPE   H6R18962   2.794   0.995   7.216  0.7931 -0.5530 -1.0210
  168SAPE   C2718963   2.748   1.180   7.330  0.0364  0.0212 -0.9803
  168SAPE   H7R18964   2.646   1.200   7.370 -0.7635  0.9175 -3.3679
  168SAPE   H7S18965   2.790   1.278   7.300 -2.4463  1.0852 -1.1777
  168SAPE   C2818966   2.837   1.129   7.437 -0.0994  0.6063  0.0799
  168SAPE   H8R18967   2.933   1.088   7.403 -1.5384 -2.7301 -0.1742
  168SAPE   C2918968   2.812   1.107   7.565 -0.3912 -0.4323 -0.1608
  168SAPE   H9R18969   2.900   1.085   7.627 -0.7384 -0.4972  0.3144
  168SAPE  C21018970   2.689   1.135   7.636  0.7009 -0.2660 -0.5417
  168SAPE  H10R18971   2.616   1.070   7.584 -0.8345  1.8644 -1.1247
  168SAPE  H10S18972   2.652   1.236   7.609  0.8061  0.2979  1.3052
  168SAPE  C21118973   2.674   1.112   7.787 -1.0399 -0.3324  0.1475
  168SAPE  H11R18974   2.768   1.135   7.839 -0.8692  3.3679 -1.6415
  168SAPE  C21218975   2.571   1.063   7.862  0.8283  0.3573 -0.1991
  168SAPE  H12R18976   2.587   1.045   7.969 -0.1635  0.7106  0.0166
  168SAPE  C21318977   2.432   1.030   7.802  0.1937  0.1236  0.1552
  168SAPE  H13R18978   2.417   1.089   7.709  3.2031  0.9527  0.1354
  168SAPE  H13S18979   2.353   1.068   7.869 -0.7240 -0.6246 -0.4854
  168SAPE  C21418980   2.406   0.890   7.781  0.3477 -0.0007  0.0883
  168SAPE  H14R18981   2.459   0.851   7.692  0.7884  0.9956 -0.0844
  168SAPE  C21518982   2.315   0.810   7.844 -0.4677 -0.3252  0.8523
  168SAPE  H15R18983   2.306   0.705   7.812  0.3076 -0.0073 -0.4270
  168SAPE  C21618984   2.216   0.839   7.950 -0.3093 -0.8236 -0.4405
  168SAPE  H16R18985   2.193   0.947   7.936 -0.3603 -0.7962 -0.1421
  168SAPE  H16S18986   2.261   0.813   8.048  0.9335 -1.5016 -1.1812
  168SAPE  C21718987   2.080   0.759   7.936 -0.1544 -0.5537 -0.3460
  168SAPE  H17R18988   2.105   0.651   7.924  2.0269  0.1860 -3.0673
  168SAPE  H17S18989   2.023   0.794   7.847 -0.1582 -1.8651 -0.8694
  168SAPE  C21818990   2.000   0.785   8.066  0.4482  0.3176 -0.3945
  168SAPE  H18R18991   1.961   0.889   8.072 -0.2381  0.1789 -2.1241
  168SAPE  H18S18992   2.055   0.753   8.157 -0.9076  3.8987  1.8069
  168SAPE  C21918993   1.871   0.696   8.064  0.3539  0.9726  0.0256
  168SAPE  H19R18994   1.908   0.591   8.053 -1.1344  0.6179 -1.8295
  168SAPE  H19S18995   1.819   0.706   7.967 -0.0865 -0.4719  0.0984
  168SAPE  C22018996   1.766   0.711   8.172 -0.0299  0.2543 -0.6575
  168SAPE  H20R18997   1.826   0.701   8.265 -1.1259 -0.4759 -0.0325
  168SAPE  H20S18998   1.684   0.637   8.160 -0.1646  0.5843 -1.9085
  168SAPE  H20T18999   1.737   0.817   8.158 -1.3577  0.0748  0.7198
  168SAPE   C3319000   2.688   1.830   7.287 -0.2278  0.6348 -0.4912
  168SAPE   H3X19001   2.617   1.751   7.254  0.6269 -0.8251  1.0821
  168SAPE   H3Y19002   2.637   1.921   7.327  0.1550  1.0245 -0.8933
  168SAPE   C3419003   2.765   1.767   7.403  0.7003 -0.1494 -0.2583
  168SAPE   H4X19004   2.848   1.837   7.430 -0.4325  0.9000  0.5676
  168SAPE   H4Y19005   2.811   1.668   7.380 -0.5247 -1.3127  2.1618
  168SAPE   C3519006   2.673   1.747   7.518 -0.3926  0.3865 -0.1093
  168SAPE   H5X19007   2.599   1.666   7.499 -0.5669  0.5136  0.0251
  168SAPE   H5Y19008   2.613   1.838   7.538 -1.0252 -0.3835  1.6431
  168SAPE   C3619009   2.739   1.698   7.653  0.5785 -0.8375  0.0751
  168SAPE   H6X19010   2.772   1.786   7.712 -0.0650 -0.4561 -0.1401
  168SAPE   H6Y19011   2.830   1.638   7.628  1.1759 -1.1292  2.7118
  168SAPE   C3719012   2.634   1.633   7.747 -0.3995 -0.2393  0.8755
  168SAPE   H7X19013   2.584   1.545   7.701  3.2084 -1.0436 -1.7579
  168SAPE   H7Y19014   2.553   1.706   7.766 -1.2771 -1.1761  0.7724
  168SAPE   C3819015   2.688   1.616   7.887  0.3525 -0.1397 -0.1749
  168SAPE   H8X19016   2.599   1.569   7.934 -0.3994  1.4567  0.0249
  168SAPE   H8Y19017   2.700   1.711   7.942  0.6197  0.1136 -0.6701
  168SAPE   C3919018   2.819   1.531   7.902 -0.1015 -0.4303 -0.0632
  168SAPE   H9X19019   2.905   1.588   7.861 -0.8202 -0.2941 -1.3985
  168SAPE   H9Y19020   2.809   1.439   7.840 -2.0707  0.2997 -0.8566
  168SAPE  C31019021   2.860   1.503   8.049  0.1294 -0.4211  0.5011
  168SAPE  H10X19022   2.947   1.435   8.062  0.7204  0.6500  2.4086
  168SAPE  H10Y19023   2.781   1.442   8.097 -0.4086 -1.1522 -1.2629
  168SAPE  C31119024   2.889   1.630   8.127 -0.5900 -0.0521 -0.0959
  168SAPE  H11X19025   2.800   1.695   8.134  0.5185  1.4673  0.1198
  168SAPE  H11Y19026   2.961   1.705   8.087 -0.3254  1.0585  2.3691
  168SAPE  C31219027   2.940   1.591   8.267  0.5403  0.5821  0.7241
  168SAPE  H12X19028   3.051   1.593   8.259  0.4763  1.1532 -0.1525
  168SAPE  H12Y19029   2.897   1.495   8.301 -0.9251  1.8330  2.4696
  168SAPE  C31319030   2.912   1.696   8.378  0.0123 -0.2445 -0.2109
  168SAPE  H13X19031   2.942   1.646   8.473 -0.6903 -1.1555 -0.4591
  168SAPE  H13Y19032   2.803   1.711   8.390  0.4086  1.0615  2.0192
  168SAPE  C31419033   3.004   1.818   8.357  0.2182 -0.8402  0.7575
  168SAPE  H14X19034   2.946   1.894   8.301  0.5970 -0.5782  0.7183
  168SAPE  H14Y19035   3.091   1.804   8.290 -0.9663 -0.3021 -0.9105
  168SAPE  C31519036   3.037   1.884   8.493  0.1878 -0.3151  0.0777
  168SAPE  H15X19037   3.084   1.793   8.536  0.0764 -0.1443  0.5615
  168SAPE  H15Y19038   2.941   1.909   8.543  1.0433  1.1466  0.9976
  168SAPE  C31619039   3.131   2.000   8.478  0.2849 -0.2589  0.7634
  168SAPE  H16X19040   3.059   2.078   8.444  0.5834  0.4501  1.7379
  168SAPE  H16Y19041   3.216   1.985   8.408  0.1944  2.4607  0.0178
  168SAPE  C31719042   3.187   2.049   8.613 -0.2618  0.0767 -0.2599
  168SAPE  H17X19043   3.274   1.984   8.638 -0.5849 -0.6211 -0.8972
  168SAPE  H17Y19044   3.111   2.030   8.693  1.3579 -1.3088  0.9783
  168SAPE  C31819045   3.230   2.201   8.609 -0.4591 -0.2579 -0.2817
  168SAPE  H18X19046   3.157   2.264   8.553 -1.5012 -0.7850  0.4658
  168SAPE  H18Y19047   3.331   2.209   8.563  0.5739  0.5998  2.0621
  168SAPE  H18Z19048   3.254   2.242   8.709 -0.8189 -0.9227  0.0786
  169SAPE     N19049   1.777   3.184   6.082 -0.8377 -0.1109 -0.1577
  169SAPE   HN119050   1.822   3.223   5.996  0.6518  1.4917  1.3214
  169SAPE   HN219051   1.823   3.237   6.158  0.0447  1.3283 -1.6547
  169SAPE   HN319052   1.820   3.089   6.089  2.7882  1.5542  1.2464
  169SAPE   C1219053   1.627   3.184   6.082 -0.3703  0.2526  0.2580
  169SAPE  H12A19054   1.586   3.133   5.991 -1.6803  0.3885  0.7557
  169SAPE  H12B19055   1.604   3.293   6.082  3.9951  1.2651  1.8208
  169SAPE   C1119056   1.567   3.133   6.207  0.1496 -0.0950 -0.5123
  169SAPE  H11A19057   1.458   3.158   6.213 -0.0227 -1.1279  1.0081
  169SAPE  H11B19058   1.608   3.192   6.292  0.3048 -0.0919 -0.5902
  169SAPE     P19059   1.661   2.923   6.344  0.2554 -0.4173 -0.2121
  169SAPE   O1319060   1.647   2.778   6.316  0.0695 -0.0987 -0.3089
  169SAPE   O1419061   1.793   2.983   6.370 -0.2620 -0.3090 -0.0993
  169SAPE   O1219062   1.588   2.998   6.223 -0.2540  0.5664 -0.0529
  169SAPE   O1119063   1.556   2.949   6.465  0.5091  0.0721  0.5773
  169SAPE    C119064   1.436   2.880   6.485  0.6021  0.0841 -0.0815
  169SAPE    HA19065   1.345   2.941   6.465 -0.0623 -1.4313 -1.8332
  169SAPE    HB19066   1.430   2.794   6.415 -0.3724  0.2371 -0.1862
  169SAPE    C219067   1.420   2.817   6.630  0.1908  0.0458  0.2121
  169SAPE    HS19068   1.328   2.755   6.625 -0.0865  0.5121 -0.5383
  169SAPE   O2119069   1.421   2.912   6.735 -0.5741 -0.3890 -0.0429
  169SAPE   C2119070   1.327   2.999   6.737  0.0576  0.0581 -0.1820
  169SAPE   O2219071   1.225   2.992   6.672 -0.3257 -0.4640  0.2639
  169SAPE   C2219072   1.357   3.105   6.843 -0.2728  0.1674  0.1589
  169SAPE   H2R19073   1.355   3.206   6.798 -1.3124 -1.2056 -3.0208
  169SAPE   H2S19074   1.273   3.092   6.915 -1.3653 -1.2731 -1.3355
  169SAPE    C319075   1.537   2.726   6.668 -0.3590  0.3064  0.2477
  169SAPE    HX19076   1.632   2.781   6.654  0.2950 -1.3011 -1.9654
  169SAPE    HY19077   1.534   2.640   6.597  2.5993  0.6184 -0.3462
  169SAPE   O3119078   1.528   2.670   6.806  0.1015 -0.6023 -0.5992
  169SAPE   C3119079   1.636   2.666   6.878  0.0403  0.3445  0.0520
  169SAPE   O3219080   1.750   2.708   6.848 -0.1275  0.2143  0.0498
  169SAPE   C3219081   1.586   2.620   7.013  0.0414  0.2189 -0.3075
  169SAPE   H2X19082   1.583   2.509   7.010  0.1094  0.2512 -2.3616
  169SAPE   H2Y19083   1.484   2.662   7.030  0.3605  0.8326  0.1130
  169SAPE   C2319084   1.498   3.080   6.919 -0.0001  0.4793 -0.0261
  169SAPE   H3R19085   1.590   3.095   6.857  1.4129  0.1891  1.9598
  169SAPE   H3S19086   1.496   2.979   6.964 -0.7610  1.4857  2.2554
  169SAPE   C2419087   1.511   3.190   7.040  0.6244 -0.2518  0.0563
  169SAPE   H4R19088   1.421   3.178   7.103 -1.2783 -0.9367 -2.7079
  169SAPE   H4S19089   1.499   3.287   6.988 -1.4391 -1.1006 -1.0975
  169SAPE   C2519090   1.644   3.173   7.118  0.2045  0.0957 -0.1101
  169SAPE   H5R19091   1.734   3.165   7.055  0.9059 -0.8945  0.9954
  169SAPE   C2619092   1.655   3.161   7.254 -0.3409 -0.5527 -0.1452
  169SAPE   H6R19093   1.754   3.133   7.294 -0.4499 -0.0454  0.4818
  169SAPE   C2719094   1.541   3.183   7.351  0.0305  0.2294 -0.0342
  169SAPE   H7R19095   1.453   3.227   7.300  0.4759 -1.7384 -2.6103
  169SAPE   H7S19096   1.587   3.260   7.417 -1.5117  2.6450 -1.7337
  169SAPE   C2819097   1.497   3.063   7.433  0.2706  0.1299 -0.4530
  169SAPE   H8R19098   1.448   2.984   7.374  3.4707 -0.7701 -2.0552
  169SAPE   C2919099   1.515   3.039   7.563 -0.3922 -0.3515  0.2367
  169SAPE   H9R19100   1.464   2.949   7.600  1.3894 -1.4914 -0.0576
  169SAPE  C21019101   1.570   3.134   7.667 -0.1994  0.1897  0.1314
  169SAPE  H10R19102   1.505   3.109   7.753 -1.4516 -1.6845 -1.3064
  169SAPE  H10S19103   1.525   3.229   7.632 -0.2332 -0.3905 -1.4409
  169SAPE  C21119104   1.723   3.147   7.683 -0.7616 -0.7433  0.3576
  169SAPE  H11R19105   1.775   3.143   7.586 -2.5040 -1.2489 -0.5794
  169SAPE  C21219106   1.782   3.166   7.804 -0.7132  0.1553 -0.0087
  169SAPE  H12R19107   1.891   3.175   7.807 -0.6100 -1.0968  0.4860
  169SAPE  C21319108   1.723   3.166   7.943  0.0419 -0.1210 -0.7939
  169SAPE  H13R19109   1.664   3.260   7.954 -0.2645 -0.4015  0.0255
  169SAPE  H13S19110   1.808   3.181   8.013 -0.1615  1.3410 -0.8441
  169SAPE  C21419111   1.637   3.051   7.991 -0.1591 -0.1653 -0.2197
  169SAPE  H14R19112   1.617   2.978   7.911  0.7873 -1.1971  0.4731
  169SAPE  C21519113   1.588   3.037   8.117  0.6631 -0.1843  0.3770
  169SAPE  H15R19114   1.521   2.952   8.136  1.6176 -0.6376  1.7802
  169SAPE  C21619115   1.602   3.137   8.227  0.0399 -0.0433 -0.3752
  169SAPE  H16R19116   1.567   3.235   8.187  0.3890  0.7435  1.2258
  169SAPE  H16S19117   1.708   3.148   8.260 -0.2237  2.1789 -0.1607
  169SAPE  C21719118   1.511   3.111   8.352 -0.0007 -0.5744  0.2622
  169SAPE  H17R19119   1.536   3.011   8.393 -0.1257 -0.0403  1.6598
  169SAPE  H17S19120   1.406   3.103   8.315  0.3687  0.5542 -1.0722
  169SAPE  C21819121   1.528   3.222   8.455 -0.1103  0.0508  0.3940
  169SAPE  H18R19122   1.523   3.320   8.402 -0.5686 -0.7467 -1.0403
  169SAPE  H18S19123   1.625   3.211   8.509  0.0457  2.9767  0.7937
  169SAPE  C21919124   1.428   3.212   8.570 -0.2116 -0.1915 -0.0260
  169SAPE  H19R19125   1.462   3.272   8.657 -1.3246  4.8619 -2.8532
  169SAPE  H19S19126   1.438   3.106   8.602 -0.8327  0.3949  2.1880
  169SAPE  C22019127   1.285   3.248   8.530  0.0492  0.1799  0.1714
  169SAPE  H20R19128   1.233   3.168   8.472  0.6001 -1.3423  1.7419
  169SAPE  H20S19129   1.286   3.337   8.464  1.4537  2.0527  2.6615
  169SAPE  H20T19130   1.226   3.259   8.624 -1.2802 -1.7781 -0.3995
  169SAPE   C3319131   1.675   2.662   7.135 -0.1202  0.5456 -0.2316
  169SAPE   H3X19132   1.703   2.769   7.129  1.4367  0.2009  0.6414
  169SAPE   H3Y19133   1.770   2.605   7.133 -0.4748 -0.0663  0.0320
  169SAPE   C3419134   1.607   2.624   7.264 -0.3291  0.6403  0.3098
  169SAPE   H4X19135   1.619   2.514   7.280  0.5487  0.9574  1.9051
  169SAPE   H4Y19136   1.499   2.650   7.264 -0.2869  0.8110 -0.3232
  169SAPE   C3519137   1.672   2.692   7.385  0.0445  0.1264 -0.3048
  169SAPE   H5X19138   1.662   2.802   7.386  0.9762  0.2189  0.8321
  169SAPE   H5Y19139   1.782   2.686   7.368  0.4288  1.8698  1.4585
  169SAPE   C3619140   1.620   2.649   7.518  0.2290  0.0809  0.0958
  169SAPE   H6X19141   1.625   2.538   7.524  0.6487  0.2262  3.6946
  169SAPE   H6Y19142   1.515   2.684   7.525 -0.1008 -0.6857 -0.8305
  169SAPE   C3719143   1.709   2.702   7.630 -0.1729 -0.5783  0.1213
  169SAPE   H7X19144   1.715   2.811   7.607 -0.4128 -0.9895 -2.0339
  169SAPE   H7Y19145   1.810   2.658   7.615  0.7477  1.5530 -0.2669
  169SAPE   C3819146   1.644   2.693   7.772 -0.3216 -0.3804 -0.1871
  169SAPE   H8X19147   1.540   2.730   7.766  0.4711  2.1789  1.0764
  169SAPE   H8Y19148   1.690   2.771   7.837  1.5333 -1.6602  0.0884
  169SAPE   C3919149   1.644   2.553   7.838  0.4942  0.6640 -0.4151
  169SAPE   H9X19150   1.616   2.488   7.753 -0.2153  2.1310 -1.3252
  169SAPE   H9Y19151   1.568   2.553   7.920  0.9863  2.1200  0.0689
  169SAPE  C31019152   1.770   2.508   7.910 -0.9386  0.1355  0.4780
  169SAPE  H10X19153   1.845   2.500   7.829  1.5830  0.6359  2.6843
  169SAPE  H10Y19154   1.756   2.403   7.942 -2.1011  0.7993  2.2011
  169SAPE  C31119155   1.838   2.590   8.017  0.1359 -0.0640 -0.2487
  169SAPE  H11X19156   1.854   2.693   7.980 -0.1368  0.9414  2.3138
  169SAPE  H11Y19157   1.940   2.550   8.039  0.6607  0.7044 -1.2218
  169SAPE  C31219158   1.751   2.603   8.144  0.2269  0.3667  0.3210
  169SAPE  H12X19159   1.727   2.499   8.175  1.3163 -0.0867 -0.3142
  169SAPE  H12Y19160   1.655   2.645   8.109  0.8797 -0.0103 -2.0646
  169SAPE  C31319161   1.825   2.690   8.245  0.1792  0.3948 -0.3871
  169SAPE  H13X19162   1.849   2.792   8.210  0.4400  0.1972 -0.7876
  169SAPE  H13Y19163   1.923   2.644   8.271 -0.9294  0.2576  4.0055
  169SAPE  C31419164   1.729   2.707   8.362 -0.3419  0.3057  0.2082
  169SAPE  H14X19165   1.685   2.612   8.400  0.5837  0.5859  2.0400
  169SAPE  H14Y19166   1.649   2.782   8.342  0.0454  0.6528 -0.0267
  169SAPE  C31519167   1.810   2.757   8.481 -0.4799  0.1660  0.0096
  169SAPE  H15X19168   1.828   2.866   8.467  0.4528 -0.1245 -1.1711
  169SAPE  H15Y19169   1.908   2.706   8.469 -1.3735 -1.1287 -2.1185
  169SAPE  C31619170   1.733   2.730   8.614  0.8211 -0.2146 -0.0280
  169SAPE  H16X19171   1.727   2.620   8.632 -0.1395  0.1279  1.7888
  169SAPE  H16Y19172   1.629   2.766   8.599  0.9205 -1.1064 -3.4815
  169SAPE  C31719173   1.800   2.787   8.738 -0.7704 -0.8551  0.1596
  169SAPE  H17X19174   1.762   2.735   8.829  1.0289  1.3339  2.2194
  169SAPE  H17Y19175   1.777   2.895   8.744  1.6113 -0.1428 -2.3027
  169SAPE  C31819176   1.958   2.772   8.750 -0.2388 -0.3171  0.2821
  169SAPE  H18X19177   2.000   2.671   8.730 -0.0793 -0.3528  0.7857
  169SAPE  H18Y19178   1.990   2.816   8.847  0.8690  1.0796 -0.6888
  169SAPE  H18Z19179   2.014   2.829   8.673 -1.1268 -0.7161 -0.6786
  170SAPE     N19180   2.685   6.696   6.320 -0.0302  0.3668  0.7156
  170SAPE   HN119181   2.658   6.596   6.307  1.0953  0.2227 -0.5274
  170SAPE   HN219182   2.788   6.705   6.309  0.0391 -1.3040 -0.1802
  170SAPE   HN319183   2.654   6.720   6.417  0.6272 -1.8167  1.5158
  170SAPE   C1219184   2.626   6.776   6.208 -0.4563  0.0666 -0.0429
  170SAPE  H12A19185   2.651   6.725   6.112 -0.4942  2.2339 -1.2345
  170SAPE  H12B19186   2.668   6.879   6.208 -0.7405  0.1885 -1.2162
  170SAPE   C1119187   2.468   6.787   6.235  0.1965 -0.1923  0.2823
  170SAPE  H11A19188   2.426   6.863   6.165 -1.2848  1.0144  2.4164
  170SAPE  H11B19189   2.454   6.837   6.333  0.9048  1.1626 -0.3010
  170SAPE     P19190   2.253   6.631   6.243 -0.3071 -0.1201  0.4860
  170SAPE   O1319191   2.186   6.640   6.110  0.2778 -0.9773  0.2837
  170SAPE   O1419192   2.251   6.499   6.309 -0.5849  0.2277 -0.0811
  170SAPE   O1219193   2.407   6.660   6.214 -0.7523  0.4833 -0.0481
  170SAPE   O1119194   2.196   6.761   6.326  0.0571 -0.5910 -0.7622
  170SAPE    C119195   2.076   6.734   6.403 -0.1369 -0.2325  0.3352
  170SAPE    HA19196   1.995   6.701   6.334 -3.3360  0.2297  3.7171
  170SAPE    HB19197   2.087   6.655   6.481  0.9704  1.2710  1.7153
  170SAPE    C219198   2.017   6.858   6.478  0.7648  0.5075  0.1663
  170SAPE    HS19199   1.988   6.928   6.396 -0.3715  1.7490  1.5958
  170SAPE   O2119200   2.122   6.912   6.564 -0.7041  0.4611 -0.7105
  170SAPE   C2119201   2.104   7.030   6.618  0.1409  0.3846  0.1901
  170SAPE   O2219202   2.002   7.096   6.599  0.1586 -0.3781 -0.0456
  170SAPE   C2219203   2.229   7.075   6.688 -0.1230  0.7074  0.0801
  170SAPE   H2R19204   2.249   7.006   6.772 -2.8044  0.9699  0.9954
  170SAPE   H2S19205   2.313   7.051   6.619 -0.2552 -2.2042  0.8647
  170SAPE    C319206   1.880   6.824   6.552  0.0363  0.1817  0.2825
  170SAPE    HX19207   1.811   6.810   6.466  0.8675 -1.0088 -0.2037
  170SAPE    HY19208   1.838   6.904   6.618  1.1972 -0.5496  1.9566
  170SAPE   O3119209   1.889   6.707   6.632 -0.2453  0.3292  0.0868
  170SAPE   C3119210   1.927   6.716   6.758  0.6091  0.3621 -0.2033
  170SAPE   O3219211   1.969   6.816   6.816  0.0052 -0.0777  0.0897
  170SAPE   C3219212   1.898   6.584   6.834  0.1430 -0.7315 -0.5380
  170SAPE   H2X19213   1.998   6.536   6.836  0.1535 -0.7680 -1.3888
  170SAPE   H2Y19214   1.839   6.512   6.773  0.3250 -2.0223  0.7811
  170SAPE   C2319215   2.215   7.209   6.751 -0.4554 -0.0742 -0.5520
  170SAPE   H3R19216   2.158   7.208   6.847 -1.5079 -3.9637 -1.1319
  170SAPE   H3S19217   2.158   7.281   6.688 -1.4942  0.2016  0.6672
  170SAPE   C2419218   2.353   7.269   6.791  0.4371 -0.4337 -0.5510
  170SAPE   H4R19219   2.411   7.282   6.697 -1.2984  1.4477 -1.3943
  170SAPE   H4S19220   2.407   7.202   6.861  2.2043  0.7242 -0.7539
  170SAPE   C2519221   2.333   7.405   6.868  0.5985 -0.5970  0.0014
  170SAPE   H5R19222   2.286   7.486   6.811  1.6257 -1.3225 -1.9391
  170SAPE   C2619223   2.388   7.423   6.989 -0.2950 -0.2982 -0.6902
  170SAPE   H6R19224   2.379   7.522   7.035  2.6301  0.1529 -1.0084
  170SAPE   C2719225   2.469   7.332   7.075 -0.3868 -0.0393  0.5636
  170SAPE   H7R19226   2.452   7.223   7.059 -0.1268  0.1944 -1.5336
  170SAPE   H7S19227   2.451   7.351   7.183  1.2773  0.9454  0.6804
  170SAPE   C2819228   2.619   7.359   7.045  0.2038  0.2241 -0.4235
  170SAPE   H8R19229   2.640   7.355   6.937 -1.6160  0.3860 -0.7930
  170SAPE   C2919230   2.718   7.367   7.131 -0.9498  0.2359  0.1143
  170SAPE   H9R19231   2.822   7.371   7.093  0.0904  0.5019  2.8869
  170SAPE  C21019232   2.719   7.349   7.276 -0.0773 -0.0726 -0.4510
  170SAPE  H10R19233   2.823   7.322   7.304  0.4182  0.3264 -1.8578
  170SAPE  H10S19234   2.662   7.256   7.298 -1.1197  0.9678  1.4426
  170SAPE  C21119235   2.658   7.456   7.364  0.0265  0.0910  0.3871
  170SAPE  H11R19236   2.552   7.478   7.343  0.0396 -0.5665 -0.4241
  170SAPE  C21219237   2.728   7.525   7.459  0.5562  1.1622  0.1384
  170SAPE  H12R19238   2.685   7.609   7.516 -1.6916  0.7014 -0.8557
  170SAPE  C21319239   2.875   7.509   7.482 -0.2110 -0.2290  0.6014
  170SAPE  H13R19240   2.919   7.604   7.519  1.4418 -0.9246  0.4655
  170SAPE  H13S19241   2.916   7.494   7.380  0.0992  2.5739  0.2829
  170SAPE  C21419242   2.912   7.389   7.571 -0.2583 -0.6456  0.6336
  170SAPE  H14R19243   2.843   7.304   7.562 -1.2861  0.1208  1.2060
  170SAPE  C21519244   3.019   7.373   7.652 -1.2515  0.3616  0.4091
  170SAPE  H15R19245   3.021   7.282   7.714 -2.2768  0.3331  0.4130
  170SAPE  C21619246   3.136   7.469   7.679 -0.2720  0.4347 -0.3187
  170SAPE  H16R19247   3.107   7.561   7.624 -0.3662  0.1514 -0.7410
  170SAPE  H16S19248   3.232   7.424   7.644  0.0846  0.8819  0.0679
  170SAPE  C21719249   3.159   7.505   7.830 -0.1841  0.3990 -1.1314
  170SAPE  H17R19250   3.193   7.412   7.881 -0.0558  0.3254 -1.3518
  170SAPE  H17S19251   3.062   7.542   7.868 -0.6444 -1.1212 -0.8197
  170SAPE  C21819252   3.254   7.618   7.863  0.1089  0.0459 -0.3599
  170SAPE  H18R19253   3.249   7.633   7.972  1.9732 -0.1646 -0.2165
  170SAPE  H18S19254   3.219   7.706   7.805  1.2647  1.0190  0.3830
  170SAPE  C21919255   3.401   7.599   7.815 -0.6892 -0.3042 -0.2258
  170SAPE  H19R19256   3.439   7.703   7.809 -0.3132 -0.5618 -2.9818
  170SAPE  H19S19257   3.403   7.561   7.711 -1.2604 -2.1677  0.4221
  170SAPE  C22019258   3.483   7.514   7.916  0.0832  0.4353 -0.3653
  170SAPE  H20R19259   3.502   7.583   8.001  1.1022 -0.4328  0.1325
  170SAPE  H20S19260   3.579   7.489   7.866  0.3348 -1.3589  0.9544
  170SAPE  H20T19261   3.418   7.427   7.940  1.2002 -0.3711 -0.2170
  170SAPE   C3319262   1.850   6.614   6.977  0.4488 -0.4270  0.3228
  170SAPE   H3X19263   1.748   6.657   6.966 -0.2096 -2.1214 -0.3914
  170SAPE   H3Y19264   1.917   6.688   7.026 -2.5806  3.3206 -0.9674
  170SAPE   C3419265   1.863   6.495   7.067  0.5961  0.2905  0.0071
  170SAPE   H4X19266   1.970   6.468   7.053  0.2289 -2.3131  1.8557
  170SAPE   H4Y19267   1.798   6.413   7.031  1.9660  0.1258 -2.2539
  170SAPE   C3519268   1.839   6.537   7.214  0.4530  0.5307  0.2132
  170SAPE   H5X19269   1.926   6.597   7.248 -0.1139  2.2980 -1.3327
  170SAPE   H5Y19270   1.836   6.447   7.278  1.1201 -1.0040 -1.8764
  170SAPE   C3619271   1.702   6.599   7.243 -0.0115  0.4094 -0.4877
  170SAPE   H6X19272   1.617   6.538   7.204  1.5414 -3.7844  2.4084
  170SAPE   H6Y19273   1.706   6.696   7.188  1.3479 -0.1737 -1.4484
  170SAPE   C3719274   1.686   6.615   7.392  0.4535  0.2564 -0.2734
  170SAPE   H7X19275   1.692   6.522   7.453 -0.5250 -0.1023 -0.7106
  170SAPE   H7Y19276   1.582   6.644   7.416  1.0762  2.6916 -0.3456
  170SAPE   C3819277   1.781   6.715   7.461  0.6368  0.3799  0.3310
  170SAPE   H8X19278   1.811   6.785   7.380  0.8641 -0.8161 -0.6321
  170SAPE   H8Y19279   1.874   6.665   7.496  1.8251  0.5258 -2.5197
  170SAPE   C3919280   1.716   6.789   7.581  0.0132  0.7414  1.2506
  170SAPE   H9X19281   1.660   6.714   7.641  2.0802 -0.6837  1.4547
  170SAPE   H9Y19282   1.648   6.870   7.548  2.1305  1.7910 -0.6551
  170SAPE  C31019283   1.814   6.856   7.678 -0.3117 -0.0333 -0.4737
  170SAPE  H10X19284   1.868   6.929   7.614 -1.7308 -0.2220 -1.9040
  170SAPE  H10Y19285   1.889   6.782   7.715 -0.5230 -1.3507 -2.6386
  170SAPE  C31119286   1.751   6.927   7.789  0.4197  0.5601 -0.1413
  170SAPE  H11X19287   1.703   6.860   7.864  0.9928  2.1259  1.6698
  170SAPE  H11Y19288   1.665   6.993   7.763 -1.2383 -2.6841 -3.2394
  170SAPE  C31219289   1.841   7.024   7.864  0.0573  0.4786 -0.0386
  170SAPE  H12X19290   1.780   7.100   7.917 -0.4337  0.0298  0.0469
  170SAPE  H12Y19291   1.905   7.067   7.784  0.1220 -0.9527 -0.7687
  170SAPE  C31319292   1.927   6.957   7.968 -0.1496 -0.1070 -0.2996
  170SAPE  H13X19293   1.951   6.857   7.926 -0.5172 -1.1924  1.9944
  170SAPE  H13Y19294   1.870   6.945   8.063 -1.1252 -0.3140 -0.9002
  170SAPE  C31419295   2.054   7.028   7.997 -0.0900 -0.2559 -0.3989
  170SAPE  H14X19296   2.033   7.132   8.031  1.8185  0.2578 -0.7493
  170SAPE  H14Y19297   2.131   7.037   7.918 -1.7141 -1.1965 -2.1362
  170SAPE  C31519298   2.128   6.964   8.114 -0.1942 -0.3034 -0.1660
  170SAPE  H15X19299   2.145   6.856   8.094  0.4468 -0.5118  1.3879
  170SAPE  H15Y19300   2.061   6.971   8.202  1.6175  0.1954  1.2131
  170SAPE  C31619301   2.266   7.033   8.151 -0.3386 -0.9963 -0.4592
  170SAPE  H16X19302   2.324   7.037   8.056 -1.0510 -0.0774 -0.8615
  170SAPE  H16Y19303   2.329   6.989   8.231 -1.8613 -1.1677  0.6702
  170SAPE  C31719304   2.251   7.179   8.189  0.1548  0.5614  0.6701
  170SAPE  H17X19305   2.193   7.179   8.284  3.0338 -1.5029  2.4814
  170SAPE  H17Y19306   2.195   7.233   8.109 -1.5596 -1.1990  0.6268
  170SAPE  C31819307   2.388   7.246   8.210  0.0345  0.8981 -0.3320
  170SAPE  H18X19308   2.442   7.264   8.115  1.7833 -0.3444  0.4155
  170SAPE  H18Y19309   2.451   7.193   8.284 -0.8566  1.0675  0.5619
  170SAPE  H18Z19310   2.363   7.346   8.252  0.9333 -0.2119  3.0438
  171SAPE     N19311   4.291   0.671   6.419  0.9074  0.3130  0.2452
  171SAPE   HN119312   4.307   0.569   6.415  2.5705  0.5755 -0.0859
  171SAPE   HN219313   4.209   0.686   6.357 -1.4222 -1.1026  2.8686
  171SAPE   HN319314   4.373   0.718   6.375  2.6846 -4.2501 -1.6812
  171SAPE   C1219315   4.252   0.727   6.552 -0.8626 -0.5588 -0.2499
  171SAPE  H12A19316   4.248   0.837   6.539 -0.3141 -0.7643 -2.3398
  171SAPE  H12B19317   4.336   0.695   6.618  0.4812  1.3244 -0.9964
  171SAPE   C1119318   4.121   0.670   6.608  1.2298  0.0648 -0.5951
  171SAPE  H11A19319   4.114   0.721   6.707 -1.3684  2.6677 -2.0282
  171SAPE  H11B19320   4.120   0.561   6.625  1.9552  0.0626 -0.5346
  171SAPE     P19321   3.870   0.737   6.558  0.2053  0.2750 -0.0911
  171SAPE   O1319322   3.786   0.786   6.444 -0.2105  0.0308 -0.1909
  171SAPE   O1419323   3.812   0.622   6.632 -0.3261 -0.4991 -1.0471
  171SAPE   O1219324   4.017   0.695   6.514  0.4296  0.7386  0.1937
  171SAPE   O1119325   3.906   0.855   6.653 -0.1896 -0.1645 -0.3956
  171SAPE    C119326   3.947   0.978   6.593  0.5749  0.4665 -0.0193
  171SAPE    HA19327   4.048   0.966   6.548  0.1104 -0.0004 -0.9372
  171SAPE    HB19328   3.886   1.016   6.508  1.3932 -1.1517 -1.3478
  171SAPE    C219329   3.952   1.093   6.698 -0.5800 -0.2066 -0.1976
  171SAPE    HS19330   4.030   1.169   6.678 -0.6997  0.6426  2.3340
  171SAPE   O2119331   3.986   1.040   6.830 -0.0748 -0.2119  1.0268
  171SAPE   C2119332   4.106   0.989   6.843 -0.2455 -0.2388  0.0459
  171SAPE   O2219333   4.194   0.983   6.758 -0.1437  0.5081 -0.5865
  171SAPE   C2219334   4.109   0.927   6.988 -0.4357 -0.3418 -0.6990
  171SAPE   H2R19335   4.112   1.013   7.059 -1.6468 -0.2236 -0.7783
  171SAPE   H2S19336   4.014   0.872   6.999  0.4394 -1.6751  0.3901
  171SAPE    C319337   3.820   1.171   6.701  0.4455 -0.0976 -0.0690
  171SAPE    HX19338   3.740   1.096   6.720  0.9823 -1.0550 -1.4189
  171SAPE    HY19339   3.798   1.213   6.600  0.0958 -1.3707 -0.5354
  171SAPE   O3119340   3.822   1.283   6.791 -0.0542  0.7112  0.3533
  171SAPE   C3119341   3.724   1.301   6.882  0.6052  0.4762 -0.2289
  171SAPE   O3219342   3.635   1.222   6.911  0.0168  0.2748  0.4999
  171SAPE   C3219343   3.735   1.442   6.942  0.3644  0.1560  0.8569
  171SAPE   H2X19344   3.631   1.479   6.943  0.2581 -0.1464  2.0488
  171SAPE   H2Y19345   3.798   1.511   6.882  2.3883  0.2973  3.0405
  171SAPE   C2319346   4.233   0.831   7.010  0.0974 -0.4464 -0.6814
  171SAPE   H3R19347   4.323   0.897   7.002 -0.1985  0.2227  1.2434
  171SAPE   H3S19348   4.237   0.747   6.938  3.7084 -0.4325 -0.6159
  171SAPE   C2419349   4.236   0.771   7.155  0.6135 -0.5668  0.6835
  171SAPE   H4R19350   4.321   0.699   7.151  1.3606  0.4229 -3.4644
  171SAPE   H4S19351   4.147   0.708   7.177  1.3431 -1.2475  1.7077
  171SAPE   C2519352   4.266   0.874   7.259 -0.4954  0.1094 -0.0919
  171SAPE   H5R19353   4.224   0.973   7.237  2.5694  1.1167 -1.7978
  171SAPE   C2619354   4.351   0.855   7.363  0.6121 -0.1736  0.1096
  171SAPE   H6R19355   4.359   0.944   7.428 -0.5044  0.9654 -1.2656
  171SAPE   C2719356   4.422   0.730   7.405  0.4028  0.2159 -0.3609
  171SAPE   H7R19357   4.480   0.757   7.496  1.3326  0.9962 -1.1604
  171SAPE   H7S19358   4.505   0.694   7.339  0.0959 -0.9286 -0.1206
  171SAPE   C2819359   4.341   0.608   7.431  0.2305 -0.5723  0.7077
  171SAPE   H8R19360   4.309   0.552   7.342  1.8063  0.0871 -0.2881
  171SAPE   C2919361   4.318   0.556   7.560  0.7244 -0.3555 -0.1813
  171SAPE   H9R19362   4.259   0.464   7.561  2.3417 -1.4564 -2.3049
  171SAPE  C21019363   4.363   0.610   7.686 -0.1128  0.0080  0.4353
  171SAPE  H10R19364   4.330   0.712   7.716  2.3161  1.5833 -2.0554
  171SAPE  H10S19365   4.469   0.637   7.671 -0.0811 -0.0028  0.6331
  171SAPE  C21119366   4.347   0.515   7.805 -0.4408 -0.1444  0.0201
  171SAPE  H11R19367   4.435   0.456   7.832 -0.6040 -0.9129 -1.0721
  171SAPE  C21219368   4.235   0.500   7.882  0.8371  0.0656  0.7237
  171SAPE  H12R19369   4.234   0.432   7.968 -0.7248 -0.8636 -0.0352
  171SAPE  C21319370   4.103   0.569   7.860 -0.0436  0.2463 -0.0432
  171SAPE  H13R19371   4.106   0.660   7.797 -0.6573  0.9171  0.8699
  171SAPE  H13S19372   4.072   0.625   7.951  0.0846  1.1218 -0.5338
  171SAPE  C21419373   3.998   0.464   7.821 -0.1379  0.2842 -0.2954
  171SAPE  H14R19374   4.015   0.415   7.723 -0.6568 -1.4156  0.4337
  171SAPE  C21519375   3.887   0.431   7.885 -0.1696 -0.0966  0.4702
  171SAPE  H15R19376   3.809   0.376   7.831 -1.1514 -1.9842  3.6873
  171SAPE  C21619377   3.835   0.494   8.012 -0.4440  0.4561  0.5055
  171SAPE  H16R19378   3.728   0.520   7.997 -0.5152 -0.3512 -0.3712
  171SAPE  H16S19379   3.883   0.593   8.029  0.1076  0.4113 -0.7090
  171SAPE  C21719380   3.864   0.414   8.143 -0.5042  0.4404  0.6165
  171SAPE  H17R19381   3.797   0.325   8.146  1.5669 -1.1432  0.7797
  171SAPE  H17S19382   3.839   0.479   8.229  0.0621  0.4551  0.7723
  171SAPE  C21819383   4.010   0.368   8.169 -0.3674  0.0833  0.2334
  171SAPE  H18R19384   4.074   0.455   8.147 -0.6157  0.7637  2.0690
  171SAPE  H18S19385   4.038   0.276   8.114  0.0184 -0.2336  0.9552
  171SAPE  C21919386   4.042   0.324   8.316 -0.3771 -0.1235  0.1985
  171SAPE  H19R19387   4.147   0.288   8.316 -0.2467  0.1918  2.4310
  171SAPE  H19S19388   3.970   0.246   8.349 -0.5527  0.2407  0.6925
  171SAPE  C22019389   4.032   0.435   8.419 -1.0880 -0.1460 -0.1562
  171SAPE  H20R19390   3.934   0.485   8.433 -1.0870  0.5672 -2.4153
  171SAPE  H20S19391   4.105   0.514   8.389 -0.3680 -0.6844  0.1715
  171SAPE  H20T19392   4.080   0.402   8.514  1.3676  0.2276 -1.2146
  171SAPE   C3319393   3.804   1.440   7.079 -0.3711  0.2316 -0.2470
  171SAPE   H3X19394   3.719   1.424   7.149  0.8878 -0.7922  1.1043
  171SAPE   H3Y19395   3.841   1.539   7.112 -0.3836  0.7234 -1.6903
  171SAPE   C3419396   3.919   1.337   7.092 -0.4736 -0.0648 -0.0522
  171SAPE   H4X19397   4.017   1.374   7.054 -0.3279  0.1274  0.5006
  171SAPE   H4Y19398   3.903   1.240   7.040 -2.2285  0.4589 -0.5145
  171SAPE   C3519399   3.927   1.309   7.243 -0.1250 -0.4216  0.2363
  171SAPE   H5X19400   4.013   1.245   7.274 -0.5365 -1.4287 -0.6660
  171SAPE   H5Y19401   3.832   1.269   7.283  1.0067 -1.3600  2.0604
  171SAPE   C3619402   3.955   1.431   7.341  0.3429 -0.1863  0.8056
  171SAPE   H6X19403   3.869   1.501   7.341  0.7475  0.3157  0.9800
  171SAPE   H6Y19404   4.054   1.472   7.311 -0.1824 -0.8040 -1.8943
  171SAPE   C3719405   3.960   1.404   7.489 -0.0159  0.9394  0.1620
  171SAPE   H7X19406   4.044   1.332   7.497 -0.1421  0.6800 -0.7399
  171SAPE   H7Y19407   3.868   1.351   7.518  0.7065 -0.9896 -0.9442
  171SAPE   C3819408   3.974   1.531   7.566  0.4991  0.6562  0.1976
  171SAPE   H8X19409   3.878   1.586   7.559  0.7721  1.1101  0.0039
  171SAPE   H8Y19410   4.058   1.589   7.522 -0.4583  2.2562  0.4421
  171SAPE   C3919411   4.033   1.511   7.708 -0.3532 -0.8015 -0.0340
  171SAPE   H9X19412   4.133   1.466   7.725  0.7099  1.3348 -0.4848
  171SAPE   H9Y19413   3.965   1.445   7.765  0.7841  0.4960  2.9170
  171SAPE  C31019414   4.037   1.641   7.783  0.5044  0.1073 -0.0105
  171SAPE  H10X19415   3.956   1.708   7.746  2.0272  1.9857 -0.0219
  171SAPE  H10Y19416   4.130   1.695   7.756  0.0722  0.5290 -0.6934
  171SAPE  C31119417   4.043   1.628   7.935  0.7036 -0.1327 -0.9077
  171SAPE  H11X19418   4.127   1.570   7.980  0.6940 -0.5840 -1.4737
  171SAPE  H11Y19419   3.947   1.597   7.982  0.4663  0.8976 -0.7085
  171SAPE  C31219420   4.066   1.764   8.001  0.1763  0.3218  0.0053
  171SAPE  H12X19421   3.974   1.819   7.971 -0.5242 -0.0704  1.4188
  171SAPE  H12Y19422   4.152   1.819   7.957 -1.8517  2.1963 -1.7618
  171SAPE  C31319423   4.073   1.766   8.155 -0.4624  0.2996  0.6217
  171SAPE  H13X19424   4.161   1.708   8.188 -0.8852 -0.3247  0.6648
  171SAPE  H13Y19425   3.990   1.707   8.199  0.3231 -1.4543 -0.2067
  171SAPE  C31419426   4.059   1.901   8.220 -0.4081  0.7447 -0.1139
  171SAPE  H14X19427   3.978   1.957   8.169 -0.3616  1.6485  0.7939
  171SAPE  H14Y19428   4.147   1.967   8.207  1.1944 -1.2529  0.1745
  171SAPE  C31519429   4.039   1.901   8.370 -0.2868 -1.3972 -0.3750
  171SAPE  H15X19430   3.944   1.843   8.382 -0.7280 -0.2637  1.8716
  171SAPE  H15Y19431   4.028   2.002   8.413 -1.4792 -1.1867 -1.1399
  171SAPE  C31619432   4.155   1.831   8.441  0.2328 -0.0786 -0.1752
  171SAPE  H16X19433   4.244   1.898   8.443 -0.2517  0.6972 -2.5060
  171SAPE  H16Y19434   4.182   1.737   8.387  1.2869 -0.6606  1.3328
  171SAPE  C31719435   4.114   1.788   8.582 -0.3050 -0.3987  0.4077
  171SAPE  H17X19436   4.024   1.723   8.574  0.7661 -1.7640 -0.7045
  171SAPE  H17Y19437   4.096   1.882   8.638 -0.4915 -0.9504  1.2924
  171SAPE  C31819438   4.229   1.716   8.643  0.0460 -0.7216  0.0489
  171SAPE  H18X19439   4.314   1.788   8.645 -0.5787  0.0501 -0.9176
  171SAPE  H18Y19440   4.250   1.614   8.605 -3.5156 -1.4420 -0.1603
  171SAPE  H18Z19441   4.210   1.700   8.752  2.0693  0.8140  0.6676
  172SAPE     N19442   3.041   6.299   6.526 -0.0115  0.0328  0.8612
  172SAPE   HN119443   2.960   6.296   6.460  0.3973 -1.1140  0.3913
  172SAPE   HN219444   3.068   6.203   6.557  0.1938 -0.6041 -1.1963
  172SAPE   HN319445   3.013   6.357   6.607 -0.0641 -2.1648  2.4431
  172SAPE   C1219446   3.169   6.347   6.455  0.2440  0.7518  0.1889
  172SAPE  H12A19447   3.160   6.295   6.357  0.9208 -0.7216  0.8920
  172SAPE  H12B19448   3.248   6.302   6.519  3.2003  2.3117 -2.2699
  172SAPE   C1119449   3.195   6.497   6.436 -0.3395 -0.7363  0.3929
  172SAPE  H11A19450   3.291   6.510   6.380 -1.3208  0.9937 -0.9523
  172SAPE  H11B19451   3.212   6.541   6.537  0.4003 -0.9029  0.3411
  172SAPE     P19452   3.087   6.698   6.305  0.0044  0.0566  0.4613
  172SAPE   O1319453   3.154   6.697   6.173  0.1646  0.2770 -0.3711
  172SAPE   O1419454   2.944   6.751   6.309  0.9330 -0.4138 -0.0022
  172SAPE   O1219455   3.079   6.545   6.363 -0.2911 -0.2498  0.0686
  172SAPE   O1119456   3.175   6.788   6.404 -0.3238  0.2031 -0.3170
  172SAPE    C119457   3.119   6.877   6.493  0.0087 -0.0353 -0.2345
  172SAPE    HA19458   3.186   6.962   6.520 -2.3828  1.5499  0.8242
  172SAPE    HB19459   3.032   6.935   6.457  0.0117  1.4704  2.0368
  172SAPE    C219460   3.087   6.810   6.630  0.1179  0.0874 -0.9273
  172SAPE    HS19461   3.072   6.900   6.693 -2.4372  0.2069 -1.6722
  172SAPE   O2119462   3.201   6.732   6.678 -0.0343  0.1949  0.0655
  172SAPE   C2119463   3.309   6.797   6.705  0.0839 -0.1008 -0.3625
  172SAPE   O2219464   3.323   6.920   6.691 -0.6064 -0.0616 -0.1278
  172SAPE   C2219465   3.419   6.717   6.769 -0.2339 -0.1039  0.7184
  172SAPE   H2R19466   3.464   6.656   6.688 -1.0536  0.1132  0.0898
  172SAPE   H2S19467   3.498   6.789   6.800  1.2452 -1.3189 -0.1672
  172SAPE    C319468   2.967   6.717   6.640  0.2133 -0.7666 -0.6357
  172SAPE    HX19469   2.988   6.630   6.574  1.7602  0.0508 -1.2567
  172SAPE    HY19470   2.876   6.773   6.607  0.1996  0.2294  1.0051
  172SAPE   O3119471   2.941   6.681   6.780 -0.9126  0.1159  0.0482
  172SAPE   C3119472   2.966   6.557   6.818 -0.5404  0.3261 -0.2308
  172SAPE   O3219473   3.007   6.470   6.746  0.0856  0.4829 -0.0415
  172SAPE   C3219474   2.944   6.533   6.973  0.1001 -0.8112 -0.4869
  172SAPE   H2X19475   3.045   6.525   7.019  0.9009  1.2169 -1.8520
  172SAPE   H2Y19476   2.885   6.438   6.971  1.7280 -1.8366 -1.0588
  172SAPE   C2319477   3.371   6.615   6.877 -0.3453  0.6617 -0.5640
  172SAPE   H3R19478   3.307   6.542   6.824  0.4301  0.8713 -1.8111
  172SAPE   H3S19479   3.319   6.674   6.955 -1.8425  1.8661 -2.4607
  172SAPE   C2419480   3.484   6.521   6.919 -0.2941  0.6345 -0.3754
  172SAPE   H4R19481   3.549   6.507   6.830 -0.7853  1.7976 -0.9338
  172SAPE   H4S19482   3.442   6.423   6.949  0.4652  0.2488 -0.5662
  172SAPE   C2519483   3.572   6.599   7.026  1.0333  0.7823 -0.0110
  172SAPE   H5R19484   3.625   6.683   6.979  1.9699 -0.6605 -1.6149
  172SAPE   C2619485   3.587   6.546   7.147 -0.0627 -0.3122 -0.2288
  172SAPE   H6R19486   3.648   6.609   7.214 -0.4995  1.2491 -1.2877
  172SAPE   C2719487   3.546   6.406   7.190  0.1040 -0.8963  0.7420
  172SAPE   H7R19488   3.549   6.327   7.112 -0.5081 -1.5898  1.4193
  172SAPE   H7S19489   3.441   6.416   7.223  0.0981 -0.9123  0.7280
  172SAPE   C2819490   3.623   6.355   7.306 -0.1596  0.0006 -0.1171
  172SAPE   H8R19491   3.695   6.277   7.276  1.2156  0.0427  2.8649
  172SAPE   C2919492   3.616   6.390   7.437  0.4165  0.6123  0.6326
  172SAPE   H9R19493   3.671   6.328   7.509 -0.1276 -2.4987 -1.5450
  172SAPE  C21019494   3.532   6.503   7.497 -0.1707  0.2500 -0.0193
  172SAPE  H10R19495   3.467   6.569   7.435  0.4339  0.5626 -0.3195
  172SAPE  H10S19496   3.594   6.574   7.556  0.1998  0.3906 -0.5714
  172SAPE  C21119497   3.430   6.436   7.589  0.2885 -0.2031  0.9740
  172SAPE  H11R19498   3.340   6.399   7.538 -1.1399  2.4563  1.4996
  172SAPE  C21219499   3.448   6.409   7.726  0.4782  0.1841 -0.3462
  172SAPE  H12R19500   3.363   6.390   7.793 -1.1783  0.6592 -2.2558
  172SAPE  C21319501   3.571   6.448   7.802  0.5659 -0.7497  0.2730
  172SAPE  H13R19502   3.562   6.557   7.817  1.3209 -0.5384 -0.7253
  172SAPE  H13S19503   3.662   6.426   7.741  1.5073 -1.2269  1.8087
  172SAPE  C21419504   3.591   6.372   7.927 -0.0886 -0.3681 -0.3468
  172SAPE  H14R19505   3.582   6.263   7.921 -1.5650 -0.1936 -1.5270
  172SAPE  C21519506   3.630   6.429   8.044 -0.5868 -0.4719  0.5774
  172SAPE  H15R19507   3.667   6.364   8.125  0.7321  0.3259  0.6386
  172SAPE  C21619508   3.657   6.574   8.072 -0.2459 -0.0181  0.2618
  172SAPE  H16R19509   3.568   6.641   8.071  0.6761  1.2388  0.8979
  172SAPE  H16S19510   3.730   6.609   7.996  2.0911  1.1606  2.9472
  172SAPE  C21719511   3.730   6.611   8.207  0.0622 -0.4571  0.2034
  172SAPE  H17R19512   3.822   6.549   8.212  2.1385  2.6506  2.4679
  172SAPE  H17S19513   3.662   6.572   8.286 -1.6811  0.2487 -0.9082
  172SAPE  C21819514   3.750   6.764   8.227  0.6215 -0.2060 -0.2665
  172SAPE  H18R19515   3.812   6.806   8.145  0.0155  0.0427 -0.5998
  172SAPE  H18S19516   3.815   6.772   8.316  1.8024  0.6385 -1.1807
  172SAPE  C21919517   3.620   6.849   8.260 -0.3932  0.7523 -0.7813
  172SAPE  H19R19518   3.546   6.802   8.192  0.5154  0.1263 -1.3567
  172SAPE  H19S19519   3.634   6.956   8.236 -0.0065  0.4762 -1.8121
  172SAPE  C22019520   3.564   6.824   8.398 -0.3342  0.2324 -1.0456
  172SAPE  H20R19521   3.528   6.719   8.408 -1.7396  0.9460  1.8930
  172SAPE  H20S19522   3.485   6.899   8.419  1.6572  2.2401 -0.6210
  172SAPE  H20T19523   3.640   6.823   8.479 -0.2889  1.1830 -1.0782
  172SAPE   C3319524   2.862   6.648   7.043  0.5455 -0.8149 -0.0958
  172SAPE   H3X19525   2.767   6.670   6.991  0.0429 -1.6379  0.4428
  172SAPE   H3Y19526   2.921   6.741   7.032 -3.1583  1.8253  1.4127
  172SAPE   C3419527   2.831   6.614   7.191 -0.4215 -0.4134  0.1486
  172SAPE   H4X19528   2.784   6.513   7.187 -1.8092  0.2544 -1.1768
  172SAPE   H4Y19529   2.748   6.680   7.224  1.9472  2.3883  0.6401
  172SAPE   C3519530   2.947   6.620   7.289  0.0636  0.5050 -0.3941
  172SAPE   H5X19531   2.970   6.727   7.310  0.3678  0.4685 -0.5513
  172SAPE   H5Y19532   3.036   6.576   7.239  0.0126 -0.8851  0.7115
  172SAPE   C3619533   2.916   6.542   7.419  0.9422  0.0289  0.0797
  172SAPE   H6X19534   2.884   6.440   7.391  0.1315  1.3076 -3.9516
  172SAPE   H6Y19535   2.819   6.583   7.456 -0.0849  1.1050 -3.5615
  172SAPE   C3719536   3.031   6.553   7.509 -0.2020 -0.5306  0.3455
  172SAPE   H7X19537   3.060   6.659   7.519 -1.5697 -0.2180  1.1567
  172SAPE   H7Y19538   3.115   6.491   7.470 -0.4796 -0.2385 -0.7178
  172SAPE   C3819539   2.994   6.520   7.657  0.4806  0.1976  0.2351
  172SAPE   H8X19540   2.954   6.417   7.652  1.9897 -0.4541  1.2746
  172SAPE   H8Y19541   2.907   6.585   7.680 -1.1632 -1.8570 -0.1086
  172SAPE   C3919542   3.109   6.557   7.754 -0.2201  0.4936  0.9254
  172SAPE   H9X19543   3.157   6.654   7.732 -0.4346  0.3289 -0.3274
  172SAPE   H9Y19544   3.190   6.481   7.750  0.5156  1.1881  2.5462
  172SAPE  C31019545   3.064   6.563   7.896  0.7712  0.0389  0.4742
  172SAPE  H10X19546   3.025   6.465   7.933  0.7248 -0.5182 -0.9965
  172SAPE  H10Y19547   2.988   6.641   7.915 -1.0149 -1.4559 -0.3076
  172SAPE  C31119548   3.169   6.602   8.003 -0.0189 -0.0799 -0.0695
  172SAPE  H11X19549   3.224   6.697   7.985 -0.3937 -0.1976 -1.9748
  172SAPE  H11Y19550   3.252   6.530   8.015  0.0828  0.3543  1.9205
  172SAPE  C31219551   3.104   6.604   8.142  0.7243 -0.0451  0.4453
  172SAPE  H12X19552   3.095   6.499   8.178  1.1605 -1.0088 -2.1548
  172SAPE  H12Y19553   3.011   6.664   8.132 -0.8838 -2.6990 -1.2117
  172SAPE  C31319554   3.178   6.672   8.259 -0.2606  0.3870 -0.5081
  172SAPE  H13X19555   3.198   6.774   8.220  1.7321  0.5007  0.7395
  172SAPE  H13Y19556   3.275   6.619   8.253  0.0970  1.0681 -0.8078
  172SAPE  C31419557   3.127   6.662   8.400  1.0390  0.0505  0.0759
  172SAPE  H14X19558   3.213   6.662   8.471  3.2931 -2.3987 -2.5669
  172SAPE  H14Y19559   3.081   6.562   8.409  1.9984 -0.8371 -3.9215
  172SAPE  C31519560   3.032   6.769   8.455 -0.1584  0.8474  0.5876
  172SAPE  H15X19561   2.990   6.729   8.550  0.0878  0.2358  0.4419
  172SAPE  H15Y19562   2.943   6.775   8.387  0.1092  2.0609  0.3302
  172SAPE  C31619563   3.082   6.922   8.453  0.3428 -0.0997 -0.7188
  172SAPE  H16X19564   3.098   6.954   8.348  0.2665 -2.9506 -1.6176
  172SAPE  H16Y19565   3.178   6.938   8.508 -1.3350 -1.4282  2.7287
  172SAPE  C31719566   2.972   7.015   8.495 -0.6749 -0.2150 -0.5760
  172SAPE  H17X19567   2.958   7.013   8.606 -0.2839 -0.8439 -0.5336
  172SAPE  H17Y19568   2.874   6.984   8.454 -1.3498  0.6721  0.3319
  172SAPE  C31819569   2.997   7.172   8.463 -0.4801 -0.3410 -0.3540
  172SAPE  H18X19570   3.006   7.191   8.354  2.0347  2.0340  0.2133
  172SAPE  H18Y19571   3.088   7.198   8.520 -0.4702 -2.3348  0.6000
  172SAPE  H18Z19572   2.911   7.230   8.503 -1.2960 -2.9736  1.8831
  173SOPE     N19573   4.159   3.344  10.788 -0.3618  0.6520  0.8296
  173SOPE   HN119574   4.121   3.312  10.879 -2.0238 -0.8040 -0.3374
  173SOPE   HN219575   4.185   3.256  10.740  0.0458  1.3597 -0.2753
  173SOPE   HN319576   4.244   3.405  10.792 -0.2463  0.3232  3.7917
  173SOPE   C1219577   4.057   3.414  10.704 -0.1293  0.0605 -0.4626
  173SOPE  H12A19578   3.977   3.345  10.670 -0.3384  0.3695 -0.5977
  173SOPE  H12B19579   4.112   3.453  10.616  0.5994 -0.2582 -0.1564
  173SOPE   C1119580   4.008   3.527  10.799 -0.0308  0.2245 -0.6430
  173SOPE  H11A19581   3.965   3.489  10.894  1.4227 -0.0083 -0.0693
  173SOPE  H11B19582   3.920   3.571  10.746 -0.5455  0.3313  0.2978
  173SOPE     P19583   4.103   3.745  10.920 -0.1946 -0.0108 -0.0813
  173SOPE   O1319584   4.182   3.721  11.045  0.1172 -0.0535 -0.2498
  173SOPE   O1419585   3.960   3.775  10.939  0.2843  0.5798 -0.0526
  173SOPE   O1219586   4.108   3.625  10.823  0.0473 -0.5396 -0.3055
  173SOPE   O1119587   4.169   3.875  10.843 -0.0433 -0.0739 -0.2656
  173SOPE    C119588   4.245   3.860  10.724 -0.8771  0.2297  0.1076
  173SOPE    HA19589   4.282   3.757  10.702 -1.4001  0.2898 -1.0989
  173SOPE    HB19590   4.335   3.923  10.740 -0.6941 -0.0788  0.2833
  173SOPE    C219591   4.173   3.907  10.598  0.5551 -0.2031  0.2000
  173SOPE    HS19592   4.249   3.918  10.518  1.1841 -4.0404  0.1902
  173SOPE   O2119593   4.103   4.032  10.623  0.0996  0.4082 -0.6111
  173SOPE   C2119594   4.176   4.142  10.595 -0.2034  0.5177  0.6841
  173SOPE   O2219595   4.297   4.132  10.568  0.3606 -0.1544 -0.2313
  173SOPE   C2219596   4.105   4.276  10.598 -0.2119 -0.9482  0.1032
  173SOPE   H2R19597   4.141   4.331  10.688  4.6577 -0.2025 -2.1221
  173SOPE   H2S19598   3.996   4.257  10.605 -0.5095  0.5720 -0.2873
  173SOPE    C319599   4.060   3.805  10.555  0.1568 -0.6054 -0.3414
  173SOPE    HX19600   3.977   3.802  10.628 -0.8371 -0.5535 -1.4570
  173SOPE    HY19601   4.107   3.704  10.557  0.5539 -0.5005 -2.4886
  173SOPE   O3119602   4.002   3.850  10.427  0.0151 -0.0391 -0.0273
  173SOPE   C3119603   4.062   3.795  10.325  0.4149 -0.3690 -0.5290
  173SOPE   O3219604   4.133   3.698  10.335 -0.0467  0.4413 -0.2275
  173SOPE   C3219605   4.038   3.869  10.196  0.5104 -0.5489  0.3235
  173SOPE   H2X19606   4.133   3.922  10.172  0.5975  0.6134  3.0968
  173SOPE   H2Y19607   3.956   3.943  10.199 -0.2197 -1.3703  0.7916
  173SOPE   C2319608   4.119   4.355  10.469 -0.8260 -0.6591 -0.8556
  173SOPE   H3R19609   4.225   4.373  10.441 -0.9378  0.1204 -0.7945
  173SOPE   H3S19610   4.071   4.454  10.485  0.3020 -0.2455  0.0006
  173SOPE   C2419611   4.059   4.288  10.345  0.3031 -0.5107 -0.5737
  173SOPE   H4R19612   4.107   4.188  10.333 -0.0002 -0.5020 -1.9504
  173SOPE   H4S19613   3.955   4.256  10.367 -0.1395  0.1131 -1.6840
  173SOPE   C2519614   4.075   4.376  10.221 -0.0622 -0.4443  0.1046
  173SOPE   H5R19615   4.018   4.470  10.242  2.3960  0.5687  2.4187
  173SOPE   H5S19616   4.181   4.406  10.212  0.3632 -1.5486  1.3766
  173SOPE   C2619617   4.038   4.309  10.097 -0.8087  0.2462 -0.5114
  173SOPE   H6R19618   4.083   4.207  10.088  2.3121  1.4271  1.0869
  173SOPE   H6S19619   3.929   4.286  10.089 -0.6076 -1.3241  1.0399
  173SOPE   C2719620   4.087   4.388   9.975 -0.2172  0.3901 -0.4872
  173SOPE   H7R19621   4.048   4.491   9.983  1.1755  0.8768  0.0422
  173SOPE   H7S19622   4.197   4.383   9.979 -0.2061  1.3790  0.4174
  173SOPE   C2819623   4.029   4.326   9.842  0.2131 -0.2699  0.7816
  173SOPE   H8R19624   3.920   4.333   9.862  0.5502  0.6067  2.3959
  173SOPE   H8S19625   4.039   4.407   9.766  0.8803 -0.8004  0.3038
  173SOPE   C2919626   4.088   4.201   9.794  0.0614  0.0403  0.3550
  173SOPE   H9119627   4.196   4.190   9.812 -0.2671 -1.5384  1.3922
  173SOPE  C21019628   4.020   4.091   9.751 -0.4722 -0.2724  0.2546
  173SOPE  H10119629   4.069   3.995   9.729  0.3874  0.0468  0.7737
  173SOPE  C21119630   3.870   4.079   9.722  0.0061  0.0581 -0.1389
  173SOPE  H11R19631   3.813   4.172   9.741  0.9988  0.4619  0.9652
  173SOPE  H11S19632   3.836   4.003   9.796 -1.2173  1.6825  0.9901
  173SOPE  C21219633   3.839   4.044   9.580 -0.8167  0.0599  1.4311
  173SOPE  H12R19634   3.730   4.038   9.565 -0.6220 -0.9456  0.3683
  173SOPE  H12S19635   3.870   3.940   9.558 -2.3934 -0.2917  0.8093
  173SOPE  C21319636   3.896   4.132   9.465  0.1785  0.4793  0.2264
  173SOPE  H13R19637   4.002   4.143   9.496  0.2419  0.7833 -0.0919
  173SOPE  H13S19638   3.833   4.224   9.465 -1.5652 -0.6401 -2.6610
  173SOPE  C21419639   3.893   4.063   9.328 -0.0486 -0.3328  0.3666
  173SOPE  H14R19640   3.795   4.076   9.277  0.4720 -1.8462 -1.0996
  173SOPE  H14S19641   3.918   3.954   9.334  2.1346 -0.0109 -1.6980
  173SOPE  C21519642   4.004   4.124   9.238 -0.2055 -0.5258  0.1876
  173SOPE  H15R19643   4.101   4.117   9.291  0.9785  1.3241 -1.6398
  173SOPE  H15S19644   3.996   4.235   9.233  1.4199 -0.3842  0.4940
  173SOPE  C21619645   4.028   4.054   9.107 -0.2012 -0.1706  0.1875
  173SOPE  H16R19646   3.931   4.062   9.053  0.0674 -0.6761 -0.3773
  173SOPE  H16S19647   4.050   3.948   9.131  1.6757  0.2544  0.4528
  173SOPE  C21719648   4.152   4.120   9.035  0.0782 -0.0108 -0.2931
  173SOPE  H17R19649   4.155   4.225   9.073  0.2413  0.0662 -0.5106
  173SOPE  H17S19650   4.141   4.123   8.924 -0.3397  1.2772 -0.2341
  173SOPE  C21819651   4.282   4.046   9.074 -0.4840 -0.1088  0.2188
  173SOPE  H18R19652   4.288   3.941   9.039 -0.8793 -0.8285  2.2795
  173SOPE  H18S19653   4.304   4.047   9.183  2.1927  0.9710 -0.2911
  173SOPE  H18T19654   4.368   4.105   9.034 -0.1653 -0.1173  0.8853
  173SOPE   C3319655   3.990   3.776  10.077 -0.3699 -0.1508 -0.1594
  173SOPE   H3X19656   4.027   3.671  10.070  2.0473  0.6724 -0.3785
  173SOPE   H3Y19657   4.023   3.827   9.984 -1.7962 -1.6836 -1.5294
  173SOPE   C3419658   3.836   3.773  10.061 -0.6085 -0.5062  0.1710
  173SOPE   H4X19659   3.810   3.881  10.067 -1.0763 -0.6903  1.6338
  173SOPE   H4Y19660   3.784   3.708  10.134 -2.8192 -0.6955 -1.5471
  173SOPE   C3519661   3.794   3.718   9.931 -0.0815 -0.3159 -0.2238
  173SOPE   H5X19662   3.851   3.626   9.905 -1.7548 -1.0211 -1.5059
  173SOPE   H5Y19663   3.832   3.787   9.852 -1.2705  0.4793 -0.1174
  173SOPE   C3619664   3.637   3.710   9.923 -0.0951  0.7823 -0.3192
  173SOPE   H6X19665   3.594   3.807   9.953 -1.7636  0.4756 -1.5951
  173SOPE   H6Y19666   3.603   3.631   9.993  3.0129 -0.2445  0.1076
  173SOPE   C3719667   3.590   3.681   9.780  0.5987  0.0607  1.1751
  173SOPE   H7X19668   3.479   3.680   9.785  0.4612  0.9566 -0.9833
  173SOPE   H7Y19669   3.628   3.588   9.734  1.2253  1.7904 -1.9993
  173SOPE   C3819670   3.626   3.794   9.680 -0.1067  0.2627 -0.0785
  173SOPE   H8X19671   3.729   3.771   9.646 -0.2876 -0.3338 -0.2200
  173SOPE   H8Y19672   3.641   3.885   9.742  0.9794 -0.3594  0.5933
  173SOPE   C3919673   3.532   3.802   9.555  0.1125 -0.2643  0.2263
  173SOPE   H9X19674   3.536   3.904   9.509 -1.0278  0.3560  1.4753
  173SOPE   H9Y19675   3.431   3.793   9.600  0.4320  0.7410  1.1615
  173SOPE  C31019676   3.577   3.708   9.447 -0.2785 -0.3091 -0.2352
  173SOPE  H10X19677   3.571   3.601   9.475 -0.4611 -0.6072 -1.3757
  173SOPE  H10Y19678   3.675   3.738   9.403  0.5706 -2.5861  0.0492
  173SOPE  C31119679   3.474   3.713   9.336  0.3043 -0.5544 -0.1401
  173SOPE  H11X19680   3.461   3.819   9.304  0.1245 -0.4843  0.1578
  173SOPE  H11Y19681   3.377   3.678   9.378 -0.8027  1.5005 -0.8769
  173SOPE  C31219682   3.514   3.629   9.214 -0.7987 -0.2897  0.0928
  173SOPE  H12X19683   3.530   3.523   9.242 -0.6749  0.1936  1.9381
  173SOPE  H12Y19684   3.605   3.672   9.168  0.8317 -1.3182  2.2956
  173SOPE  C31319685   3.410   3.643   9.099  0.1163 -0.7974  0.4649
  173SOPE  H13X19686   3.454   3.606   9.004 -0.6576 -0.4644 -0.0246
  173SOPE  H13Y19687   3.391   3.752   9.091  0.4515 -0.6285  1.7897
  173SOPE  C31419688   3.285   3.560   9.124 -0.2368 -0.0348  0.1873
  173SOPE  H14X19689   3.225   3.605   9.206 -0.4411 -0.0515  0.0449
  173SOPE  H14Y19690   3.297   3.451   9.141 -2.2329  0.0664  2.6451
  173SOPE  C31519691   3.203   3.574   8.997 -0.3800 -0.8041 -0.2032
  173SOPE  H15X19692   3.264   3.533   8.914  1.3850  1.0607  0.1167
  173SOPE  H15Y19693   3.182   3.680   8.969  0.7830 -0.1784  1.1931
  173SOPE  C31619694   3.075   3.490   9.007 -0.8484  0.5402  0.5306
  173SOPE  H16X19695   2.997   3.540   9.068 -0.1543  2.3910 -0.0765
  173SOPE  H16Y19696   3.104   3.389   9.043  0.3012  0.8548  0.5150
  173SOPE  C31719697   3.027   3.481   8.860 -0.0283  0.0310  0.3356
  173SOPE  H17X19698   3.100   3.433   8.792 -0.8278 -0.2137 -0.3578
  173SOPE  H17Y19699   3.019   3.584   8.820 -1.8403 -0.3691 -0.3910
  173SOPE  C31819700   2.891   3.405   8.855 -0.3777 -0.2472 -0.8377
  173SOPE  H18X19701   2.846   3.428   8.756  0.9308  0.7596 -1.2163
  173SOPE  H18Y19702   2.823   3.459   8.924 -0.8750 -0.9844 -0.7443
  173SOPE  H18Z19703   2.896   3.295   8.868  1.7574 -0.1623 -0.7874
  174SOPE     N19704   3.815   4.069  10.926  0.1023 -0.3496 -0.0328
  174SOPE   HN119705   3.912   4.068  10.962 -0.1317 -3.3820  0.6764
  174SOPE   HN219706   3.759   4.129  10.990  0.2594  1.7208 -1.7840
  174SOPE   HN319707   3.781   3.971  10.935  1.9665 -0.8206  2.5437
  174SOPE   C1219708   3.806   4.116  10.780  0.3450  0.1759  0.1311
  174SOPE  H12A19709   3.866   4.054  10.711 -0.4894 -1.7263  1.0849
  174SOPE  H12B19710   3.836   4.223  10.772  0.1123  0.1909 -0.5410
  174SOPE   C1119711   3.659   4.092  10.733  0.0876  0.1172  0.3433
  174SOPE  H11A19712   3.652   4.127  10.628  1.3303  0.8894  0.5127
  174SOPE  H11B19713   3.578   4.146  10.786 -2.3738 -3.0880  0.0245
  174SOPE     P19714   3.486   3.894  10.774  0.5465 -0.0916 -0.5944
  174SOPE   O1319715   3.395   4.002  10.819  0.4535  0.4508 -0.4646
  174SOPE   O1419716   3.509   3.788  10.870 -0.7953 -0.2714 -0.0967
  174SOPE   O1219717   3.632   3.946  10.739 -0.3061 -0.1209  0.2564
  174SOPE   O1119718   3.428   3.836  10.643  0.2802  0.1127 -0.1218
  174SOPE    C119719   3.458   3.894  10.514  0.5364  0.6576  0.5944
  174SOPE    HA19720   3.523   3.983  10.522  2.1486 -0.1765 -2.3944
  174SOPE    HB19721   3.366   3.935  10.466  0.5050  0.5337  0.5492
  174SOPE    C219722   3.533   3.790  10.421  0.1721  0.1282 -0.1747
  174SOPE    HS19723   3.562   3.843  10.327 -2.1270 -0.8956 -1.5152
  174SOPE   O2119724   3.450   3.674  10.394  0.2454  0.1710  0.3574
  174SOPE   C2119725   3.356   3.701  10.303 -0.2769 -0.1254 -0.5353
  174SOPE   O2219726   3.314   3.803  10.261 -0.0232 -0.2197  0.3049
  174SOPE   C2219727   3.321   3.558  10.244  0.1560  0.5633  0.2333
  174SOPE   H2R19728   3.318   3.488  10.330  2.0137 -1.5854 -1.3987
  174SOPE   H2S19729   3.411   3.519  10.191  1.3224  1.3030  1.6683
  174SOPE    C319730   3.656   3.734  10.506  0.6638 -0.2742  0.9621
  174SOPE    HX19731   3.611   3.679  10.591 -1.9000  1.6960  0.9348
  174SOPE    HY19732   3.712   3.823  10.543  0.6705  1.1710 -2.3100
  174SOPE   O3119733   3.744   3.668  10.417  0.0839 -0.9136 -0.4530
  174SOPE   C3119734   3.764   3.538  10.445  0.3307 -0.1400  0.3319
  174SOPE   O3219735   3.731   3.475  10.543 -0.5018  0.7718  0.4508
  174SOPE   C3219736   3.857   3.481  10.346 -0.0957  0.0763  0.1392
  174SOPE   H2X19737   3.961   3.476  10.383  0.2088  0.6977 -0.6091
  174SOPE   H2Y19738   3.840   3.541  10.253  0.2125 -0.7042 -0.4298
  174SOPE   C2319739   3.195   3.555  10.171 -0.4614  0.2958  0.2207
  174SOPE   H3R19740   3.114   3.627  10.192 -0.6893  0.8261 -2.3198
  174SOPE   H3S19741   3.146   3.456  10.182  0.1881 -0.0820 -0.2313
  174SOPE   C2419742   3.234   3.577  10.025  1.4227 -0.2532  0.6928
  174SOPE   H4R19743   3.258   3.684  10.010 -0.1857  0.2134  1.3500
  174SOPE   H4S19744   3.329   3.522  10.007  2.2822  1.5151 -0.2587
  174SOPE   C2519745   3.118   3.540   9.925 -0.0122 -0.5862  0.1982
  174SOPE   H5R19746   3.093   3.432   9.918  1.0624 -0.7407 -1.3806
  174SOPE   H5S19747   3.025   3.597   9.948 -0.0620 -0.6540  0.1635
  174SOPE   C2619748   3.166   3.572   9.777  0.0592  0.1872 -0.1529
  174SOPE   H6R19749   3.080   3.555   9.709 -1.0488  1.5635  0.8953
  174SOPE   H6S19750   3.205   3.676   9.772  0.1941  0.1640  0.4247
  174SOPE   C2719751   3.274   3.463   9.729 -0.0311  0.1086  0.3381
  174SOPE   H7R19752   3.341   3.516   9.657  0.8370  0.0548  1.0906
  174SOPE   H7S19753   3.351   3.433   9.804  0.1380  0.1835  0.1958
  174SOPE   C2819754   3.209   3.347   9.659 -0.0934  0.3647  0.1394
  174SOPE   H8R19755   3.135   3.305   9.731  0.7875 -1.7297 -0.1409
  174SOPE   H8S19756   3.160   3.367   9.562  0.2436 -0.0858 -0.1240
  174SOPE   C2919757   3.316   3.243   9.628 -0.3428 -0.4143  0.0047
  174SOPE   H9119758   3.340   3.205   9.728  1.1783  1.7965  0.5099
  174SOPE  C21019759   3.360   3.179   9.520  0.4754  0.9696  0.2522
  174SOPE  H10119760   3.432   3.096   9.531 -1.6618 -1.2056 -1.6320
  174SOPE  C21119761   3.308   3.207   9.384  0.2606  0.4893  0.1949
  174SOPE  H11R19762   3.399   3.223   9.324  0.1963 -2.0078 -0.6215
  174SOPE  H11S19763   3.244   3.298   9.373  1.9736  1.5818 -1.0857
  174SOPE  C21219764   3.218   3.093   9.328 -0.2280 -0.3461  0.4765
  174SOPE  H12R19765   3.132   3.087   9.398  0.9888 -0.6433  1.9617
  174SOPE  H12S19766   3.268   2.994   9.334 -0.7329 -0.5580  1.2443
  174SOPE  C21319767   3.176   3.128   9.189  1.3795 -0.0258  1.1443
  174SOPE  H13R19768   3.257   3.163   9.122 -0.2083 -1.8064 -1.8313
  174SOPE  H13S19769   3.103   3.212   9.193  1.6293  0.2869 -0.3404
  174SOPE  C21419770   3.088   3.020   9.119 -0.0050 -0.1047 -0.0548
  174SOPE  H14R19771   3.012   3.067   9.054  1.0627 -0.6354 -1.7104
  174SOPE  H14S19772   3.025   2.971   9.196 -0.7621  2.3399  0.9473
  174SOPE  C21519773   3.171   2.926   9.029 -0.1412 -0.4037  0.1163
  174SOPE  H15R19774   3.135   2.821   9.035 -1.4211 -0.0575 -1.2344
  174SOPE  H15S19775   3.276   2.920   9.065 -0.1310 -2.5249 -0.1959
  174SOPE  C21619776   3.174   2.962   8.883  0.0846  0.3356  0.0844
  174SOPE  H16R19777   3.204   3.065   8.855  0.5551  0.1353 -0.1499
  174SOPE  H16S19778   3.066   2.964   8.857  0.3593  0.0079 -1.0755
  174SOPE  C21719779   3.260   2.868   8.792  0.0784 -0.7728  0.0548
  174SOPE  H17R19780   3.241   2.764   8.826  0.2571 -0.5322  0.8986
  174SOPE  H17S19781   3.366   2.895   8.811 -0.4331  1.4112 -0.0427
  174SOPE  C21819782   3.229   2.887   8.646  0.6448 -0.1780  0.5116
  174SOPE  H18R19783   3.125   2.854   8.627  0.9943 -0.7391 -0.4938
  174SOPE  H18S19784   3.298   2.822   8.587  2.1004 -0.4839  2.4800
  174SOPE  H18T19785   3.230   2.990   8.605 -2.5902 -0.7470 -1.1996
  174SOPE   C3319786   3.827   3.332  10.324 -0.3218 -0.1004  1.1653
  174SOPE   H3X19787   3.815   3.288  10.426  1.2474 -0.7728  1.0800
  174SOPE   H3Y19788   3.913   3.281  10.276 -1.6698  0.6988 -2.2263
  174SOPE   C3419789   3.710   3.298  10.238  0.2652  0.0431 -0.1016
  174SOPE   H4X19790   3.616   3.354  10.260  0.2351 -1.0464  2.8289
  174SOPE   H4Y19791   3.689   3.191  10.254 -0.7128 -0.0483 -1.8412
  174SOPE   C3519792   3.740   3.304  10.089  0.2747  0.4618  0.2247
  174SOPE   H5X19793   3.817   3.228  10.063  0.7416 -0.1107  3.1245
  174SOPE   H5Y19794   3.778   3.406  10.066 -2.8485  1.4158 -0.9112
  174SOPE   C3619795   3.614   3.268  10.011  0.2283 -0.5261 -0.7209
  174SOPE   H6X19796   3.524   3.321  10.049  0.6984  2.1284 -3.1134
  174SOPE   H6Y19797   3.593   3.159  10.024 -3.0356 -0.0307 -1.3751
  174SOPE   C3719798   3.633   3.307   9.864 -0.3598  0.6307  0.6413
  174SOPE   H7X19799   3.684   3.405   9.852 -2.5233  1.7714  0.4846
  174SOPE   H7Y19800   3.531   3.315   9.819  0.1328 -2.6531 -1.2001
  174SOPE   C3819801   3.714   3.211   9.784  1.0047  0.0950 -0.8521
  174SOPE   H8X19802   3.684   3.105   9.803 -1.8247  1.2880  1.7534
  174SOPE   H8Y19803   3.812   3.214   9.836  0.4958 -0.0844  0.1291
  174SOPE   C3919804   3.721   3.252   9.639  0.1463  0.2665  0.3623
  174SOPE   H9X19805   3.782   3.344   9.626  0.2422 -0.0287 -1.4552
  174SOPE   H9Y19806   3.613   3.263   9.613 -0.1269 -0.3807  1.2266
  174SOPE  C31019807   3.779   3.140   9.538 -0.0965 -0.7042  0.1999
  174SOPE  H10X19808   3.713   3.053   9.560 -0.3602 -0.3206  0.9280
  174SOPE  H10Y19809   3.881   3.115   9.575  1.3886 -0.2998 -3.3557
  174SOPE  C31119810   3.788   3.168   9.387  0.0298 -0.2837  0.1657
  174SOPE  H11X19811   3.882   3.204   9.341 -0.5367  2.0406  0.7309
  174SOPE  H11Y19812   3.722   3.256   9.370  0.2468 -0.2420 -0.4746
  174SOPE  C31219813   3.728   3.044   9.320  0.4069  0.0144  0.2689
  174SOPE  H12X19814   3.624   3.053   9.358 -0.2853  0.7497 -1.7039
  174SOPE  H12Y19815   3.773   2.949   9.356  0.0240  0.3623  1.6960
  174SOPE  C31319816   3.722   3.046   9.158  0.5973 -0.0310  0.9218
  174SOPE  H13X19817   3.672   2.948   9.143 -1.0625  0.9110  0.1353
  174SOPE  H13Y19818   3.823   3.060   9.113  1.4563 -0.8715  2.5555
  174SOPE  C31419819   3.630   3.152   9.095 -0.2946 -0.0870 -0.4676
  174SOPE  H14X19820   3.671   3.254   9.108  2.0620 -0.9501 -0.8469
  174SOPE  H14Y19821   3.534   3.152   9.151 -0.6368  1.0692 -1.0367
  174SOPE  C31519822   3.603   3.111   8.951 -0.3465 -0.6641 -0.0558
  174SOPE  H15X19823   3.550   3.015   8.963 -1.8273  0.1778  0.2603
  174SOPE  H15Y19824   3.696   3.084   8.897  1.0336 -1.7890  2.7604
  174SOPE  C31619825   3.507   3.199   8.865 -0.3512 -0.6742  0.0366
  174SOPE  H16X19826   3.408   3.198   8.917 -0.3299  2.0995  0.2368
  174SOPE  H16Y19827   3.497   3.159   8.763 -1.4727 -0.9381  0.2393
  174SOPE  C31719828   3.554   3.346   8.857  0.2831 -0.7803  0.1187
  174SOPE  H17X19829   3.565   3.376   8.964  0.5678  4.1783 -1.1683
  174SOPE  H17Y19830   3.473   3.407   8.812  2.0089  0.6132 -1.1928
  174SOPE  C31819831   3.681   3.365   8.777 -0.1861 -0.0748  0.0944
  174SOPE  H18X19832   3.651   3.348   8.672 -0.3588 -1.3358  0.3383
  174SOPE  H18Y19833   3.756   3.290   8.812  3.2722  2.0118 -2.5899
  174SOPE  H18Z19834   3.721   3.468   8.789 -3.1193  0.9635  1.4167
  175SOPE     N19835   5.465   4.844  10.716  0.1319  0.0729 -0.3816
  175SOPE   HN119836   5.407   4.760  10.699 -0.0180  0.2112 -0.5621
  175SOPE   HN219837   5.538   4.829  10.788  1.8368  1.5090 -1.7539
  175SOPE   HN319838   5.401   4.919  10.749  0.3906 -0.4719  1.3512
  175SOPE   C1219839   5.541   4.895  10.599 -0.0833 -0.3359 -0.1451
  175SOPE  H12A19840   5.470   4.907  10.514 -0.9852  0.9858  0.7866
  175SOPE  H12B19841   5.629   4.834  10.571  0.4467  0.6441 -0.6472
  175SOPE   C1119842   5.601   5.033  10.635  0.1484 -0.6029 -0.2888
  175SOPE  H11A19843   5.673   5.059  10.556 -1.4881  0.3650 -1.4956
  175SOPE  H11B19844   5.657   5.018  10.730  0.6291  0.5465 -0.3942
  175SOPE     P19845   5.387   5.170  10.555  0.2435  0.3460 -0.3422
  175SOPE   O1319846   5.349   5.316  10.563 -0.3611  0.1519 -0.2304
  175SOPE   O1419847   5.278   5.068  10.572 -0.6028 -0.6357 -0.4101
  175SOPE   O1219848   5.504   5.136  10.658  0.0892 -0.1906 -0.0648
  175SOPE   O1119849   5.473   5.140  10.423  0.3641 -0.6574 -0.2587
  175SOPE    C119850   5.519   5.259  10.351  0.3589 -0.1843  0.7578
  175SOPE    HA19851   5.577   5.320  10.423 -0.1406  0.5708  0.5273
  175SOPE    HB19852   5.430   5.316  10.317  0.9090 -0.3481 -0.9853
  175SOPE    C219853   5.610   5.237  10.225 -0.0565 -0.0132  0.2504
  175SOPE    HS19854   5.657   5.335  10.199  2.5274 -1.4925 -0.8991
  175SOPE   O2119855   5.542   5.179  10.107 -0.0932 -0.1463 -0.1538
  175SOPE   C2119856   5.447   5.259  10.052  0.1810  0.2496  0.1822
  175SOPE   O2219857   5.419   5.373  10.083 -0.5714  0.6276 -0.2433
  175SOPE   C2219858   5.360   5.162   9.969 -0.2363 -0.5560  0.5919
  175SOPE   H2R19859   5.268   5.137  10.026  0.4155 -1.1116  1.4101
  175SOPE   H2S19860   5.414   5.065   9.962 -0.7269 -0.7886 -0.0675
  175SOPE    C319861   5.732   5.144  10.259 -0.1511  0.0255  0.5369
  175SOPE    HX19862   5.681   5.045  10.256 -0.5736  0.2363  0.7075
  175SOPE    HY19863   5.758   5.169  10.364  0.1426 -0.5762  0.6090
  175SOPE   O3119864   5.834   5.157  10.155  0.7155 -0.3881  0.0545
  175SOPE   C3119865   5.908   5.050  10.138  0.7694 -0.1211  0.1098
  175SOPE   O3219866   5.907   4.955  10.217  0.6017  0.2717 -0.5251
  175SOPE   C3219867   5.977   5.062  10.005 -0.4595 -0.0300 -0.2111
  175SOPE   H2X19868   6.044   4.974   9.993  2.5285  1.7239  2.7213
  175SOPE   H2Y19869   6.055   5.141  10.015  0.9890 -1.5344  0.5756
  175SOPE   C2319870   5.334   5.205   9.823 -0.2524  0.1774  0.0319
  175SOPE   H3R19871   5.434   5.234   9.786  0.4818  0.1014  1.8851
  175SOPE   H3S19872   5.258   5.286   9.819 -3.1138 -2.4480 -0.6272
  175SOPE   C2419873   5.263   5.093   9.745  0.5527 -0.5054 -0.0371
  175SOPE   H4R19874   5.337   5.010   9.739  2.2777  1.1451 -1.8600
  175SOPE   H4S19875   5.172   5.057   9.798  0.0175  0.4781 -0.2707
  175SOPE   C2519876   5.214   5.147   9.607  0.4059 -0.0745  0.7049
  175SOPE   H5R19877   5.156   5.234   9.645  1.9376  1.2333  0.1074
  175SOPE   H5S19878   5.286   5.177   9.527 -0.0089 -2.4728 -0.6171
  175SOPE   C2619879   5.116   5.052   9.541  0.1744 -0.0312  0.8495
  175SOPE   H6R19880   5.027   5.034   9.606 -1.1654  3.5676  0.1299
  175SOPE   H6S19881   5.099   5.095   9.440 -0.5895 -1.3684  0.4043
  175SOPE   C2719882   5.184   4.918   9.519 -0.2754 -0.6266 -0.3147
  175SOPE   H7R19883   5.284   4.930   9.474  0.8567 -0.0551  2.2800
  175SOPE   H7S19884   5.210   4.859   9.609 -0.7462 -0.5750 -0.1389
  175SOPE   C2819885   5.109   4.829   9.418  0.0452  0.1905 -0.6061
  175SOPE   H8R19886   5.008   4.809   9.461  0.2906 -1.6469 -0.8284
  175SOPE   H8S19887   5.097   4.890   9.326 -0.0964  1.1254  0.0303
  175SOPE   C2919888   5.181   4.697   9.382  0.1742  0.4213 -0.6726
  175SOPE   H9119889   5.199   4.638   9.473 -0.1916  2.2005  0.5842
  175SOPE  C21019890   5.238   4.665   9.263 -0.1443  0.3306  0.0370
  175SOPE  H10119891   5.286   4.566   9.262  1.3747  0.9900 -4.4263
  175SOPE  C21119892   5.231   4.734   9.131 -0.0398  0.5576  0.7260
  175SOPE  H11R19893   5.160   4.820   9.131  0.2336  0.7838 -0.0999
  175SOPE  H11S19894   5.182   4.671   9.053  0.4649  0.6934  0.2953
  175SOPE  C21219895   5.366   4.794   9.085 -0.2904 -0.4152  0.0432
  175SOPE  H12R19896   5.395   4.884   9.144  1.1814 -0.9370  0.1329
  175SOPE  H12S19897   5.336   4.832   8.985  0.6071  0.4962  0.1175
  175SOPE  C21319898   5.476   4.693   9.072 -0.4149 -0.2640 -0.0864
  175SOPE  H13R19899   5.445   4.614   9.001 -0.3515  0.8087 -1.3367
  175SOPE  H13S19900   5.492   4.637   9.167  2.3323  1.6669  0.6831
  175SOPE  C21419901   5.617   4.748   9.028  0.1402 -0.4323 -0.2475
  175SOPE  H14R19902   5.697   4.670   9.029  0.9534  0.3942  0.1590
  175SOPE  H14S19903   5.641   4.821   9.109 -3.3593  0.8515 -0.3012
  175SOPE  C21519904   5.623   4.814   8.889 -0.9147 -0.8609  1.2682
  175SOPE  H15R19905   5.541   4.887   8.874  0.5714  0.2693 -1.8366
  175SOPE  H15S19906   5.621   4.738   8.808 -1.8988  0.9094 -0.4114
  175SOPE  C21619907   5.756   4.904   8.877  0.1271 -0.3917 -0.2164
  175SOPE  H16R19908   5.839   4.838   8.842  0.6468  0.5972 -0.8552
  175SOPE  H16S19909   5.782   4.927   8.982 -0.1288 -3.9820  0.7173
  175SOPE  C21719910   5.764   5.031   8.789 -0.1145  0.5395  0.0959
  175SOPE  H17R19911   5.863   5.071   8.817  0.1498  0.0518 -0.1439
  175SOPE  H17S19912   5.695   5.112   8.822 -1.1837 -0.4274  0.3004
  175SOPE  C21819913   5.759   5.001   8.641  0.2353 -0.0292 -0.2148
  175SOPE  H18R19914   5.784   5.086   8.575 -1.7437  1.7223  1.2189
  175SOPE  H18S19915   5.653   4.970   8.625 -0.0254  0.3368  0.7588
  175SOPE  H18T19916   5.829   4.917   8.621  0.1239 -0.7069  2.1027
  175SOPE   C3319917   5.887   5.068   9.884  0.4012  0.2438 -0.1203
  175SOPE   H3X19918   5.819   4.981   9.879  0.4160  0.2453 -0.3812
  175SOPE   H3Y19919   5.965   5.067   9.804 -1.4783  0.4120 -2.0062
  175SOPE   C3419920   5.814   5.204   9.876  0.1738 -0.0803  0.1260
  175SOPE   H4X19921   5.881   5.288   9.907 -1.2479  0.7530  0.9893
  175SOPE   H4Y19922   5.743   5.219   9.960 -1.0014  1.7836 -1.1630
  175SOPE   C3519923   5.741   5.229   9.741  0.9606  0.0794  0.7164
  175SOPE   H5X19924   5.686   5.324   9.759  0.2581 -0.5681  2.1454
  175SOPE   H5Y19925   5.664   5.153   9.713 -0.7229  2.7375 -2.1964
  175SOPE   C3619926   5.843   5.244   9.628  0.3193  0.4919  0.3579
  175SOPE   H6X19927   5.883   5.141   9.617 -0.0794  0.2841  0.7821
  175SOPE   H6Y19928   5.926   5.305   9.670  1.7094 -2.5459  2.2783
  175SOPE   C3719929   5.798   5.292   9.490 -0.4801  0.4342  0.0931
  175SOPE   H7X19930   5.753   5.393   9.493 -0.1757  0.6151 -1.1142
  175SOPE   H7Y19931   5.717   5.230   9.448 -0.1848  0.7485 -0.9503
  175SOPE   C3819932   5.912   5.299   9.386 -0.2188  0.3990 -0.1486
  175SOPE   H8X19933   5.964   5.201   9.385  1.0510  1.0185  1.6167
  175SOPE   H8Y19934   5.984   5.375   9.425  0.3060 -1.2040  2.1307
  175SOPE   C3919935   5.869   5.323   9.237  0.1790  0.2728 -0.2142
  175SOPE   H9X19936   5.811   5.418   9.240  1.5385  1.0879  0.8722
  175SOPE   H9Y19937   5.806   5.238   9.203  0.2121  0.4887 -0.8091
  175SOPE  C31019938   5.984   5.318   9.142 -0.0961  0.6495  0.3227
  175SOPE  H10X19939   6.027   5.215   9.147  0.0914  0.4426 -3.7666
  175SOPE  H10Y19940   6.063   5.391   9.170 -1.7720  2.1962  1.0644
  175SOPE  C31119941   5.950   5.361   8.996 -0.1930 -0.3644 -0.1021
  175SOPE  H11X19942   5.868   5.302   8.951  2.2969 -2.7363 -1.6648
  175SOPE  H11Y19943   6.030   5.328   8.926 -0.9349 -1.2509 -0.5339
  175SOPE  C31219944   5.916   5.513   8.988  0.4156 -0.6540 -0.6153
  175SOPE  H12X19945   5.971   5.561   9.073 -0.4628  0.8627 -0.8856
  175SOPE  H12Y19946   5.810   5.526   9.020  0.4638 -2.0874  0.1838
  175SOPE  C31319947   5.948   5.588   8.856 -0.4506  0.2513 -0.0822
  175SOPE  H13X19948   6.046   5.551   8.820 -0.1252  1.1545 -0.1525
  175SOPE  H13Y19949   5.964   5.697   8.872 -0.2006  0.3760 -1.1308
  175SOPE  C31419950   5.845   5.566   8.741  0.8556 -0.7340 -0.3128
  175SOPE  H14X19951   5.765   5.641   8.760  1.1448 -0.2056 -1.1334
  175SOPE  H14Y19952   5.813   5.460   8.741 -2.3476  0.1762 -1.3320
  175SOPE  C31519953   5.903   5.596   8.602  0.1179  0.0940  0.3509
  175SOPE  H15X19954   6.007   5.557   8.600 -0.2716 -0.9421  0.2167
  175SOPE  H15Y19955   5.910   5.707   8.593  0.0206 -0.0401 -1.7226
  175SOPE  C31619956   5.817   5.534   8.489 -0.1257  0.0760  0.4376
  175SOPE  H16X19957   5.829   5.587   8.392 -2.1050  2.6588  1.5458
  175SOPE  H16Y19958   5.709   5.549   8.510 -0.0782 -1.3075  1.7189
  175SOPE  C31719959   5.830   5.381   8.474 -0.3226 -0.1374  0.0855
  175SOPE  H17X19960   5.825   5.340   8.577 -2.2686 -0.3736 -0.0709
  175SOPE  H17Y19961   5.929   5.362   8.427  0.8189  1.1973  1.9093
  175SOPE  C31819962   5.717   5.330   8.377 -0.4659 -0.4746  0.0757
  175SOPE  H18X19963   5.729   5.225   8.342 -1.8414 -0.8371  0.6871
  175SOPE  H18Y19964   5.723   5.389   8.284  0.0974  0.5811  0.7710
  175SOPE  H18Z19965   5.621   5.333   8.433 -0.8515 -1.3514 -0.5320
  176SOPE     N19966   5.131   3.965  11.175 -0.5851  0.2319  0.1648
  176SOPE   HN119967   5.189   3.881  11.196  2.7625  2.5866  0.6406
  176SOPE   HN219968   5.091   4.008  11.261 -0.6768 -0.0426  0.2590
  176SOPE   HN319969   5.053   3.925  11.119  1.0218 -2.3401 -0.3152
  176SOPE   C1219970   5.212   4.072  11.106 -1.2470  0.0966  0.7094
  176SOPE  H12A19971   5.254   4.029  11.012 -1.1232  1.2997  0.2101
  176SOPE  H12B19972   5.292   4.102  11.176 -0.7501  0.9008 -0.1944
  176SOPE   C1119973   5.129   4.194  11.076  0.2748 -0.1390 -0.4039
  176SOPE  H11A19974   5.074   4.233  11.164  2.1964  0.1412  0.6847
  176SOPE  H11B19975   5.058   4.165  10.995  2.8414  0.1802 -2.8158
  176SOPE     P19976   5.288   4.311  10.892  0.4543 -0.0236  0.0999
  176SOPE   O1319977   5.411   4.240  10.910  0.1789 -0.4772  0.0073
  176SOPE   O1419978   5.293   4.442  10.836  0.3101 -0.1433 -0.0628
  176SOPE   O1219979   5.210   4.307  11.031  0.4539 -0.0600 -0.4994
  176SOPE   O1119980   5.190   4.228  10.802 -0.2876  0.0289 -0.0790
  176SOPE    C119981   5.076   4.282  10.746  0.1800  0.4417  0.3321
  176SOPE    HA19982   5.055   4.388  10.772 -0.7198  0.3742 -0.0961
  176SOPE    HB19983   4.991   4.224  10.788 -1.1188 -0.1099 -2.9091
  176SOPE    C219984   5.072   4.278  10.592  0.0655  0.0989  0.2890
  176SOPE    HS19985   5.077   4.172  10.558 -1.3254  0.6485 -1.7007
  176SOPE   O2119986   5.178   4.356  10.534  0.5064  0.2707 -0.4973
  176SOPE   C2119987   5.290   4.278  10.513 -0.0126 -0.1165 -0.6984
  176SOPE   O2219988   5.296   4.163  10.535 -0.1307  0.0681  0.3518
  176SOPE   C2219989   5.402   4.352  10.438  0.4122 -0.8801 -0.0430
  176SOPE   H2R19990   5.490   4.360  10.506  1.4711 -0.9586 -1.3737
  176SOPE   H2S19991   5.388   4.451  10.390  0.1950 -2.6959 -3.9125
  176SOPE    C319992   4.931   4.334  10.543  0.2235  0.3027  0.3046
  176SOPE    HX19993   4.929   4.444  10.558  0.1864  0.4429 -0.6928
  176SOPE    HY19994   4.863   4.295  10.621  0.1421  0.3760  0.2716
  176SOPE   O3119995   4.891   4.290  10.416 -0.0156  0.2241  0.6400
  176SOPE   C3119996   4.791   4.358  10.354 -0.2000 -0.2601  0.2302
  176SOPE   O3219997   4.734   4.456  10.394  0.3249  0.0753  0.1039
  176SOPE   C3219998   4.774   4.299  10.212 -0.2346 -0.0740  0.0906
  176SOPE   H2X19999   4.752   4.191  10.227 -1.2128  0.1925  0.5696
  176SOPE   H2Y20000   4.871   4.317  10.159  0.0269 -1.0179  0.2390
  176SOPE   C2320001   5.452   4.262  10.320 -0.8021  0.0356  0.3075
  176SOPE   H3R20002   5.429   4.155  10.334 -3.6107  0.0959 -2.9610
  176SOPE   H3S20003   5.563   4.265  10.313 -0.8409  0.2901 -0.3011
  176SOPE   C2420004   5.385   4.311  10.190 -0.3585  0.2121  0.5008
  176SOPE   H4R20005   5.275   4.296  10.200 -0.5570  0.3072 -1.4040
  176SOPE   H4S20006   5.406   4.418  10.174 -2.9181  1.1239  2.7759
  176SOPE   C2520007   5.422   4.213  10.081  0.3992 -0.6844  0.6336
  176SOPE   H5R20008   5.533   4.204  10.078  0.6129  2.0742 -0.9463
  176SOPE   H5S20009   5.385   4.112  10.108 -2.0899  0.5500  1.9733
  176SOPE   C2620010   5.379   4.265   9.944  0.0590  0.4775  0.0764
  176SOPE   H6R20011   5.272   4.241   9.928  0.5080 -2.2050  0.8908
  176SOPE   H6S20012   5.397   4.374   9.959  0.1797  0.2561  1.6734
  176SOPE   C2720013   5.470   4.216   9.834 -0.2723  0.3561  0.3989
  176SOPE   H7R20014   5.562   4.277   9.824 -0.7866  1.3035  1.3101
  176SOPE   H7S20015   5.495   4.110   9.855  2.5062  1.5237  3.2817
  176SOPE   C2820016   5.382   4.231   9.703  0.3544 -0.6009 -0.4884
  176SOPE   H8R20017   5.438   4.184   9.619 -1.2590 -1.8075 -0.9284
  176SOPE   H8S20018   5.292   4.165   9.695  0.5945 -1.2049  1.5231
  176SOPE   C2920019   5.363   4.380   9.683 -0.1643 -0.4408 -0.2180
  176SOPE   H9120020   5.318   4.427   9.772 -0.1647 -2.9580  1.1590
  176SOPE  C21020021   5.389   4.456   9.579  0.0634 -0.1278  0.0533
  176SOPE  H10120022   5.365   4.564   9.573 -1.7771 -0.5410 -0.4055
  176SOPE  C21120023   5.462   4.406   9.453 -0.0507 -0.1926 -0.1053
  176SOPE  H11R20024   5.390   4.376   9.373  0.1576 -3.9151  1.0166
  176SOPE  H11S20025   5.514   4.308   9.463 -0.5356 -0.2316  2.1155
  176SOPE  C21220026   5.579   4.501   9.414  0.1743  0.1059 -0.2387
  176SOPE  H12R20027   5.649   4.527   9.496 -0.6615 -0.2385  0.6053
  176SOPE  H12S20028   5.545   4.604   9.390  0.2821  1.0291  3.2236
  176SOPE  C21320029   5.669   4.444   9.303 -0.1811  0.1769 -0.2858
  176SOPE  H13R20030   5.733   4.525   9.263  0.0344  0.1705  0.0492
  176SOPE  H13S20031   5.594   4.413   9.226 -0.7317  1.6181 -0.3406
  176SOPE  C21420032   5.756   4.329   9.348 -0.4479  0.2926 -0.4471
  176SOPE  H14R20033   5.786   4.272   9.258  2.9561 -0.4495  1.0848
  176SOPE  H14S20034   5.697   4.266   9.417  0.8623  0.8183  1.1964
  176SOPE  C21520035   5.883   4.377   9.420 -0.7375  0.2766  0.2229
  176SOPE  H15R20036   5.899   4.486   9.409  1.3053 -0.1323 -1.0463
  176SOPE  H15S20037   5.968   4.318   9.381  0.3483  1.5135  0.6793
  176SOPE  C21620038   5.887   4.361   9.572 -0.8425 -0.2875  0.4195
  176SOPE  H16R20039   5.826   4.285   9.624  1.3564 -1.4548  1.3710
  176SOPE  H16S20040   5.847   4.458   9.608 -0.7536  0.2194 -0.7986
  176SOPE  C21720041   6.025   4.351   9.636  0.1858  0.0832  0.6470
  176SOPE  H17R20042   6.000   4.390   9.737 -2.0653 -1.1137  0.5771
  176SOPE  H17S20043   6.097   4.422   9.589  2.2602 -0.9224  2.1948
  176SOPE  C21820044   6.078   4.208   9.641 -0.8855  0.4157 -0.4013
  176SOPE  H18R20045   6.152   4.198   9.723  1.6156 -3.7135 -2.9453
  176SOPE  H18S20046   6.132   4.178   9.549 -1.3725 -3.1604  0.3746
  176SOPE  H18T20047   5.997   4.134   9.659 -0.0886 -0.4538 -0.3465
  176SOPE   C3320048   4.653   4.355  10.129  0.1158 -0.9254  0.2647
  176SOPE   H3X20049   4.651   4.466  10.130 -0.8302 -0.9189 -1.1269
  176SOPE   H3Y20050   4.563   4.327  10.188  1.0764  1.2557  2.8587
  176SOPE   C3420051   4.643   4.308   9.981 -0.3681 -0.4025 -0.5407
  176SOPE   H4X20052   4.640   4.197   9.978  3.9500 -0.6475  0.6692
  176SOPE   H4Y20053   4.738   4.331   9.929  0.9276  0.2783  2.0410
  176SOPE   C3520054   4.521   4.362   9.914 -0.0944  0.5854 -0.9639
  176SOPE   H5X20055   4.518   4.469   9.943  2.5460  0.7208 -1.0184
  176SOPE   H5Y20056   4.432   4.316   9.962  0.9567  0.6524  1.1602
  176SOPE   C3620057   4.528   4.362   9.758 -0.7013 -0.7793 -0.1574
  176SOPE   H6X20058   4.445   4.303   9.714 -0.6226  0.5266 -2.1168
  176SOPE   H6Y20059   4.619   4.303   9.732  0.2560  0.7068 -0.2798
  176SOPE   C3720060   4.529   4.501   9.697  0.3747 -0.0858 -0.4385
  176SOPE   H7X20061   4.617   4.562   9.726 -0.3748  1.0182 -0.4272
  176SOPE   H7Y20062   4.440   4.560   9.728  0.5019 -0.3644  0.4664
  176SOPE   C3820063   4.536   4.509   9.542 -0.2995 -0.8745 -0.2937
  176SOPE   H8X20064   4.631   4.457   9.514  0.3773 -0.1492  0.6326
  176SOPE   H8Y20065   4.537   4.610   9.496  1.9717 -0.4811  0.5310
  176SOPE   C3920066   4.432   4.429   9.463  0.4241  0.0638 -0.4476
  176SOPE   H9X20067   4.340   4.491   9.470 -0.9157 -1.8534 -0.6366
  176SOPE   H9Y20068   4.413   4.334   9.517 -2.2744  0.3834 -0.8035
  176SOPE  C31020069   4.448   4.411   9.311 -0.1197 -0.0451 -0.0505
  176SOPE  H10X20070   4.493   4.508   9.279 -0.0064  0.7677  2.4415
  176SOPE  H10Y20071   4.362   4.378   9.248 -0.0112 -0.3430 -0.0381
  176SOPE  C31120072   4.543   4.294   9.281 -0.1419 -0.5156 -0.0792
  176SOPE  H11X20073   4.500   4.199   9.321  2.7453 -1.8069  0.0750
  176SOPE  H11Y20074   4.637   4.307   9.340 -1.2278  0.9966  1.3469
  176SOPE  C31220075   4.583   4.267   9.138  0.3269 -0.1211  0.9213
  176SOPE  H12X20076   4.648   4.347   9.096 -1.9663  1.4536  0.2409
  176SOPE  H12Y20077   4.489   4.275   9.078  0.4587 -1.5947  0.4994
  176SOPE  C31320078   4.641   4.133   9.113  0.2708 -0.3141  0.7176
  176SOPE  H13X20079   4.566   4.061   9.152 -0.0627 -0.7113 -0.6338
  176SOPE  H13Y20080   4.726   4.111   9.182 -0.1557 -2.4389  0.6045
  176SOPE  C31420081   4.671   4.101   8.966  0.4481 -0.0288  0.2457
  176SOPE  H14X20082   4.747   4.176   8.936  0.4935  1.0382  2.8998
  176SOPE  H14Y20083   4.584   4.125   8.901  0.4344 -0.8004 -0.0303
  176SOPE  C31520084   4.739   3.969   8.933  0.1928 -0.0631  0.6412
  176SOPE  H15X20085   4.668   3.889   8.963 -0.4150  1.6688  4.1748
  176SOPE  H15Y20086   4.835   3.944   8.982 -0.5231 -1.4925  1.3817
  176SOPE  C31620087   4.764   3.963   8.778 -0.5019  0.1077 -0.2139
  176SOPE  H16X20088   4.844   4.036   8.754  4.3253 -4.6450  0.2186
  176SOPE  H16Y20089   4.679   3.988   8.711 -0.4208 -1.0439 -0.7697
  176SOPE  C31720090   4.821   3.830   8.740  0.1988  0.1863 -0.1937
  176SOPE  H17X20091   4.752   3.748   8.772 -0.0622  0.1277 -0.8910
  176SOPE  H17Y20092   4.908   3.804   8.803 -1.4436 -0.9180  1.6706
  176SOPE  C31820093   4.862   3.811   8.591  0.0372  0.0858  0.2400
  176SOPE  H18X20094   4.940   3.883   8.560  0.4667 -0.3300  0.3577
  176SOPE  H18Y20095   4.773   3.821   8.525  0.4033 -0.7385 -0.3876
  176SOPE  H18Z20096   4.899   3.709   8.566  1.5310  0.3630  1.2923
  177SOPE     N20097   4.718   2.633  10.597 -0.5596  0.2642  0.0291
  177SOPE   HN120098   4.717   2.726  10.550 -0.2013  0.0022 -0.4937
  177SOPE   HN220099   4.787   2.585  10.536 -2.1738 -0.0812 -1.5575
  177SOPE   HN320100   4.625   2.589  10.583 -0.2699 -0.0173 -1.0273
  177SOPE   C1220101   4.752   2.635  10.747  0.1516  0.3041 -0.4636
  177SOPE  H12A20102   4.857   2.661  10.772  0.0392  0.3570 -0.0397
  177SOPE  H12B20103   4.734   2.533  10.788 -0.7724 -0.0974 -1.8246
  177SOPE   C1120104   4.657   2.728  10.833 -0.0972 -0.0220 -0.0902
  177SOPE  H11A20105   4.652   2.833  10.798 -1.0917 -0.3892 -1.1048
  177SOPE  H11B20106   4.703   2.728  10.934  0.0675  0.1713 -0.1663
  177SOPE     P20107   4.426   2.680  10.934 -0.3297  0.2782 -0.3825
  177SOPE   O1320108   4.496   2.731  11.059 -0.9762  0.3956 -0.0731
  177SOPE   O1420109   4.345   2.556  10.945 -0.2598 -0.3744 -0.5427
  177SOPE   O1220110   4.530   2.660  10.823  0.3429  0.2764 -0.6196
  177SOPE   O1120111   4.322   2.792  10.879 -0.4991  0.5776  0.3729
  177SOPE    C120112   4.226   2.749  10.781  0.5621  0.2141  0.0850
  177SOPE    HA20113   4.148   2.828  10.778  0.9789  0.5628 -3.4375
  177SOPE    HB20114   4.180   2.654  10.818  3.0557 -0.3257  1.9593
  177SOPE    C220115   4.291   2.749  10.635  0.7635  0.1877 -0.0351
  177SOPE    HS20116   4.370   2.672  10.639 -0.3807 -0.9727  0.5624
  177SOPE   O2120117   4.336   2.883  10.593 -0.5606 -0.5102 -0.0368
  177SOPE   C2120118   4.453   2.894  10.530  0.3539 -0.0450 -1.0568
  177SOPE   O2220119   4.527   2.801  10.512 -0.4435  0.5442  0.5605
  177SOPE   C2220120   4.474   3.040  10.489 -0.8205  0.5095 -0.0976
  177SOPE   H2R20121   4.585   3.040  10.498 -0.9837  0.1832  2.0243
  177SOPE   H2S20122   4.434   3.107  10.568 -0.1767 -1.7187  2.1512
  177SOPE    C320123   4.190   2.686  10.532  0.0433 -0.3250  0.2764
  177SOPE    HX20124   4.086   2.726  10.531 -0.2758 -1.1278 -1.4595
  177SOPE    HY20125   4.171   2.580  10.557  0.5540 -0.1319  1.5057
  177SOPE   O3120126   4.236   2.696  10.394 -0.0157 -0.4922 -0.6024
  177SOPE   C3120127   4.330   2.607  10.371 -0.2598  0.0998  0.1003
  177SOPE   O3220128   4.370   2.521  10.446  0.1184 -0.0966 -0.2065
  177SOPE   C3220129   4.396   2.629  10.232 -0.1011  0.1012 -0.2112
  177SOPE   H2X20130   4.361   2.728  10.198 -0.6887  1.0583  2.9986
  177SOPE   H2Y20131   4.351   2.545  10.174 -1.4169  0.2359  0.5734
  177SOPE   C2320132   4.418   3.085  10.352  0.4046 -0.2842  0.6791
  177SOPE   H3R20133   4.420   3.196  10.346  1.6243 -0.3012  0.6300
  177SOPE   H3S20134   4.313   3.050  10.350 -0.5968  2.5538  2.1524
  177SOPE   C2420135   4.493   3.039  10.229 -0.2515  0.3765  0.0848
  177SOPE   H4R20136   4.598   3.046  10.266 -0.1218  0.8475 -0.3604
  177SOPE   H4S20137   4.490   2.932  10.201  1.0970  0.7330 -1.5476
  177SOPE   C2520138   4.473   3.132  10.103 -0.0862  0.3220 -0.6235
  177SOPE   H5R20139   4.393   3.089  10.039 -0.2649 -1.4559  0.7783
  177SOPE   H5S20140   4.428   3.229  10.133  0.7057  0.6724 -0.5608
  177SOPE   C2620141   4.600   3.150  10.028 -0.3263 -0.5622  0.5474
  177SOPE   H6R20142   4.684   3.158  10.100  0.2883 -1.7367 -0.0290
  177SOPE   H6S20143   4.621   3.057   9.971 -0.3243 -0.3701  0.2312
  177SOPE   C2720144   4.599   3.266   9.928  0.6555  0.3743 -0.1024
  177SOPE   H7R20145   4.533   3.245   9.841  2.0239 -2.3088 -0.5286
  177SOPE   H7S20146   4.555   3.356   9.977 -0.4685 -0.7777  1.0523
  177SOPE   C2820147   4.738   3.299   9.872  0.5614  0.5146  0.2131
  177SOPE   H8R20148   4.745   3.405   9.840 -0.7196  0.4995 -0.1493
  177SOPE   H8S20149   4.822   3.303   9.945 -0.9495 -1.4186  2.1359
  177SOPE   C2920150   4.768   3.199   9.760  0.4125 -0.7768 -0.2379
  177SOPE   H9120151   4.773   3.095   9.796 -2.2121 -0.9131 -0.1497
  177SOPE  C21020152   4.762   3.228   9.626 -0.5255  0.0846 -0.2177
  177SOPE  H10120153   4.800   3.148   9.560 -0.8395 -2.0197  2.0707
  177SOPE  C21120154   4.734   3.356   9.550 -0.2186  0.0122  0.9503
  177SOPE  H11R20155   4.737   3.439   9.624 -1.0706  0.6885  0.2403
  177SOPE  H11S20156   4.631   3.351   9.508 -0.2502 -0.7808  1.1173
  177SOPE  C21220157   4.820   3.389   9.427 -0.2350 -0.1132  0.2724
  177SOPE  H12R20158   4.926   3.381   9.458 -0.8475 -0.2122  2.3778
  177SOPE  H12S20159   4.804   3.498   9.412  0.4701 -0.1638 -0.8986
  177SOPE  C21320160   4.809   3.294   9.302  0.1328 -0.7895 -0.2736
  177SOPE  H13R20161   4.704   3.260   9.293  0.2163 -0.8143 -1.2215
  177SOPE  H13S20162   4.870   3.202   9.317 -0.0955 -1.1437 -1.4894
  177SOPE  C21420163   4.842   3.349   9.161  0.1721  0.1525 -0.1697
  177SOPE  H14R20164   4.946   3.384   9.148  0.0455  0.0206 -1.5518
  177SOPE  H14S20165   4.779   3.440   9.148  1.0073  0.6088 -1.0136
  177SOPE  C21520166   4.818   3.248   9.049 -0.5082  0.1896  0.5893
  177SOPE  H15R20167   4.710   3.234   9.030  0.1749 -1.7444 -2.1708
  177SOPE  H15S20168   4.845   3.147   9.086  1.9619  1.1387  1.5348
  177SOPE  C21620169   4.889   3.279   8.913  0.4189  0.8495  0.6249
  177SOPE  H16R20170   4.894   3.181   8.861  1.7256  0.5127  1.3678
  177SOPE  H16S20171   4.988   3.328   8.923  0.2555  1.4067 -0.4308
  177SOPE  C21720172   4.812   3.374   8.824 -0.3262  0.6957 -0.4304
  177SOPE  H17R20173   4.795   3.458   8.895  0.2391  0.8427 -0.4641
  177SOPE  H17S20174   4.718   3.332   8.783 -1.6117  3.0504  0.0103
  177SOPE  C21820175   4.886   3.428   8.703 -0.4235 -0.4704 -0.0772
  177SOPE  H18R20176   4.896   3.347   8.627 -2.1848 -0.0406 -0.7837
  177SOPE  H18S20177   4.981   3.477   8.731 -1.4254 -0.3928  3.5041
  177SOPE  H18T20178   4.830   3.516   8.664 -1.4615  0.3328  3.1005
  177SOPE   C3320179   4.548   2.623  10.232  0.5874 -0.3208  0.2927
  177SOPE   H3X20180   4.587   2.532  10.282  1.6738 -1.1363 -1.9905
  177SOPE   H3Y20181   4.577   2.712  10.292  0.4140 -0.2332  0.2478
  177SOPE   C3420182   4.626   2.619  10.092 -0.0967  0.0615  0.1740
  177SOPE   H4X20183   4.643   2.513  10.063 -1.1383 -0.1796  0.4242
  177SOPE   H4Y20184   4.722   2.668  10.117 -0.4858  1.1804 -0.4658
  177SOPE   C3520185   4.556   2.708   9.982 -0.4257  0.1441 -0.2301
  177SOPE   H5X20186   4.543   2.813  10.017  2.1056  0.1832  0.6913
  177SOPE   H5Y20187   4.453   2.677   9.953  0.8904 -3.7378 -1.0850
  177SOPE   C3620188   4.641   2.726   9.853  0.5947 -0.0628  0.1076
  177SOPE   H6X20189   4.636   2.623   9.810 -0.3836  0.4124 -0.9354
  177SOPE   H6Y20190   4.745   2.752   9.879  0.4241 -0.1343  0.8662
  177SOPE   C3720191   4.592   2.824   9.744 -0.0719 -0.9960 -0.1045
  177SOPE   H7X20192   4.586   2.926   9.789  1.7041  0.3239 -2.6989
  177SOPE   H7Y20193   4.492   2.792   9.708 -0.3068  0.7210 -1.0183
  177SOPE   C3820194   4.692   2.842   9.629  0.3101  0.3106  0.0340
  177SOPE   H8X20195   4.723   2.736   9.618  1.1346  0.6719 -1.3313
  177SOPE   H8Y20196   4.776   2.905   9.665  0.1898  1.1036 -1.0508
  177SOPE   C3920197   4.650   2.894   9.492  0.2211  0.1082 -0.3451
  177SOPE   H9X20198   4.642   3.004   9.499 -2.0411  0.1124 -2.2898
  177SOPE   H9Y20199   4.543   2.875   9.468 -0.2663 -0.4980  2.1649
  177SOPE  C31020200   4.746   2.862   9.376 -0.3959 -0.1391 -0.0912
  177SOPE  H10X20201   4.748   2.751   9.370 -0.1722 -0.1726  0.4706
  177SOPE  H10Y20202   4.851   2.892   9.398 -0.1717 -0.7596 -0.3079
  177SOPE  C31120203   4.702   2.915   9.239 -0.1587 -0.1807  0.6405
  177SOPE  H11X20204   4.700   3.025   9.251  1.0520 -0.2775  1.9549
  177SOPE  H11Y20205   4.599   2.894   9.206 -0.5080 -1.0890  2.2158
  177SOPE  C31220206   4.809   2.866   9.134 -0.3320  0.2008  0.0945
  177SOPE  H12X20207   4.903   2.902   9.182 -0.3861 -0.2517  0.5493
  177SOPE  H12Y20208   4.799   2.915   9.035  1.3040  0.0520 -0.1704
  177SOPE  C31320209   4.830   2.710   9.119 -0.3243 -0.1070  0.4995
  177SOPE  H13X20210   4.735   2.661   9.085 -0.4008 -0.7722  1.6560
  177SOPE  H13Y20211   4.858   2.661   9.214 -0.9713 -0.2970  0.5996
  177SOPE  C31420212   4.939   2.668   9.023 -0.4318  0.4579 -0.0775
  177SOPE  H14X20213   5.027   2.720   9.066 -1.6097 -1.7652  5.4500
  177SOPE  H14Y20214   4.929   2.709   8.920 -1.9091  0.8333  0.2067
  177SOPE  C31520215   4.957   2.517   9.020  0.1914 -1.0967  0.0049
  177SOPE  H15X20216   4.870   2.459   8.983  0.8437 -1.4591 -0.9766
  177SOPE  H15Y20217   4.986   2.501   9.125  2.5364 -1.3731 -0.6592
  177SOPE  C31620218   5.061   2.480   8.908 -1.1076 -0.2209 -0.1300
  177SOPE  H16X20219   5.164   2.491   8.949 -0.8085  1.4190 -1.2569
  177SOPE  H16Y20220   5.047   2.552   8.824  0.9215  0.1197 -0.1924
  177SOPE  C31720221   5.050   2.329   8.866 -0.7833 -0.2680  0.1365
  177SOPE  H17X20222   4.948   2.326   8.822 -0.2570 -0.9237 -1.0723
  177SOPE  H17Y20223   5.044   2.277   8.964  0.4849  0.2139  0.4766
  177SOPE  C31820224   5.151   2.280   8.773  0.2664 -0.6472 -0.0897
  177SOPE  H18X20225   5.137   2.172   8.748 -0.6278 -0.8303  1.1579
  177SOPE  H18Y20226   5.246   2.289   8.831  0.6481  0.1129 -0.8280
  177SOPE  H18Z20227   5.155   2.342   8.681  1.5754 -0.9239 -0.2377
  178SOPE     N20228   2.879   1.368  10.680 -0.1199 -0.6334 -0.3678
  178SOPE   HN120229   2.820   1.321  10.752 -2.1521  1.3767 -0.6690
  178SOPE   HN220230   2.915   1.289  10.622  0.4260 -0.3065 -0.4778
  178SOPE   HN320231   2.960   1.421  10.716  0.7022 -2.2135  0.1579
  178SOPE   C1220232   2.778   1.454  10.602  0.3325  0.2299 -0.4413
  178SOPE  H12A20233   2.823   1.513  10.519  1.2121 -0.4630 -0.4499
  178SOPE  H12B20234   2.740   1.526  10.678 -0.7303 -1.9431  1.1485
  178SOPE   C1120235   2.656   1.361  10.557 -0.1952 -0.5703 -0.0277
  178SOPE  H11A20236   2.689   1.275  10.496 -0.7184 -0.1387 -0.9351
  178SOPE  H11B20237   2.601   1.424  10.484  1.8995  0.8073 -0.4620
  178SOPE     P20238   2.586   1.183  10.735  0.5650  0.0301  0.1349
  178SOPE   O1320239   2.467   1.162  10.822 -0.1244 -0.1080  0.6032
  178SOPE   O1420240   2.715   1.188  10.804 -0.1235 -0.2655  0.4341
  178SOPE   O1220241   2.565   1.328  10.664 -0.0260  0.2253  0.2284
  178SOPE   O1120242   2.588   1.087  10.621  0.0188 -0.9086  0.2117
  178SOPE    C120243   2.521   1.086  10.500 -0.3214  0.7230 -0.2522
  178SOPE    HA20244   2.584   1.099  10.409  2.1011 -0.3107  1.2236
  178SOPE    HB20245   2.453   1.173  10.497 -0.7417  0.3734 -1.5014
  178SOPE    C220246   2.438   0.962  10.473 -0.0478  0.4322  0.9565
  178SOPE    HS20247   2.396   0.935  10.573 -0.5190 -1.6219  0.2295
  178SOPE   O2120248   2.514   0.857  10.421 -0.8555  0.2914 -0.1762
  178SOPE   C2120249   2.467   0.732  10.439  0.1839  0.3348 -0.0209
  178SOPE   O2220250   2.363   0.710  10.491  0.0764 -0.1300  0.1851
  178SOPE   C2220251   2.562   0.631  10.374 -0.3014  0.2629 -0.8406
  178SOPE   H2R20252   2.555   0.539  10.436 -3.4063 -0.1724 -1.7282
  178SOPE   H2S20253   2.664   0.675  10.376  0.7519 -2.1574 -0.0791
  178SOPE    C320254   2.313   0.992  10.387 -0.3703  0.1090 -0.5623
  178SOPE    HX20255   2.236   1.053  10.439 -1.2375 -1.6921  0.3125
  178SOPE    HY20256   2.255   0.898  10.381 -0.8548  0.3642  0.0112
  178SOPE   O3120257   2.345   1.047  10.259  0.1871  0.1675 -0.0519
  178SOPE   C3120258   2.244   1.068  10.175 -0.2880 -0.5190 -0.1003
  178SOPE   O3220259   2.130   1.058  10.213 -0.0613 -0.2528  0.2093
  178SOPE   C3220260   2.284   1.083  10.028  0.1881  0.2668  0.3242
  178SOPE   H2X20261   2.347   0.995  10.004  3.2974  1.6661  2.8420
  178SOPE   H2Y20262   2.361   1.164  10.018  0.2550  0.1383 -0.2090
  178SOPE   C2320263   2.524   0.597  10.226 -0.6903 -0.3443 -0.3713
  178SOPE   H3R20264   2.420   0.559  10.219 -0.6305 -1.1534  2.5727
  178SOPE   H3S20265   2.580   0.504  10.203 -0.8338 -0.1443 -1.5391
  178SOPE   C2420266   2.548   0.708  10.124  0.2597  0.0117  0.3084
  178SOPE   H4R20267   2.499   0.804  10.152 -0.0455 -0.7055  2.3511
  178SOPE   H4S20268   2.656   0.735  10.125 -0.3154  2.4792 -0.2053
  178SOPE   C2520269   2.493   0.668   9.987  0.0759 -0.0236  0.9263
  178SOPE   H5R20270   2.522   0.563   9.965 -1.9693 -0.1500 -1.4155
  178SOPE   H5S20271   2.383   0.657   9.997 -0.1118 -0.2907 -1.1256
  178SOPE   C2620272   2.538   0.762   9.872  0.3583 -0.4577  0.6436
  178SOPE   H6R20273   2.509   0.867   9.893 -2.7327 -1.1418  0.0877
  178SOPE   H6S20274   2.648   0.753   9.857  0.5033 -2.0993  2.4618
  178SOPE   C2720275   2.478   0.736   9.736 -0.1703  0.5521 -0.4159
  178SOPE   H7R20276   2.484   0.633   9.694 -0.9005  2.2789 -5.0098
  178SOPE   H7S20277   2.370   0.754   9.759 -0.6133 -1.5768 -0.7284
  178SOPE   C2820278   2.529   0.847   9.638 -0.7076  0.8295  0.2952
  178SOPE   H8R20279   2.566   0.934   9.696 -0.4439  0.8227  0.1382
  178SOPE   H8S20280   2.627   0.821   9.592 -0.9653  2.2173 -1.0705
  178SOPE   C2920281   2.434   0.901   9.540  0.0084  0.2954  0.1052
  178SOPE   H9120282   2.379   0.990   9.572 -0.1235  0.4462 -0.5262
  178SOPE  C21020283   2.411   0.846   9.417 -0.3735  0.1959  0.6447
  178SOPE  H10120284   2.344   0.891   9.342 -0.5087 -0.2355  0.5052
  178SOPE  C21120285   2.483   0.720   9.379 -0.7984  0.2786  0.6155
  178SOPE  H11R20286   2.405   0.654   9.335 -0.9220  1.6136 -1.2214
  178SOPE  H11S20287   2.523   0.658   9.462 -1.2995  0.3601  0.9126
  178SOPE  C21220288   2.598   0.734   9.276 -0.2506  0.2728 -0.3257
  178SOPE  H12R20289   2.645   0.635   9.264  1.5049  1.2928 -2.2542
  178SOPE  H12S20290   2.684   0.796   9.311  0.1876 -0.5291  0.0182
  178SOPE  C21320291   2.543   0.767   9.137  0.4613 -0.5093 -0.0777
  178SOPE  H13R20292   2.480   0.858   9.141  2.1127  0.5808  1.7140
  178SOPE  H13S20293   2.472   0.687   9.107  2.1925 -1.8201 -0.7938
  178SOPE  C21420294   2.659   0.781   9.042 -0.2523 -0.2699  0.6388
  178SOPE  H14R20295   2.700   0.682   9.013  0.3054 -0.0886  0.8146
  178SOPE  H14S20296   2.740   0.839   9.091  0.2704 -1.4366  1.1723
  178SOPE  C21520297   2.611   0.847   8.906  0.5733  0.5607  0.3170
  178SOPE  H15R20298   2.579   0.951   8.926 -3.3009 -0.3159 -0.8071
  178SOPE  H15S20299   2.523   0.799   8.857  1.1424 -1.7943  1.5050
  178SOPE  C21620300   2.733   0.857   8.812  0.3881 -0.6838 -0.0209
  178SOPE  H16R20301   2.812   0.910   8.869  0.8745  2.5813 -3.5519
  178SOPE  H16S20302   2.698   0.927   8.733 -0.3408 -2.5341 -1.3648
  178SOPE  C21720303   2.774   0.725   8.747 -0.0298 -0.4728  0.6562
  178SOPE  H17R20304   2.682   0.689   8.698 -1.2707  0.8386  1.9717
  178SOPE  H17S20305   2.808   0.656   8.828  0.7867  0.7358  1.3601
  178SOPE  C21820306   2.880   0.739   8.644 -0.1753 -0.0563  0.2319
  178SOPE  H18R20307   2.850   0.775   8.543 -0.4007 -2.1388 -0.4647
  178SOPE  H18S20308   2.909   0.633   8.623 -0.4985  0.2903 -2.2007
  178SOPE  H18T20309   2.973   0.790   8.676  0.1206  0.3320 -1.1764
  178SOPE   C3320310   2.178   1.116   9.920  0.5568  0.1154 -0.4170
  178SOPE   H3X20311   2.125   1.212   9.939 -2.1129 -1.4709  0.5258
  178SOPE   H3Y20312   2.102   1.038   9.942  1.3751 -0.2941  1.0396
  178SOPE   C3420313   2.231   1.101   9.780 -0.3772  0.0236 -0.3946
  178SOPE   H4X20314   2.293   1.009   9.770  1.6691  1.2762  0.4599
  178SOPE   H4Y20315   2.298   1.186   9.753  0.1092 -0.6837 -1.4606
  178SOPE   C3520316   2.140   1.098   9.660  0.6928 -0.0817  0.0594
  178SOPE   H5X20317   2.190   1.101   9.561  0.1265 -0.2839 -0.2320
  178SOPE   H5Y20318   2.084   1.193   9.660 -1.7980 -1.4930  0.5289
  178SOPE   C3620319   2.041   0.979   9.659  0.0824  0.5215 -0.3491
  178SOPE   H6X20320   1.997   0.973   9.761  0.4589 -0.7868 -0.2597
  178SOPE   H6Y20321   2.085   0.882   9.628  0.7309  0.6315  0.2142
  178SOPE   C3720322   1.922   0.995   9.571  0.1690 -0.3689  0.4111
  178SOPE   H7X20323   1.870   1.089   9.600 -1.0975 -0.0273 -2.8256
  178SOPE   H7Y20324   1.851   0.915   9.602 -0.5853  0.1592  0.0733
  178SOPE   C3820325   1.941   1.008   9.421 -0.9152  0.1145 -0.1508
  178SOPE   H8X20326   2.010   0.922   9.406 -0.5388  0.8759 -2.9940
  178SOPE   H8Y20327   1.995   1.103   9.403  0.6921 -0.9734 -1.1972
  178SOPE   C3920328   1.809   1.000   9.342 -1.2535  0.3789  0.3673
  178SOPE   H9X20329   1.745   1.087   9.365 -0.1589  1.1439  0.5866
  178SOPE   H9Y20330   1.753   0.911   9.378 -2.4084 -0.1815 -2.7001
  178SOPE  C31020331   1.839   0.983   9.193  0.6305  0.0092  0.9912
  178SOPE  H10X20332   1.881   1.082   9.164 -0.1905 -0.2989 -1.3591
  178SOPE  H10Y20333   1.747   0.963   9.135  0.5684  1.0402  0.7252
  178SOPE  C31120334   1.930   0.864   9.159 -0.3024 -0.7077  0.3400
  178SOPE  H11X20335   1.889   0.778   9.216 -5.1567  0.8952 -0.5170
  178SOPE  H11Y20336   2.027   0.888   9.207 -1.5129  1.7513  1.5927
  178SOPE  C31220337   1.950   0.838   9.010 -0.8401 -0.1684 -0.7564
  178SOPE  H12X20338   1.856   0.799   8.963  0.2211 -1.4418 -1.8636
  178SOPE  H12Y20339   2.021   0.753   9.004 -0.4110  0.2423 -1.5287
  178SOPE  C31320340   2.002   0.960   8.931  0.2404 -0.5245  0.4546
  178SOPE  H13X20341   2.099   0.976   8.983  0.9385  2.7845 -1.7534
  178SOPE  H13Y20342   1.930   1.044   8.928  2.8794  1.7671 -1.6799
  178SOPE  C31420343   2.045   0.928   8.780  0.0662 -0.1216  0.1738
  178SOPE  H14X20344   2.080   1.027   8.743  1.1545 -0.6847 -0.3382
  178SOPE  H14Y20345   1.948   0.914   8.727  0.5708  0.3159 -0.8671
  178SOPE  C31520346   2.151   0.821   8.778 -0.9516  0.0929 -1.0221
  178SOPE  H15X20347   2.110   0.727   8.821  0.0292  0.8717  1.6957
  178SOPE  H15Y20348   2.233   0.848   8.848 -0.4267 -1.3716 -1.0740
  178SOPE  C31620349   2.218   0.803   8.637  0.3889 -0.2958  0.8050
  178SOPE  H16X20350   2.139   0.781   8.563  1.1231 -2.6969  0.7086
  178SOPE  H16Y20351   2.282   0.712   8.631  1.0190  0.0595  1.8118
  178SOPE  C31720352   2.295   0.926   8.580  0.1104 -0.1041 -0.7141
  178SOPE  H17X20353   2.367   0.959   8.658  1.3753 -1.4318 -1.2759
  178SOPE  H17Y20354   2.221   1.008   8.568 -1.2198 -1.2510 -0.4228
  178SOPE  C31820355   2.363   0.892   8.447  0.1410  0.2062  0.9350
  178SOPE  H18X20356   2.471   0.888   8.473 -0.2284 -1.1761  2.3664
  178SOPE  H18Y20357   2.339   0.975   8.378 -1.4017  0.2396  1.4713
  178SOPE  H18Z20358   2.318   0.800   8.403  0.6810  0.9902 -1.3398
  179SOPE     N20359   0.924   1.611   6.511  0.5961  0.2223  0.2381
  179SOPE   HN120360   0.980   1.679   6.454  0.1170  1.4475  1.2068
  179SOPE   HN220361   0.953   1.517   6.477  0.0419 -0.2346  1.0438
  179SOPE   HN320362   0.829   1.621   6.470  2.3158  3.8716 -3.2850
  179SOPE   C1220363   0.921   1.605   6.659 -0.1511  0.5355  0.0735
  179SOPE  H12A20364   1.026   1.611   6.695 -0.3302  1.5312  0.4463
  179SOPE  H12B20365   0.883   1.503   6.681 -1.9490  1.1226 -0.2483
  179SOPE   C1120366   0.822   1.714   6.715 -1.0034 -0.2932 -0.4638
  179SOPE  H11A20367   0.851   1.721   6.822  2.2774 -0.6208 -1.2980
  179SOPE  H11B20368   0.716   1.683   6.701 -0.8181 -0.8190 -0.7041
  179SOPE     P20369   0.731   1.938   6.611 -0.3195 -0.4525  0.3459
  179SOPE   O1320370   0.630   1.847   6.550 -0.0173  0.1627 -0.2490
  179SOPE   O1420371   0.785   2.040   6.516  0.1765 -0.5056 -0.6146
  179SOPE   O1220372   0.851   1.847   6.661 -0.7913  0.2048  0.3129
  179SOPE   O1120373   0.664   2.003   6.734  0.4382  0.1907 -0.0431
  179SOPE    C120374   0.740   2.093   6.819 -0.1625 -0.1880 -0.1410
  179SOPE    HA20375   0.675   2.184   6.819 -1.4737 -1.1093 -0.7724
  179SOPE    HB20376   0.832   2.133   6.771 -0.5327  1.1994  0.2638
  179SOPE    C220377   0.764   2.035   6.974  0.2126  0.5581  1.0415
  179SOPE    HS20378   0.825   1.943   6.961  1.6856  1.3278  2.3214
  179SOPE   O2120379   0.630   2.013   7.029 -0.0264 -0.2076  0.1108
  179SOPE   C2120380   0.626   1.921   7.122 -0.5681 -0.0836 -0.0467
  179SOPE   O2220381   0.719   1.853   7.162  0.0910 -0.1253  0.5751
  179SOPE   C2220382   0.489   1.911   7.177 -0.3974  0.1255 -0.1884
  179SOPE   H2R20383   0.440   1.820   7.137 -0.0441 -0.1308 -0.0461
  179SOPE   H2S20384   0.438   2.007   7.154 -1.2042  0.0341  1.1286
  179SOPE    C320385   0.845   2.137   7.058 -0.1598  0.7060 -0.3649
  179SOPE    HX20386   0.789   2.232   7.063  0.2542  0.9554 -0.4238
  179SOPE    HY20387   0.940   2.166   7.006  0.0860  2.6734  1.1563
  179SOPE   O3120388   0.867   2.099   7.198  0.2224  0.6085  0.5280
  179SOPE   C3120389   0.974   2.026   7.217  0.4468 -0.1808 -0.3480
  179SOPE   O3220390   1.063   2.016   7.133 -0.0718 -0.2147 -0.0394
  179SOPE   C3220391   0.978   1.947   7.353 -0.2874 -0.3596 -0.3904
  179SOPE   H2X20392   0.982   1.840   7.323  1.5180 -0.3958 -0.0806
  179SOPE   H2Y20393   0.886   1.962   7.414 -0.0299  0.2116 -0.1425
  179SOPE   C2320394   0.497   1.900   7.331  0.6757 -0.6057 -0.6734
  179SOPE   H3R20395   0.579   1.837   7.371 -0.8194 -2.0859  0.0861
  179SOPE   H3S20396   0.400   1.862   7.368 -0.3044  2.8210  0.4935
  179SOPE   C2420397   0.501   2.042   7.380 -0.3299 -0.5608 -0.1894
  179SOPE   H4R20398   0.598   2.074   7.337 -2.2611  4.0669 -1.4244
  179SOPE   H4S20399   0.418   2.101   7.335  1.0510  0.1686 -1.8511
  179SOPE   C2520400   0.481   2.072   7.524  0.0876  0.2491  0.5912
  179SOPE   H5R20401   0.482   2.179   7.552  2.0992  0.0890  1.2467
  179SOPE   H5S20402   0.376   2.039   7.540 -0.5160  2.0735  0.4370
  179SOPE   C2620403   0.584   1.998   7.607  0.1372  0.2563 -0.8140
  179SOPE   H6R20404   0.579   1.888   7.592  0.0689  0.1752 -0.1893
  179SOPE   H6S20405   0.682   2.038   7.575  0.0591  1.9888  1.0019
  179SOPE   C2720406   0.563   2.028   7.757  0.9479  0.0528  0.2263
  179SOPE   H7R20407   0.582   2.137   7.769  1.6448  0.3111 -2.7390
  179SOPE   H7S20408   0.457   2.007   7.784  1.6746 -3.6663  0.4768
  179SOPE   C2820409   0.662   1.955   7.863 -0.0780  0.3723 -0.3885
  179SOPE   H8R20410   0.769   1.973   7.840  0.6595  0.3412  2.7558
  179SOPE   H8S20411   0.643   2.005   7.961 -0.5198  1.0089 -0.7908
  179SOPE   C2920412   0.658   1.802   7.860  0.7303  0.6209  0.2734
  179SOPE   H9120413   0.617   1.769   7.764  0.9083 -0.8167  0.6841
  179SOPE  C21020414   0.676   1.714   7.964 -0.7279  0.1564  0.1008
  179SOPE  H10120415   0.683   1.606   7.943  0.4253  0.3100 -0.3748
  179SOPE  C21120416   0.714   1.743   8.105 -0.0860  0.1398  0.3175
  179SOPE  H11R20417   0.701   1.851   8.127  1.8376  0.1151  1.8005
  179SOPE  H11S20418   0.824   1.729   8.110 -0.1424  0.3038  2.8295
  179SOPE  C21220419   0.629   1.664   8.202  0.1201 -0.3077  0.2028
  179SOPE  H12R20420   0.633   1.555   8.183 -2.6518 -0.2741 -0.7821
  179SOPE  H12S20421   0.524   1.696   8.183 -0.4985 -0.4959  3.0801
  179SOPE  C21320422   0.663   1.687   8.353  0.5099  0.7085 -0.7727
  179SOPE  H13R20423   0.773   1.667   8.357  0.3232  0.0159  1.3348
  179SOPE  H13S20424   0.629   1.615   8.430 -0.6284 -0.7728 -2.6199
  179SOPE  C21420425   0.639   1.833   8.397  0.4509  0.5560 -0.0464
  179SOPE  H14R20426   0.531   1.851   8.419  0.4928  2.3734 -1.2598
  179SOPE  H14S20427   0.675   1.897   8.314  1.5112  1.3639  1.0210
  179SOPE  C21520428   0.715   1.856   8.527 -0.1984 -0.3012 -0.3978
  179SOPE  H15R20429   0.822   1.832   8.513  0.3002  1.7793 -0.3019
  179SOPE  H15S20430   0.673   1.781   8.597 -0.9294 -2.1689 -2.7991
  179SOPE  C21620431   0.683   1.996   8.591 -0.2692 -0.1957  0.6128
  179SOPE  H16R20432   0.575   1.996   8.619 -0.5472  0.3399 -0.4727
  179SOPE  H16S20433   0.692   2.060   8.501 -1.2254  0.8825  1.2779
  179SOPE  C21720434   0.787   2.030   8.699 -0.1019 -0.1288  0.2879
  179SOPE  H17R20435   0.779   2.139   8.719 -1.2883 -0.4428  1.6121
  179SOPE  H17S20436   0.884   2.015   8.648  1.4267  1.9003  2.4938
  179SOPE  C21820437   0.772   1.955   8.831 -0.4806 -0.1113 -0.1935
  179SOPE  H18R20438   0.847   1.991   8.905 -2.2158  0.8429  1.1504
  179SOPE  H18S20439   0.788   1.845   8.827  0.2927 -0.1168  2.2737
  179SOPE  H18T20440   0.678   1.978   8.887 -0.8215 -0.9398 -0.4238
  179SOPE   C3320441   1.084   1.974   7.458  0.3306  0.2047  0.7961
  179SOPE   H3X20442   1.099   2.079   7.491 -1.3985  0.5779  0.4376
  179SOPE   H3Y20443   1.177   1.923   7.423  1.1561  1.3522  1.2996
  179SOPE   C3420444   1.050   1.889   7.587  0.5702  1.0841 -0.1756
  179SOPE   H4X20445   1.036   1.782   7.562  1.7006  0.7039  0.7351
  179SOPE   H4Y20446   0.951   1.930   7.615  0.2795  2.1285 -2.6243
  179SOPE   C3520447   1.164   1.897   7.691  0.2854 -0.7592  0.4107
  179SOPE   H5X20448   1.185   2.006   7.697  1.6390 -0.8389 -2.0809
  179SOPE   H5Y20449   1.251   1.844   7.646  1.5141  1.0693  0.5795
  179SOPE   C3620450   1.134   1.853   7.829  0.3212  0.4384 -0.0717
  179SOPE   H6X20451   1.175   1.750   7.833  0.6249  0.5162 -1.2006
  179SOPE   H6Y20452   1.025   1.847   7.851  0.6732  0.1925  1.7140
  179SOPE   C3720453   1.202   1.926   7.938 -0.5715 -0.0037  0.4150
  179SOPE   H7X20454   1.163   2.029   7.929 -2.3543 -0.5771  1.2990
  179SOPE   H7Y20455   1.312   1.925   7.919 -0.3573  1.4018  1.5458
  179SOPE   C3820456   1.176   1.858   8.072  0.0082  0.8012 -0.3166
  179SOPE   H8X20457   1.172   1.748   8.052 -2.2211  1.0987 -1.7039
  179SOPE   H8Y20458   1.077   1.892   8.109  0.3619  1.4426  0.0460
  179SOPE   C3920459   1.287   1.895   8.173 -0.8104 -0.6409  0.3502
  179SOPE   H9X20460   1.301   2.005   8.161  0.5190 -0.7434  0.8938
  179SOPE   H9Y20461   1.385   1.857   8.139 -0.1505 -1.1808  2.7520
  179SOPE  C31020462   1.265   1.845   8.317 -0.2083  0.0880  0.6854
  179SOPE  H10X20463   1.254   1.735   8.313 -0.4416  0.1260  0.2374
  179SOPE  H10Y20464   1.172   1.887   8.360 -0.5539  0.3472 -0.3049
  179SOPE  C31120465   1.368   1.871   8.411 -0.3419 -0.0114 -0.1192
  179SOPE  H11X20466   1.337   1.831   8.510  0.4690  0.4749  0.3339
  179SOPE  H11Y20467   1.372   1.979   8.437  2.7121 -0.2080  0.4101
  179SOPE  C31220468   1.517   1.830   8.374  1.2002 -0.1973  0.6331
  179SOPE  H12X20469   1.557   1.889   8.288 -1.4393 -1.3009 -1.4405
  179SOPE  H12Y20470   1.505   1.722   8.353 -2.0850  0.7898 -3.3752
  179SOPE  C31320471   1.619   1.851   8.482  0.0537  0.4567  0.1000
  179SOPE  H13X20472   1.589   1.779   8.561  1.5712 -0.1493  0.1396
  179SOPE  H13Y20473   1.615   1.954   8.524 -0.9771  0.3723  0.2205
  179SOPE  C31420474   1.767   1.834   8.456  0.9040  0.9508 -0.1781
  179SOPE  H14X20475   1.806   1.903   8.379 -1.0896  1.7221 -0.5211
  179SOPE  H14Y20476   1.783   1.726   8.433  1.0318  0.4464  2.1211
  179SOPE  C31520477   1.856   1.850   8.579  0.4070  0.2493  0.2692
  179SOPE  H15X20478   1.815   1.785   8.659 -1.8431 -0.4042 -1.3709
  179SOPE  H15Y20479   1.851   1.958   8.607  1.4119  0.3193  0.1959
  179SOPE  C31620480   2.001   1.814   8.545  0.2068 -0.0676 -0.5026
  179SOPE  H16X20481   2.027   1.883   8.462  3.2398  1.5237  1.6580
  179SOPE  H16Y20482   2.010   1.713   8.500 -0.1851 -0.0069 -0.7156
  179SOPE  C31720483   2.093   1.809   8.659  0.1301 -0.5529  0.0903
  179SOPE  H17X20484   2.072   1.724   8.727 -0.6685 -0.7302 -0.3673
  179SOPE  H17Y20485   2.086   1.906   8.712 -0.4994 -0.5420 -0.0064
  179SOPE  C31820486   2.241   1.775   8.619  0.1023  0.2337  0.1610
  179SOPE  H18X20487   2.313   1.798   8.700 -0.7754 -0.8980  1.2842
  179SOPE  H18Y20488   2.257   1.840   8.530  0.0838 -3.1080 -2.3547
  179SOPE  H18Z20489   2.254   1.670   8.585  0.3271  0.5582 -0.7676
  180SOPE     N20490   6.332   1.649   5.979 -0.1028  0.6787  0.1582
  180SOPE   HN120491   6.254   1.709   6.014  1.2371  2.2998  0.4057
  180SOPE   HN220492   6.405   1.712   5.940 -0.0130  0.0104 -0.7828
  180SOPE   HN320493   6.291   1.590   5.903  0.4353 -1.8325  1.7893
  180SOPE   C1220494   6.380   1.575   6.104 -0.0751 -0.0243 -0.0584
  180SOPE  H12A20495   6.449   1.494   6.071  1.0053  1.5558 -1.7005
  180SOPE  H12B20496   6.293   1.540   6.164 -0.1039  5.2377  3.3144
  180SOPE   C1120497   6.462   1.667   6.190 -0.1041 -0.4526 -0.4649
  180SOPE  H11A20498   6.479   1.624   6.291  2.4375 -1.3350 -1.2298
  180SOPE  H11B20499   6.405   1.760   6.207 -0.0332 -0.2899 -1.1102
  180SOPE     P20500   6.678   1.803   6.196  0.1502 -0.0377 -0.1057
  180SOPE   O1320501   6.614   1.925   6.152  0.6226  1.0203 -0.2154
  180SOPE   O1420502   6.816   1.772   6.163 -0.1258  0.2143  0.7377
  180SOPE   O1220503   6.589   1.691   6.131 -0.0556 -0.2973 -0.5221
  180SOPE   O1120504   6.660   1.794   6.348 -0.6831 -0.1187  0.6237
  180SOPE    C120505   6.609   1.899   6.420  0.1666  0.3915 -0.4133
  180SOPE    HA20506   6.500   1.902   6.401  0.1831  1.3718 -0.3721
  180SOPE    HB20507   6.650   2.000   6.403 -0.9970  0.8182 -0.7421
  180SOPE    C220508   6.620   1.892   6.581  0.5902  0.4333  0.2940
  180SOPE    HS20509   6.727   1.899   6.610  0.6388 -0.9197  0.5042
  180SOPE   O2120510   6.579   1.763   6.630  0.2462  0.4515 -0.8532
  180SOPE   C2120511   6.672   1.667   6.622 -0.2021 -1.0141 -0.2822
  180SOPE   O2220512   6.790   1.683   6.597 -0.3629  0.1509 -0.1864
  180SOPE   C2220513   6.608   1.534   6.658 -0.2827 -0.3096 -0.4380
  180SOPE   H2R20514   6.596   1.478   6.562  2.7280 -2.4911  0.3808
  180SOPE   H2S20515   6.507   1.539   6.703 -0.6599 -0.4446 -1.2538
  180SOPE    C320516   6.548   2.005   6.656  0.6134 -0.5086  0.7419
  180SOPE    HX20517   6.444   2.022   6.622  0.0576  1.6357  3.2828
  180SOPE    HY20518   6.597   2.092   6.606 -1.1991 -0.6154 -1.2810
  180SOPE   O3120519   6.560   1.991   6.798 -0.4238  0.3036  0.7126
  180SOPE   C3120520   6.448   1.976   6.870 -0.0753  0.1166  1.2987
  180SOPE   O3220521   6.336   1.981   6.821 -0.2060 -0.2818 -0.4228
  180SOPE   C3220522   6.476   1.965   7.017 -0.1545  0.5711  0.4887
  180SOPE   H2X20523   6.557   2.032   7.052  0.2174  0.4206 -0.0693
  180SOPE   H2Y20524   6.497   1.856   7.030  0.6221  0.6069 -0.3546
  180SOPE   C2320525   6.719   1.450   6.735  0.3626 -0.0782 -0.2464
  180SOPE   H3R20526   6.811   1.440   6.674 -0.2815 -0.0405 -1.2369
  180SOPE   H3S20527   6.689   1.343   6.747 -0.1459 -0.0640 -1.3274
  180SOPE   C2420528   6.744   1.489   6.880  0.0722 -0.4042  0.1297
  180SOPE   H4R20529   6.805   1.406   6.922  0.1713 -0.3434  0.1076
  180SOPE   H4S20530   6.796   1.587   6.888  1.1223 -0.8148 -1.4657
  180SOPE   C2520531   6.620   1.497   6.968 -1.1109 -0.2713 -0.6024
  180SOPE   H5R20532   6.562   1.588   6.939 -1.0813 -0.8773 -2.6769
  180SOPE   H5S20533   6.540   1.420   6.961  0.0842 -1.4832 -1.1852
  180SOPE   C2620534   6.660   1.514   7.114 -0.5256 -0.6448 -0.3429
  180SOPE   H6R20535   6.692   1.412   7.146 -0.1046 -0.8649 -1.4360
  180SOPE   H6S20536   6.734   1.594   7.135 -0.6413 -0.6436  0.0482
  180SOPE   C2720537   6.538   1.558   7.202  0.5710  0.2065 -0.2626
  180SOPE   H7R20538   6.518   1.657   7.155 -3.7316 -0.6542 -0.5083
  180SOPE   H7S20539   6.449   1.494   7.182 -0.5898  1.0961  1.8224
  180SOPE   C2820540   6.561   1.579   7.352  0.2551 -0.4961 -0.1722
  180SOPE   H8R20541   6.668   1.608   7.360  0.5878 -0.7663 -3.1642
  180SOPE   H8S20542   6.502   1.662   7.398 -1.5137 -1.7596 -0.0871
  180SOPE   C2920543   6.528   1.456   7.428 -0.7832 -0.5039  0.2733
  180SOPE   H9120544   6.460   1.388   7.376 -3.5322  1.7440  0.8075
  180SOPE  C21020545   6.553   1.436   7.553  1.1124 -0.5524 -0.2012
  180SOPE  H10120546   6.530   1.333   7.583 -0.3667 -1.1018 -3.1344
  180SOPE  C21120547   6.605   1.533   7.656  1.0865 -0.0046  0.1388
  180SOPE  H11R20548   6.604   1.640   7.623 -2.2483 -0.5088 -1.6162
  180SOPE  H11S20549   6.709   1.514   7.689  1.0066 -0.6750 -0.0062
  180SOPE  C21220550   6.530   1.533   7.789 -0.0331 -0.2061 -0.1312
  180SOPE  H12R20551   6.422   1.544   7.766 -0.6177 -0.5345  2.3139
  180SOPE  H12S20552   6.572   1.624   7.835 -3.4112  1.8428 -0.9525
  180SOPE  C21320553   6.562   1.414   7.871 -0.1965 -0.0294  0.0034
  180SOPE  H13R20554   6.671   1.408   7.891 -0.4867  1.0829  2.1275
  180SOPE  H13S20555   6.530   1.318   7.827  1.1168  0.3464 -1.8293
  180SOPE  C21420556   6.479   1.435   8.004 -0.0677  0.3877 -0.5058
  180SOPE  H14R20557   6.372   1.427   7.975 -0.2379 -1.8990  0.6439
  180SOPE  H14S20558   6.496   1.539   8.041 -1.8276  0.9536 -1.2328
  180SOPE  C21520559   6.510   1.327   8.106 -0.6653 -0.3661 -0.4097
  180SOPE  H15R20560   6.428   1.336   8.181 -1.6466  0.8601 -1.6294
  180SOPE  H15S20561   6.614   1.351   8.137 -1.1820  0.8621  0.4190
  180SOPE  C21620562   6.505   1.183   8.053  0.2179 -0.2409 -0.2117
  180SOPE  H16R20563   6.584   1.164   7.978  1.5700  1.0019  0.8787
  180SOPE  H16S20564   6.411   1.178   7.993 -0.0291 -0.2157  0.1735
  180SOPE  C21720565   6.509   1.060   8.144  0.2461 -0.4248  0.3748
  180SOPE  H17R20566   6.613   1.032   8.169 -0.1809 -2.1267  0.3361
  180SOPE  H17S20567   6.472   0.969   8.092  1.0100  1.0748 -2.8824
  180SOPE  C21820568   6.423   1.067   8.262  0.7627  0.4478 -0.5520
  180SOPE  H18R20569   6.319   1.102   8.250  0.9128  0.4965 -1.7812
  180SOPE  H18S20570   6.467   1.145   8.327 -0.7498 -0.6869  1.9188
  180SOPE  H18T20571   6.431   0.969   8.314  1.2428  0.2660 -0.9615
  180SOPE   C3320572   6.342   1.975   7.103 -0.0435  0.6364  0.5763
  180SOPE   H3X20573   6.250   1.930   7.059  2.6267 -1.4634 -3.0995
  180SOPE   H3Y20574   6.316   2.082   7.113 -0.1950  0.6025  0.5432
  180SOPE   C3420575   6.365   1.905   7.235  0.4148 -0.1347 -0.3398
  180SOPE   H4X20576   6.469   1.916   7.274  0.5264 -1.4588 -0.2509
  180SOPE   H4Y20577   6.337   1.800   7.212 -1.0225 -0.1454  1.3605
  180SOPE   C3520578   6.274   1.957   7.350  0.1257  0.5470 -0.0869
  180SOPE   H5X20579   6.167   1.957   7.320 -0.2244  0.6228  1.1366
  180SOPE   H5Y20580   6.302   2.057   7.388  0.7884  0.1931  0.3647
  180SOPE   C3620581   6.297   1.863   7.473 -0.2738  0.2954  0.0414
  180SOPE   H6X20582   6.396   1.897   7.509  1.3228 -1.1062 -2.8312
  180SOPE   H6Y20583   6.316   1.761   7.434  1.3792  1.0312 -1.1010
  180SOPE   C3720584   6.186   1.858   7.577  0.3385 -0.3387 -0.4743
  180SOPE   H7X20585   6.102   1.790   7.550  1.4316 -1.4946 -0.9710
  180SOPE   H7Y20586   6.141   1.959   7.590 -0.5008 -0.8881  1.0513
  180SOPE   C3820587   6.237   1.812   7.715 -0.0827 -0.1343  0.1401
  180SOPE   H8X20588   6.317   1.882   7.749 -1.2100  0.7290  1.0617
  180SOPE   H8Y20589   6.287   1.714   7.701  1.6319  0.5844  1.0155
  180SOPE   C3920590   6.131   1.792   7.822  0.2822 -0.4020 -0.1104
  180SOPE   H9X20591   6.162   1.717   7.899 -2.1863  1.3486  2.7095
  180SOPE   H9Y20592   6.039   1.751   7.777 -0.9778 -0.4641  2.4495
  180SOPE  C31020593   6.102   1.931   7.890  0.2815  0.1727  0.4218
  180SOPE  H10X20594   6.070   2.009   7.817 -1.6750 -1.2208 -0.2228
  180SOPE  H10Y20595   6.197   1.964   7.939  1.0417 -1.0931 -0.1786
  180SOPE  C31120596   5.983   1.919   7.984 -0.4108 -0.4344 -0.3778
  180SOPE  H11X20597   5.994   1.832   8.051 -3.4211  0.2980  1.1499
  180SOPE  H11Y20598   5.893   1.904   7.920 -0.3531 -0.5091 -0.4412
  180SOPE  C31220599   5.970   2.040   8.077  0.8673  0.0375 -0.1366
  180SOPE  H12X20600   6.056   2.055   8.146 -0.3031  1.2268  1.0914
  180SOPE  H12Y20601   5.886   2.022   8.147  1.6801 -1.2988  0.5283
  180SOPE  C31320602   5.966   2.175   8.002 -0.4095  0.2781 -0.0101
  180SOPE  H13X20603   5.879   2.168   7.933 -1.8493  1.9565  1.5902
  180SOPE  H13Y20604   6.056   2.196   7.940 -1.2298 -0.3660 -1.4687
  180SOPE  C31420605   5.936   2.289   8.098  0.3747 -0.0973  0.1950
  180SOPE  H14X20606   6.011   2.284   8.180 -0.2015  0.9812  0.8043
  180SOPE  H14Y20607   5.839   2.278   8.151 -0.7237  3.6361 -0.9078
  180SOPE  C31520608   5.939   2.429   8.037  0.0695 -0.2983 -0.2082
  180SOPE  H15X20609   5.880   2.484   8.113 -0.2611  1.1413 -1.4768
  180SOPE  H15Y20610   5.880   2.431   7.943  1.5324 -1.1513 -1.1632
  180SOPE  C31620611   6.076   2.488   8.026  0.5775 -0.0941  0.4078
  180SOPE  H16X20612   6.149   2.439   8.094  1.5156  0.2661 -0.3373
  180SOPE  H16Y20613   6.049   2.591   8.058 -0.1298  0.0157 -0.5245
  180SOPE  C31720614   6.141   2.492   7.885  0.7762 -0.2348 -0.1090
  180SOPE  H17X20615   6.066   2.533   7.814  0.9602 -0.0574 -0.2005
  180SOPE  H17Y20616   6.159   2.390   7.844 -1.2077 -1.4362  1.8452
  180SOPE  C31820617   6.283   2.560   7.878 -0.2566 -0.4335  0.6342
  180SOPE  H18X20618   6.359   2.505   7.939  0.3825  2.0965  2.2242
  180SOPE  H18Y20619   6.274   2.665   7.916  0.7460  0.5504 -1.7583
  180SOPE  H18Z20620   6.311   2.572   7.772 -1.6262 -0.6352  0.2435
  181SOPE     N20621   6.759   6.226   6.094 -0.4582  0.3986 -0.1451
  181SOPE   HN120622   6.707   6.217   6.004 -1.2101 -1.7462  0.4612
  181SOPE   HN220623   6.818   6.311   6.087  0.6824 -0.5168 -2.1240
  181SOPE   HN320624   6.832   6.152   6.105  1.8204  2.6044 -0.0555
  181SOPE   C1220625   6.673   6.223   6.213  0.0593 -0.1317  0.2265
  181SOPE  H12A20626   6.744   6.227   6.299  0.1368 -2.8723  0.3362
  181SOPE  H12B20627   6.626   6.123   6.227 -1.6069  0.6813  0.5307
  181SOPE   C1120628   6.576   6.338   6.216  0.2696 -0.0339 -0.1582
  181SOPE  H11A20629   6.619   6.438   6.192 -0.3034 -0.4102 -2.9271
  181SOPE  H11B20630   6.523   6.351   6.313 -2.9698  2.0539 -2.1371
  181SOPE     P20631   6.331   6.358   6.119  0.0483  0.1674 -0.0199
  181SOPE   O1320632   6.242   6.318   6.010 -0.5718  0.3326 -0.3414
  181SOPE   O1420633   6.352   6.506   6.131 -0.0851  0.1212 -0.0521
  181SOPE   O1220634   6.474   6.294   6.118 -0.5842 -0.6062 -0.3684
  181SOPE   O1120635   6.278   6.312   6.259 -0.6212 -0.2146  0.0840
  181SOPE    C120636   6.288   6.167   6.287  0.0720 -0.1276  0.3587
  181SOPE    HA20637   6.392   6.128   6.288 -1.1525 -3.5386  1.7258
  181SOPE    HB20638   6.227   6.109   6.216 -1.3755 -0.1241  1.5875
  181SOPE    C220639   6.244   6.144   6.434 -0.6284 -0.3118  0.3447
  181SOPE    HS20640   6.251   6.034   6.450 -0.5589 -0.4331 -0.5044
  181SOPE   O2120641   6.111   6.205   6.451 -0.1055  0.3889 -0.0993
  181SOPE   C2120642   6.011   6.146   6.390  0.1662 -0.1883  0.1188
  181SOPE   O2220643   6.012   6.044   6.322  0.4386  0.6030 -0.4000
  181SOPE   C2220644   5.893   6.235   6.418  0.7013 -0.2583  0.0566
  181SOPE   H2R20645   5.809   6.196   6.356  1.8535  0.9347 -2.3281
  181SOPE   H2S20646   5.914   6.339   6.384  3.1088 -0.7851 -0.1992
  181SOPE    C320647   6.340   6.225   6.529  0.8510  0.3435 -0.3928
  181SOPE    HX20648   6.334   6.332   6.499  0.2366  0.2725 -0.5179
  181SOPE    HY20649   6.445   6.190   6.518  0.3171 -1.6905  0.7824
  181SOPE   O3120650   6.306   6.210   6.666  0.1115 -0.9549 -0.6348
  181SOPE   C3120651   6.307   6.095   6.729  0.4512  0.1019  0.2788
  181SOPE   O3220652   6.349   5.993   6.679  0.3262  0.1481 -0.0932
  181SOPE   C3220653   6.245   6.101   6.867 -0.1161 -0.1462 -0.1909
  181SOPE   H2X20654   6.136   6.083   6.860 -0.2688  0.3785  0.7054
  181SOPE   H2Y20655   6.275   6.196   6.916 -1.4774  0.2725 -0.1621
  181SOPE   C2320656   5.864   6.232   6.569  0.1361  0.5803  0.6779
  181SOPE   H3R20657   5.941   6.291   6.624  2.7936 -1.1066 -1.0819
  181SOPE   H3S20658   5.863   6.123   6.593 -0.8863  0.0597 -1.5872
  181SOPE   C2420659   5.730   6.298   6.595  1.4171 -0.0899  0.1751
  181SOPE   H4R20660   5.733   6.396   6.543 -0.6301 -1.1342 -2.0092
  181SOPE   H4S20661   5.639   6.244   6.561 -0.2114  1.5081  1.8807
  181SOPE   C2520662   5.708   6.327   6.746 -0.5768 -0.4506 -0.0561
  181SOPE   H5R20663   5.789   6.391   6.785 -0.5329  0.0260 -0.9320
  181SOPE   H5S20664   5.618   6.392   6.747 -1.9702 -2.2797 -1.9865
  181SOPE   C2620665   5.683   6.205   6.832  0.7911 -0.8658  0.2887
  181SOPE   H6R20666   5.593   6.156   6.788  0.9141 -0.3331 -0.5684
  181SOPE   H6S20667   5.776   6.144   6.831  1.7246  0.5297  1.0869
  181SOPE   C2720668   5.658   6.218   6.985 -0.5451  0.0455 -0.4789
  181SOPE   H7R20669   5.594   6.303   7.017  1.8727  1.9541 -0.5738
  181SOPE   H7S20670   5.607   6.122   7.004 -2.3619  0.9203 -0.8417
  181SOPE   C2820671   5.789   6.210   7.065 -0.0497 -0.0220 -0.2351
  181SOPE   H8R20672   5.841   6.117   7.034  1.3120 -0.0168  1.9089
  181SOPE   H8S20673   5.853   6.290   7.023  1.5350 -0.9325  0.3900
  181SOPE   C2920674   5.772   6.220   7.214  0.1576 -0.4509 -0.0314
  181SOPE   H9120675   5.675   6.261   7.247  0.1097 -0.7436  0.2041
  181SOPE  C21020676   5.859   6.168   7.298  0.0530  0.3705 -0.1084
  181SOPE  H10120677   5.823   6.168   7.401  1.4675  1.6202  0.4100
  181SOPE  C21120678   5.989   6.109   7.268 -0.2714 -0.0803 -0.1964
  181SOPE  H11R20679   6.073   6.166   7.315 -2.1880  1.4393  1.5212
  181SOPE  H11S20680   6.015   6.126   7.162  3.3492  2.2640  0.9464
  181SOPE  C21220681   6.003   5.956   7.286  0.6756  0.5245 -0.2693
  181SOPE  H12R20682   6.105   5.926   7.254  1.6675  1.3636  2.0076
  181SOPE  H12S20683   5.938   5.897   7.219  0.3678 -0.0779  0.5490
  181SOPE  C21320684   5.982   5.897   7.421  0.0261  0.1831 -0.1900
  181SOPE  H13R20685   5.973   5.786   7.418  0.8225  0.0051  2.4762
  181SOPE  H13S20686   5.898   5.936   7.482 -0.9318 -2.8698  0.5693
  181SOPE  C21420687   6.106   5.936   7.504 -0.4114  0.4513  0.2431
  181SOPE  H14R20688   6.105   6.046   7.514  0.8649  0.5336 -0.5241
  181SOPE  H14S20689   6.198   5.901   7.453 -0.2838  2.3688 -0.8870
  181SOPE  C21520690   6.123   5.876   7.644 -0.1628 -0.4315  0.2548
  181SOPE  H15R20691   6.058   5.929   7.717  0.7018 -0.6916  1.2252
  181SOPE  H15S20692   6.228   5.887   7.677 -0.3086 -0.6837  0.8089
  181SOPE  C21620693   6.090   5.727   7.645 -0.2217  0.0093  0.0285
  181SOPE  H16R20694   6.124   5.681   7.550  1.3021  0.8060  0.1771
  181SOPE  H16S20695   5.980   5.716   7.636 -0.1894  1.0265 -1.8895
  181SOPE  C21720696   6.120   5.645   7.771  0.4534 -0.1288  0.0059
  181SOPE  H17R20697   6.231   5.647   7.770  0.4554  2.8154 -0.1536
  181SOPE  H17S20698   6.098   5.537   7.761  1.4293 -0.1842 -1.6429
  181SOPE  C21820699   6.093   5.706   7.904  0.1652  0.5419  0.1992
  181SOPE  H18R20700   5.989   5.689   7.942  1.2272 -0.5366  2.7390
  181SOPE  H18S20701   6.111   5.815   7.915  1.3952  0.2890  0.7373
  181SOPE  H18T20702   6.162   5.659   7.977  1.8312  1.2360 -0.8912
  181SOPE   C3320703   6.291   5.990   6.964  0.2620  0.0845 -0.3220
  181SOPE   H3X20704   6.280   5.892   6.911 -1.9336 -0.3503  0.8863
  181SOPE   H3Y20705   6.216   5.991   7.046  1.1733  1.5229  0.5085
  181SOPE   C3420706   6.429   6.018   7.022 -0.4309 -0.4615 -0.4459
  181SOPE   H4X20707   6.507   6.035   6.944 -0.1985 -0.6114 -0.2463
  181SOPE   H4Y20708   6.456   5.930   7.083  1.6856  0.9406  0.6942
  181SOPE   C3520709   6.443   6.146   7.116  0.7078  0.0244 -0.3228
  181SOPE   H5X20710   6.413   6.239   7.063 -0.3776 -0.1777 -0.0817
  181SOPE   H5Y20711   6.551   6.157   7.137  0.8807  1.2482 -1.7891
  181SOPE   C3620712   6.358   6.122   7.242 -0.0145 -1.4317  0.1504
  181SOPE   H6X20713   6.372   6.018   7.281 -1.3862 -1.8705 -0.5169
  181SOPE   H6Y20714   6.256   6.134   7.201 -0.2057 -0.1999  0.9755
  181SOPE   C3720715   6.379   6.214   7.365 -0.5306  0.4841  0.1228
  181SOPE   H7X20716   6.286   6.224   7.425 -0.4170  0.7342  0.2545
  181SOPE   H7Y20717   6.403   6.313   7.320  0.4373  0.2379  0.0803
  181SOPE   C3820718   6.483   6.170   7.471 -0.4276 -1.1370 -0.4758
  181SOPE   H8X20719   6.579   6.155   7.416 -0.0465  1.7732 -0.6493
  181SOPE   H8Y20720   6.456   6.067   7.502  0.2432 -0.5890  2.0152
  181SOPE   C3920721   6.496   6.273   7.580  0.1089  0.5889  0.4499
  181SOPE   H9X20722   6.407   6.340   7.579 -1.7282 -1.8134  0.1685
  181SOPE   H9Y20723   6.584   6.329   7.540  1.0206  0.0687  1.6937
  181SOPE  C31020724   6.518   6.211   7.720 -0.3468  0.9980  0.4777
  181SOPE  H10X20725   6.562   6.287   7.788  2.8401 -0.0346 -0.3629
  181SOPE  H10Y20726   6.599   6.138   7.703 -0.3389  1.5727 -2.1130
  181SOPE  C31120727   6.387   6.152   7.780 -0.4677 -0.3143 -0.1071
  181SOPE  H11X20728   6.344   6.067   7.723  2.1135 -2.7995  1.5601
  181SOPE  H11Y20729   6.313   6.235   7.789 -0.1140 -0.0065  0.0003
  181SOPE  C31220730   6.402   6.113   7.932 -0.8039  0.5091 -0.7778
  181SOPE  H12X20731   6.498   6.057   7.936  0.5988  2.8980  0.2362
  181SOPE  H12Y20732   6.316   6.057   7.974 -0.1278  0.9061  1.2036
  181SOPE  C31320733   6.413   6.237   8.019 -0.3075  0.2760 -0.0706
  181SOPE  H13X20734   6.329   6.308   8.007  1.3132  2.1496 -0.5886
  181SOPE  H13Y20735   6.506   6.294   7.994  0.7214 -0.0061  2.8433
  181SOPE  C31420736   6.418   6.198   8.172 -0.3687  0.6304 -0.4310
  181SOPE  H14X20737   6.504   6.134   8.200 -0.8071  0.4799  0.5916
  181SOPE  H14Y20738   6.331   6.131   8.193 -1.9746  2.7343 -0.2253
  181SOPE  C31520739   6.435   6.316   8.262 -0.0016  0.1220  0.2853
  181SOPE  H15X20740   6.348   6.386   8.263 -0.0745  0.0237  1.0601
  181SOPE  H15Y20741   6.518   6.382   8.228  0.4905 -0.8113 -0.3504
  181SOPE  C31620742   6.461   6.261   8.402  0.0441 -0.4653 -0.0488
  181SOPE  H16X20743   6.554   6.200   8.404  1.2641  1.3326 -0.3033
  181SOPE  H16Y20744   6.372   6.197   8.418 -0.3078 -0.5330 -2.1402
  181SOPE  C31720745   6.468   6.364   8.516  1.0463 -0.2008 -1.0283
  181SOPE  H17X20746   6.372   6.418   8.506 -0.2596 -2.2641  0.1032
  181SOPE  H17Y20747   6.554   6.430   8.492 -0.1168  2.4937  1.8728
  181SOPE  C31820748   6.480   6.319   8.660  0.5642  0.5552  0.6414
  181SOPE  H18X20749   6.402   6.243   8.678  0.6888  0.0957 -0.6881
  181SOPE  H18Y20750   6.467   6.400   8.735  1.0465 -0.1798  1.5171
  181SOPE  H18Z20751   6.583   6.277   8.669  0.1993 -0.7903 -1.0765
  182SOPE     N20752   0.184   1.579   6.246 -0.3465 -0.7222  0.3732
  182SOPE   HN120753   0.097   1.628   6.217 -0.8473 -0.6649  1.9272
  182SOPE   HN220754   0.225   1.645   6.316  1.1471 -2.5461  1.2879
  182SOPE   HN320755   0.254   1.562   6.171  0.5970  2.2902  0.4838
  182SOPE   C1220756   0.157   1.456   6.329  0.5893  0.6810  0.3431
  182SOPE  H12A20757   0.200   1.481   6.428  0.5162  1.6750  0.1276
  182SOPE  H12B20758   0.208   1.369   6.281 -0.8419  0.5825 -1.0673
  182SOPE   C1120759   0.001   1.426   6.334  0.4507 -0.1665 -0.4981
  182SOPE  H11A20760  -0.056   1.503   6.389  0.2127 -0.9723  0.4008
  182SOPE  H11B20761  -0.004   1.343   6.408 -1.5578  0.8958  0.6079
  182SOPE     P20762  -0.144   1.264   6.200 -0.1782 -0.6248  0.0707
  182SOPE   O1320763  -0.061   1.139   6.213 -0.1898  0.0768  0.1796
  182SOPE   O1420764  -0.224   1.283   6.078 -0.3120  0.3643  0.6078
  182SOPE   O1220765  -0.054   1.390   6.206 -0.6979 -0.6677  0.3278
  182SOPE   O1120766  -0.242   1.278   6.332 -0.1162  0.2251  0.2166
  182SOPE    C120767  -0.374   1.221   6.321 -0.1607 -0.1208  0.0267
  182SOPE    HA20768  -0.377   1.121   6.273 -0.8414  0.5020 -1.2459
  182SOPE    HB20769  -0.435   1.293   6.261  1.2474  1.1330  0.0721
  182SOPE    C220770  -0.433   1.203   6.466 -0.0277  0.2676  0.4599
  182SOPE    HS20771  -0.466   1.300   6.508 -3.3640 -1.3215  1.6576
  182SOPE   O2120772  -0.335   1.139   6.551 -0.7837  0.1896  0.8455
  182SOPE   C2120773  -0.366   1.154   6.682  0.6415  0.5809  0.5896
  182SOPE   O2220774  -0.465   1.211   6.726 -0.3379  0.4202 -0.2129
  182SOPE   C2220775  -0.264   1.097   6.772 -0.2362 -0.4867 -0.5458
  182SOPE   H2R20776  -0.168   1.151   6.760 -1.8945  2.3739 -1.6199
  182SOPE   H2S20777  -0.258   0.992   6.737 -0.6453 -0.2748 -1.2686
  182SOPE    C320778  -0.568   1.132   6.455  0.1440 -0.4537 -0.2280
  182SOPE    HX20779  -0.624   1.192   6.380 -2.3707 -1.3648  0.8511
  182SOPE    HY20780  -0.627   1.133   6.550  2.5100 -0.8372  1.2867
  182SOPE   O3120781  -0.554   0.998   6.408  0.2554  0.1205 -0.1155
  182SOPE   C3120782  -0.612   0.900   6.470  0.0254 -0.7440 -0.2790
  182SOPE   O3220783  -0.689   0.911   6.566 -0.3695  0.0435  0.4599
  182SOPE   C3220784  -0.570   0.762   6.416  0.5259 -0.4430  0.2488
  182SOPE   H2X20785  -0.529   0.779   6.314 -0.8774 -1.1656 -0.4499
  182SOPE   H2Y20786  -0.669   0.711   6.410  0.4852 -0.3737  0.3286
  182SOPE   C2320787  -0.306   1.113   6.918 -0.2148 -0.5812 -0.9167
  182SOPE   H3R20788  -0.394   1.048   6.935 -1.0466  0.7253 -0.1532
  182SOPE   H3S20789  -0.327   1.221   6.932  2.5821  0.0018 -0.8630
  182SOPE   C2420790  -0.191   1.061   7.012  0.0116  0.2994  0.1458
  182SOPE   H4R20791  -0.190   0.950   7.007 -0.2238  0.1889  2.0063
  182SOPE   H4S20792  -0.097   1.102   6.968 -0.3494  0.7017 -0.2552
  182SOPE   C2520793  -0.221   1.105   7.151  0.3449 -0.5402  0.6036
  182SOPE   H5R20794  -0.178   1.207   7.161 -0.8098  0.2081 -1.6258
  182SOPE   H5S20795  -0.326   1.139   7.166  0.8206  0.1817  2.3745
  182SOPE   C2620796  -0.152   1.018   7.258  0.0376  0.1546  0.6174
  182SOPE   H6R20797  -0.214   0.927   7.272 -0.3456  0.5056  1.2682
  182SOPE   H6S20798  -0.051   0.981   7.230  0.1036  1.0998 -0.4352
  182SOPE   C2720799  -0.157   1.097   7.383 -0.1303  0.2714 -0.3674
  182SOPE   H7R20800  -0.096   1.188   7.364 -0.7093  1.1016  1.6633
  182SOPE   H7S20801  -0.263   1.112   7.414  0.2090 -0.5997  1.3036
  182SOPE   C2820802  -0.084   1.025   7.507 -0.3577  0.6880  0.0926
  182SOPE   H8R20803  -0.160   0.953   7.544  1.8315 -1.0251  1.3435
  182SOPE   H8S20804   0.002   0.965   7.470  0.0480 -0.5372  2.8841
  182SOPE   C2920805  -0.044   1.120   7.615 -0.6190 -0.0436 -0.5144
  182SOPE   H9120806  -0.020   1.219   7.574 -2.6718  0.1830 -1.2500
  182SOPE  C21020807  -0.007   1.096   7.740 -0.0698  0.1188 -0.2314
  182SOPE  H10120808   0.030   1.182   7.799  1.2412 -1.1204  0.8105
  182SOPE  C21120809   0.005   0.962   7.814 -0.0116  0.6416  0.2579
  182SOPE  H11R20810  -0.038   0.878   7.754 -1.0164  1.0796  0.3510
  182SOPE  H11S20811  -0.057   0.963   7.907 -0.1770  0.2704  0.1530
  182SOPE  C21220812   0.145   0.930   7.859 -0.2478 -0.1261  0.3878
  182SOPE  H12R20813   0.204   0.929   7.765 -0.0937 -1.3009  0.4992
  182SOPE  H12S20814   0.155   0.827   7.900  1.4482 -0.3681 -0.5977
  182SOPE  C21320815   0.212   1.021   7.964  0.0952 -0.4614  0.2585
  182SOPE  H13R20816   0.227   1.116   7.909 -0.5357 -1.9397 -2.5198
  182SOPE  H13S20817   0.317   0.983   7.973  0.5099  0.1086 -1.9002
  182SOPE  C21420818   0.139   1.041   8.102 -0.1977 -0.6318 -0.2849
  182SOPE  H14R20819   0.040   1.089   8.085  0.2736  0.3058 -0.4375
  182SOPE  H14S20820   0.199   1.107   8.168  2.1707 -0.0920 -2.9138
  182SOPE  C21520821   0.122   0.915   8.176 -0.2655  0.1433  0.3244
  182SOPE  H15R20822   0.049   0.847   8.127  0.7758 -0.0297 -1.0211
  182SOPE  H15S20823   0.068   0.943   8.269 -0.6758  0.4780 -0.0147
  182SOPE  C21620824   0.245   0.829   8.223  0.4146  0.8442  0.0396
  182SOPE  H16R20825   0.322   0.909   8.231  0.6088  0.6927 -0.3188
  182SOPE  H16S20826   0.283   0.757   8.148  0.8667  1.9008 -0.7553
  182SOPE  C21720827   0.226   0.752   8.355  0.0369  0.7024  0.6151
  182SOPE  H17R20828   0.123   0.711   8.356  0.9478 -1.6655  0.1916
  182SOPE  H17S20829   0.235   0.825   8.438  3.0980  1.3538 -0.2156
  182SOPE  C21820830   0.323   0.627   8.372 -0.5313  0.1219 -0.2039
  182SOPE  H18R20831   0.294   0.532   8.323 -1.1944 -0.5776  1.5420
  182SOPE  H18S20832   0.349   0.613   8.479  1.1753 -0.4667 -0.6704
  182SOPE  H18T20833   0.420   0.656   8.324 -0.5892 -3.2829 -2.5076
  182SOPE   C3320834  -0.470   0.696   6.514  0.8539 -0.2185 -0.1467
  182SOPE   H3X20835  -0.394   0.776   6.532 -2.4841  3.6848 -2.4973
  182SOPE   H3Y20836  -0.430   0.608   6.460  0.4876 -0.3009 -0.2790
  182SOPE   C3420837  -0.529   0.648   6.644  0.5893  0.1390 -0.0231
  182SOPE   H4X20838  -0.629   0.613   6.612  1.3191 -1.0489 -1.0430
  182SOPE   H4Y20839  -0.542   0.728   6.720 -1.0038 -1.8550  1.8629
  182SOPE   C3520840  -0.461   0.523   6.702 -0.0632 -0.0599 -1.1426
  182SOPE   H5X20841  -0.372   0.561   6.757 -0.7787 -0.2323  0.1613
  182SOPE   H5Y20842  -0.419   0.451   6.629  0.6036 -1.9766  1.0471
  182SOPE   C3620843  -0.548   0.455   6.808 -0.1368 -0.2654  0.4417
  182SOPE   H6X20844  -0.601   0.375   6.752  2.0357 -0.2512 -1.7186
  182SOPE   H6Y20845  -0.611   0.537   6.848  1.1943  0.0160  2.0386
  182SOPE   C3720846  -0.475   0.385   6.928  0.2028  0.2539 -0.4002
  182SOPE   H7X20847  -0.419   0.465   6.981 -0.2962  0.5660 -0.3447
  182SOPE   H7Y20848  -0.399   0.317   6.884 -0.2308  0.3799 -1.3517
  182SOPE   C3820849  -0.562   0.305   7.019 -0.0920 -0.3190 -0.1857
  182SOPE   H8X20850  -0.605   0.221   6.960 -0.1074 -0.7661  0.4550
  182SOPE   H8Y20851  -0.651   0.363   7.052  0.0623 -0.6331  0.7822
  182SOPE   C3920852  -0.498   0.260   7.147 -0.0568 -0.0000 -0.3256
  182SOPE   H9X20853  -0.456   0.353   7.192 -4.1322  1.8022 -0.0989
  182SOPE   H9Y20854  -0.410   0.192   7.138  0.6658  0.8550  0.1523
  182SOPE  C31020855  -0.608   0.211   7.241  0.1995  0.7651  0.6156
  182SOPE  H10X20856  -0.631   0.108   7.206 -1.8267  1.5940 -0.5716
  182SOPE  H10Y20857  -0.698   0.275   7.237 -1.6652 -1.5242  3.7736
  182SOPE  C31120858  -0.573   0.218   7.391  0.3961 -0.4782 -0.2803
  182SOPE  H11X20859  -0.662   0.183   7.448  1.6416 -0.5303  1.7064
  182SOPE  H11Y20860  -0.553   0.320   7.430  0.1680 -1.5471  2.8111
  182SOPE  C31220861  -0.461   0.123   7.431  0.0091 -1.5905  0.2557
  182SOPE  H12X20862  -0.374   0.138   7.363 -1.2072  1.1478 -0.7883
  182SOPE  H12Y20863  -0.488   0.018   7.408 -2.1003 -0.5601 -2.2961
  182SOPE  C31320864  -0.411   0.125   7.572  0.2319  0.2650  0.4346
  182SOPE  H13X20865  -0.321   0.061   7.583 -0.8414 -1.3665  0.0087
  182SOPE  H13Y20866  -0.495   0.077   7.628 -2.3703  1.8874 -1.9418
  182SOPE  C31420867  -0.368   0.264   7.625 -0.5128 -0.3888 -0.4578
  182SOPE  H14X20868  -0.454   0.332   7.603  0.2878  0.0846 -2.1794
  182SOPE  H14Y20869  -0.287   0.304   7.561  0.5322 -0.3824  0.8520
  182SOPE  C31520870  -0.360   0.273   7.773  0.1502 -0.1416 -0.3266
  182SOPE  H15X20871  -0.462   0.252   7.810  1.0289 -2.3075  0.9218
  182SOPE  H15Y20872  -0.335   0.378   7.801  0.9094  0.1372 -1.9628
  182SOPE  C31620873  -0.270   0.165   7.840 -0.3229 -0.1905 -0.3877
  182SOPE  H16X20874  -0.169   0.185   7.798  0.5080 -1.7708  0.8049
  182SOPE  H16Y20875  -0.311   0.064   7.817 -1.0830 -0.4971  2.1219
  182SOPE  C31720876  -0.275   0.178   7.988  0.1315 -0.2664  0.1112
  182SOPE  H17X20877  -0.372   0.147   8.032  0.6361 -1.0516  0.6685
  182SOPE  H17Y20878  -0.267   0.285   8.018  1.3679  0.2004 -1.7843
  182SOPE  C31820879  -0.175   0.096   8.061 -1.4796 -0.2309  0.6220
  182SOPE  H18X20880  -0.178   0.123   8.169 -0.7840  1.7203  0.1913
  182SOPE  H18Y20881  -0.074   0.116   8.019 -0.6982  1.8607  3.3205
  182SOPE  H18Z20882  -0.216  -0.007   8.067  1.8714 -1.7594 -1.4074
  183SOPE     N20883   2.311   6.221   6.327 -0.5885 -0.0521  0.4342
  183SOPE   HN120884   2.325   6.324   6.328 -3.1408  0.3505  0.1976
  183SOPE   HN220885   2.208   6.210   6.314 -0.8794  0.8002  1.9429
  183SOPE   HN320886   2.336   6.187   6.422  0.7452 -0.7951 -0.1791
  183SOPE   C1220887   2.386   6.152   6.215 -0.6082 -0.5678  0.3756
  183SOPE  H12A20888   2.307   6.129   6.140 -2.5685 -1.0020  2.4904
  183SOPE  H12B20889   2.416   6.056   6.261 -0.1115 -1.2611 -1.3889
  183SOPE   C1120890   2.510   6.227   6.173  0.0708 -0.0404 -0.2166
  183SOPE  H11A20891   2.491   6.334   6.147  1.0463  0.4398  0.9914
  183SOPE  H11B20892   2.554   6.163   6.094  1.3295 -1.4093  1.5609
  183SOPE     P20893   2.742   6.304   6.276  0.2682  0.0297  0.2022
  183SOPE   O1320894   2.717   6.431   6.352  0.1621  0.3882 -0.3449
  183SOPE   O1420895   2.792   6.325   6.139  0.0901 -0.0302  0.1617
  183SOPE   O1220896   2.605   6.228   6.279 -0.3079  0.2396 -0.0160
  183SOPE   O1120897   2.849   6.215   6.366 -0.3309  0.4679  0.5401
  183SOPE    C120898   2.847   6.077   6.366  0.8072  0.0962  0.2452
  183SOPE    HA20899   2.949   6.037   6.380  0.8445  0.0740 -0.0868
  183SOPE    HB20900   2.805   6.040   6.270  1.4600  0.8141 -0.3204
  183SOPE    C220901   2.766   6.023   6.485  0.2177  0.5755 -0.1271
  183SOPE    HS20902   2.670   6.078   6.476 -1.3751 -1.8643  1.5439
  183SOPE   O2120903   2.839   6.049   6.605  0.1310 -0.1578 -0.1663
  183SOPE   C2120904   2.769   6.097   6.706 -0.4428  0.1062  0.3750
  183SOPE   O2220905   2.645   6.110   6.703  0.8369 -0.2735  0.2356
  183SOPE   C2220906   2.861   6.137   6.816  0.6468 -0.2414  0.6142
  183SOPE   H2R20907   2.920   6.221   6.774  0.4627  0.6014  2.0015
  183SOPE   H2S20908   2.927   6.055   6.853 -1.1836 -0.9037  2.5101
  183SOPE    C320909   2.741   5.868   6.471 -1.3205 -0.3059 -0.3431
  183SOPE    HX20910   2.843   5.823   6.474 -0.9296  0.5886 -0.3051
  183SOPE    HY20911   2.688   5.843   6.377 -1.8436  2.3995 -0.7875
  183SOPE   O3120912   2.665   5.819   6.585 -0.9221 -0.2947 -0.1738
  183SOPE   C3120913   2.540   5.847   6.598  0.4587  0.0056  1.0324
  183SOPE   O3220914   2.475   5.904   6.514 -0.2043 -0.0583 -0.2123
  183SOPE   C3220915   2.491   5.795   6.736  0.0327  0.2121  0.2521
  183SOPE   H2X20916   2.547   5.862   6.804  0.6489  2.6645 -2.5726
  183SOPE   H2Y20917   2.519   5.688   6.741  0.1125  0.2327  0.2562
  183SOPE   C2320918   2.783   6.184   6.946  0.7447  0.1407  0.6417
  183SOPE   H3R20919   2.700   6.258   6.935  2.0768  1.4334 -1.1104
  183SOPE   H3S20920   2.860   6.236   7.006  0.9747  0.3805  0.1423
  183SOPE   C2420921   2.729   6.071   7.032 -0.6348 -0.0922  0.8545
  183SOPE   H4R20922   2.692   5.989   6.966  1.4449  0.5049 -1.1287
  183SOPE   H4S20923   2.819   6.039   7.089 -1.9197 -2.5672  1.5749
  183SOPE   C2520924   2.614   6.115   7.127  0.1281  0.6724  0.4428
  183SOPE   H5R20925   2.521   6.156   7.084  0.7711  2.4633  0.7139
  183SOPE   H5S20926   2.580   6.022   7.177  1.3699  0.0744  0.1966
  183SOPE   C2620927   2.669   6.204   7.247 -0.8618 -0.0095  0.5573
  183SOPE   H6R20928   2.746   6.138   7.293  0.2760  0.4359 -0.6745
  183SOPE   H6S20929   2.712   6.293   7.196 -1.2918  1.1471  2.1652
  183SOPE   C2720930   2.558   6.244   7.343  0.3088  0.3134 -0.1219
  183SOPE   H7R20931   2.492   6.309   7.283 -0.3030 -1.3615 -1.2870
  183SOPE   H7S20932   2.492   6.155   7.355  0.8203 -0.0874 -0.2319
  183SOPE   C2820933   2.596   6.299   7.479 -0.1176  0.0120 -0.3696
  183SOPE   H8R20934   2.666   6.384   7.468 -1.6073  1.0816 -1.7980
  183SOPE   H8S20935   2.498   6.343   7.510  0.3530  0.3371  0.6839
  183SOPE   C2920936   2.641   6.197   7.583  0.9351 -0.2731 -0.2981
  183SOPE   H9120937   2.683   6.110   7.531  1.3943  1.6262 -3.2221
  183SOPE  C21020938   2.633   6.212   7.721 -0.1464 -0.3970  0.2651
  183SOPE  H10120939   2.669   6.133   7.789 -1.8353 -0.4276  1.1500
  183SOPE  C21120940   2.568   6.332   7.788 -0.2035  0.0682  0.3289
  183SOPE  H11R20941   2.488   6.294   7.854 -1.5398  2.0288 -0.0978
  183SOPE  H11S20942   2.508   6.387   7.711  0.8147  0.8680  0.0855
  183SOPE  C21220943   2.660   6.426   7.848 -0.2781 -0.3954  0.0506
  183SOPE  H12R20944   2.605   6.509   7.896  2.1602  2.2482 -1.5260
  183SOPE  H12S20945   2.708   6.497   7.777  1.7532  0.0624  1.8256
  183SOPE  C21320946   2.767   6.369   7.942  0.3690  0.6476 -0.6452
  183SOPE  H13R20947   2.834   6.451   7.975  0.8601 -0.3555  0.9029
  183SOPE  H13S20948   2.836   6.302   7.886  1.0508  1.2282 -0.5058
  183SOPE  C21420949   2.717   6.303   8.063  0.0184 -0.3531 -1.1486
  183SOPE  H14R20950   2.669   6.209   8.027 -1.7091 -0.2030  0.6585
  183SOPE  H14S20951   2.644   6.365   8.120  2.0763  0.1276  1.0168
  183SOPE  C21520952   2.832   6.268   8.160 -0.3753 -0.3943  0.2563
  183SOPE  H15R20953   2.880   6.364   8.190 -1.0413 -0.0655  0.2596
  183SOPE  H15S20954   2.908   6.204   8.109  1.5281 -0.5687  3.1831
  183SOPE  C21620955   2.788   6.190   8.286  0.7622 -0.0184 -0.5931
  183SOPE  H16R20956   2.757   6.091   8.245  0.8985  0.6972 -2.4610
  183SOPE  H16S20957   2.700   6.251   8.316  1.2307  0.1769  0.4074
  183SOPE  C21720958   2.889   6.170   8.399 -0.4020 -0.2114 -0.7237
  183SOPE  H17R20959   2.983   6.121   8.365  0.7421  0.7318  1.0196
  183SOPE  H17S20960   2.838   6.107   8.475  0.4182  0.1123  0.0996
  183SOPE  C21820961   2.923   6.295   8.482 -0.3100  0.0697  0.5070
  183SOPE  H18R20962   3.004   6.281   8.556  0.2807  1.4123  0.1104
  183SOPE  H18S20963   2.841   6.340   8.542 -0.5342  0.3118  0.0127
  183SOPE  H18T20964   2.961   6.369   8.410 -0.7339 -0.2727 -0.0719
  183SOPE   C3320965   2.336   5.820   6.759  0.1559  0.0714 -0.4119
  183SOPE   H3X20966   2.281   5.749   6.693  2.6488 -0.3289 -2.1214
  183SOPE   H3Y20967   2.310   5.925   6.736 -0.4019 -0.2897 -1.4517
  183SOPE   C3420968   2.283   5.782   6.899 -0.4443 -0.2101 -0.6460
  183SOPE   H4X20969   2.309   5.677   6.927 -1.8459 -0.8905 -1.8122
  183SOPE   H4Y20970   2.171   5.784   6.901 -0.4151  1.2207 -0.0041
  183SOPE   C3520971   2.336   5.874   7.012 -0.0358 -0.1795  0.1247
  183SOPE   H5X20972   2.329   5.980   6.979  0.1188 -0.6191 -1.3827
  183SOPE   H5Y20973   2.444   5.857   7.029 -0.6899 -1.1351  3.6031
  183SOPE   C3620974   2.265   5.839   7.150  0.2129 -0.0541  0.1807
  183SOPE   H6X20975   2.296   5.736   7.176 -0.5538 -0.0783  1.0249
  183SOPE   H6Y20976   2.154   5.836   7.135  0.2553 -1.2094  0.0516
  183SOPE   C3720977   2.319   5.936   7.249 -0.6387  0.4024 -0.7054
  183SOPE   H7X20978   2.309   6.044   7.223 -0.8635  0.5959  0.1795
  183SOPE   H7Y20979   2.423   5.911   7.279 -1.0264 -0.3124  0.0550
  183SOPE   C3820980   2.249   5.908   7.390  0.4685 -0.2273  0.0748
  183SOPE   H8X20981   2.248   5.800   7.417  2.1902 -0.8342 -2.1380
  183SOPE   H8Y20982   2.143   5.930   7.366  1.2784 -0.2380 -4.0073
  183SOPE   C3920983   2.292   5.997   7.502 -0.3840 -0.0673 -0.5550
  183SOPE   H9X20984   2.285   6.100   7.459  0.0550 -0.3354 -1.2739
  183SOPE   H9Y20985   2.401   5.986   7.517 -0.3736  0.9290  0.2172
  183SOPE  C31020986   2.201   5.991   7.628  0.0689  0.1267  0.0164
  183SOPE  H10X20987   2.184   5.883   7.645 -0.4362 -0.1792 -2.2453
  183SOPE  H10Y20988   2.102   6.029   7.593  1.3877  2.7409 -1.0236
  183SOPE  C31120989   2.262   6.051   7.754  0.4859 -0.1680 -0.2657
  183SOPE  H11X20990   2.254   6.160   7.733  2.2448  0.0779  0.2861
  183SOPE  H11Y20991   2.369   6.029   7.776 -0.4459 -3.7055  1.0083
  183SOPE  C31220992   2.179   6.016   7.885 -0.1783  0.0754 -0.0083
  183SOPE  H12X20993   2.200   5.914   7.924 -1.2300 -0.2534 -0.2755
  183SOPE  H12Y20994   2.070   6.015   7.861 -0.4148 -1.1835  1.0568
  183SOPE  C31320995   2.219   6.118   7.995 -0.3600  0.4979  1.2629
  183SOPE  H13X20996   2.216   6.223   7.958  1.4494 -0.3013 -1.3097
  183SOPE  H13Y20997   2.325   6.089   8.014 -0.5051 -0.5179  0.5493
  183SOPE  C31420998   2.147   6.115   8.131  0.4129  0.5278 -0.0534
  183SOPE  H14X20999   2.186   6.194   8.198 -0.6469  0.3623  0.7671
  183SOPE  H14Y21000   2.162   6.016   8.179  1.1917  1.3446  1.4354
  183SOPE  C31521001   1.999   6.143   8.109  0.2964 -0.0961 -0.3713
  183SOPE  H15X21002   1.936   6.064   8.063 -1.0697  1.2475 -0.8312
  183SOPE  H15Y21003   1.996   6.233   8.045  0.3458  0.4095  0.3252
  183SOPE  C31621004   1.920   6.169   8.238  0.3809  0.3521  0.8091
  183SOPE  H16X21005   1.812   6.191   8.224 -0.1722 -1.2610  2.3793
  183SOPE  H16Y21006   1.971   6.257   8.283  1.7053 -0.6987  1.3906
  183SOPE  C31721007   1.919   6.055   8.340 -0.1553  0.3141 -0.7247
  183SOPE  H17X21008   2.021   6.058   8.383  0.6395  1.1236 -2.6549
  183SOPE  H17Y21009   1.908   5.962   8.280  0.5148  1.3838 -2.5280
  183SOPE  C31821010   1.813   6.067   8.453  0.5535  0.8516  0.0560
  183SOPE  H18X21011   1.709   6.073   8.415  0.4512  0.3475  0.2570
  183SOPE  H18Y21012   1.837   6.158   8.513  2.9003 -0.0684  0.5405
  183SOPE  H18Z21013   1.823   5.983   8.525 -0.7745  1.2721  0.7716
  184SOPE     N21014   2.208   6.500   5.881  0.3442 -0.0265 -0.0589
  184SOPE   HN121015   2.306   6.491   5.848  0.2219 -3.0795  0.2525
  184SOPE   HN221016   2.174   6.563   5.806  0.3954 -0.7426 -0.6948
  184SOPE   HN321017   2.192   6.550   5.970  3.4921 -1.2146  1.2592
  184SOPE   C1221018   2.140   6.367   5.885 -0.2330 -0.0459 -0.1819
  184SOPE  H12A21019   2.218   6.291   5.907  0.0427 -0.0231 -1.0524
  184SOPE  H12B21020   2.103   6.346   5.782 -1.3135  1.6212 -0.1468
  184SOPE   C1121021   2.016   6.354   5.974 -0.3827 -0.7159 -1.0670
  184SOPE  H11A21022   1.948   6.283   5.921 -1.2042 -0.2982 -0.5896
  184SOPE  H11B21023   1.961   6.450   5.985 -0.2231 -0.7234 -0.1497
  184SOPE     P21024   1.966   6.213   6.183 -0.1577 -0.0951 -0.0180
  184SOPE   O1321025   2.056   6.152   6.288  0.8344  0.1733  0.7480
  184SOPE   O1421026   1.912   6.118   6.085 -0.1894 -0.4568  0.2768
  184SOPE   O1221027   2.057   6.312   6.104 -0.5041  0.5315  0.0797
  184SOPE   O1121028   1.853   6.302   6.247 -0.2860  0.0929  0.6477
  184SOPE    C121029   1.890   6.385   6.352  0.0742 -0.5485  0.4352
  184SOPE    HA21030   1.847   6.485   6.335  0.2764 -0.8289 -1.8581
  184SOPE    HB21031   1.999   6.400   6.372 -0.3951  0.4135  2.3618
  184SOPE    C221032   1.828   6.327   6.488 -0.1278  0.0878 -0.2991
  184SOPE    HS21033   1.835   6.406   6.565 -1.1077 -1.5370  1.5160
  184SOPE   O2121034   1.878   6.198   6.520 -0.2252  0.0538  0.0468
  184SOPE   C2121035   1.979   6.210   6.608 -0.2587 -0.9120 -0.0018
  184SOPE   O2221036   2.036   6.316   6.632 -0.0087 -0.2439 -0.4374
  184SOPE   C2221037   2.008   6.067   6.659  0.7902  0.1316  0.7153
  184SOPE   H2R21038   2.118   6.069   6.677  0.9640  0.7333 -0.3713
  184SOPE   H2S21039   1.990   5.997   6.576 -2.3136  0.8715  0.7158
  184SOPE    C321040   1.668   6.312   6.475 -0.2930 -0.0113  0.2000
  184SOPE    HX21041   1.653   6.226   6.408 -2.1772 -0.3608  1.0372
  184SOPE    HY21042   1.635   6.405   6.424  0.9468  2.2403  3.3160
  184SOPE   O3121043   1.605   6.301   6.605  0.3942 -0.5580 -0.6667
  184SOPE   C3121044   1.569   6.180   6.639  0.1295 -1.2744 -0.3879
  184SOPE   O3221045   1.610   6.082   6.586  0.1701  0.0697 -0.1689
  184SOPE   C3221046   1.457   6.200   6.747 -0.5141 -0.5708  0.0436
  184SOPE   H2X21047   1.405   6.103   6.759  1.8338 -1.8846 -0.0540
  184SOPE   H2Y21048   1.384   6.275   6.710 -2.6846 -0.9565  3.3357
  184SOPE   C2321049   1.929   6.017   6.787  0.0164  0.5790  0.2632
  184SOPE   H3R21050   1.940   5.907   6.796  1.7255  0.6850 -0.3672
  184SOPE   H3S21051   1.820   6.034   6.772  0.7162  3.2945 -2.1615
  184SOPE   C2421052   1.967   6.077   6.915  0.6378  0.5890  0.2269
  184SOPE   H4R21053   2.077   6.063   6.931  0.3350 -3.6816 -0.9345
  184SOPE   H4S21054   1.941   6.185   6.914  1.9123  0.9088 -1.0249
  184SOPE   C2521055   1.898   6.024   7.041 -0.1332 -0.9203  0.0053
  184SOPE   H5R21056   1.791   6.018   7.013  0.4338 -2.7120 -1.8976
  184SOPE   H5S21057   1.920   5.916   7.058 -1.0608 -1.0002  0.7231
  184SOPE   C2621058   1.925   6.109   7.164  0.2960 -0.8683 -0.4961
  184SOPE   H6R21059   2.035   6.098   7.178  0.1642 -2.3751 -0.5805
  184SOPE   H6S21060   1.899   6.216   7.148  0.0686 -0.9937 -0.9583
  184SOPE   C2721061   1.842   6.061   7.285  0.2767 -0.4837 -0.3158
  184SOPE   H7R21062   1.740   6.082   7.248  0.3892  1.2593  0.3317
  184SOPE   H7S21063   1.856   5.956   7.319  3.1187  0.4387  1.5776
  184SOPE   C2821064   1.864   6.167   7.402 -0.1443  0.0108  0.0214
  184SOPE   H8R21065   1.968   6.203   7.414  0.8903 -2.3577 -1.3527
  184SOPE   H8S21066   1.813   6.260   7.370  1.7310  0.1210 -2.8735
  184SOPE   C2921067   1.814   6.121   7.536  0.1783  0.7786  0.0348
  184SOPE   H9121068   1.780   6.016   7.534 -0.5496  1.0192 -0.2941
  184SOPE  C21021069   1.782   6.200   7.643 -0.3640  0.6037  0.3184
  184SOPE  H10121070   1.754   6.153   7.739  0.5869 -0.5981  0.0242
  184SOPE  C21121071   1.794   6.347   7.649  0.0939  0.3569  0.0003
  184SOPE  H11R21072   1.698   6.394   7.617 -0.0759 -0.0115 -0.0350
  184SOPE  H11S21073   1.869   6.377   7.573  0.6226 -0.4226  0.2193
  184SOPE  C21221074   1.832   6.392   7.794 -0.4831  0.0251 -0.3556
  184SOPE  H12R21075   1.849   6.502   7.789 -1.0911  0.2196  1.4135
  184SOPE  H12S21076   1.925   6.342   7.828  0.5557  1.8054 -0.5280
  184SOPE  C21321077   1.724   6.382   7.899  0.6790 -0.6362  0.0189
  184SOPE  H13R21078   1.705   6.273   7.912  2.4976 -0.7861  1.5337
  184SOPE  H13S21079   1.639   6.440   7.857  1.4952  0.3426 -0.2740
  184SOPE  C21421080   1.770   6.442   8.030  0.1674  0.0736 -0.1221
  184SOPE  H14R21081   1.876   6.476   8.021 -0.0621  0.7569 -0.2290
  184SOPE  H14S21082   1.773   6.364   8.110 -0.1041  0.5062  0.3079
  184SOPE  C21521083   1.671   6.547   8.080  0.0724  0.3029 -0.6143
  184SOPE  H15R21084   1.577   6.495   8.105  0.4670  1.2780  3.2016
  184SOPE  H15S21085   1.641   6.607   7.991 -1.8464  0.2986  0.0116
  184SOPE  C21621086   1.714   6.633   8.195  0.0322  0.3280 -0.4323
  184SOPE  H16R21087   1.823   6.652   8.194  0.6727 -3.0738 -0.7431
  184SOPE  H16S21088   1.704   6.584   8.294  2.7842  2.4918  0.9997
  184SOPE  C21721089   1.639   6.760   8.211 -0.3934 -0.4562 -0.1327
  184SOPE  H17R21090   1.657   6.824   8.122  1.8133 -0.0497  0.5632
  184SOPE  H17S21091   1.699   6.820   8.283 -0.3664 -1.0119  0.3162
  184SOPE  C21821092   1.489   6.734   8.247 -0.2544 -0.3586 -0.2432
  184SOPE  H18R21093   1.483   6.677   8.342 -0.7867 -2.5043 -1.5093
  184SOPE  H18S21094   1.435   6.687   8.161 -1.9063  1.1733 -0.0711
  184SOPE  H18T21095   1.429   6.826   8.262  0.9757  0.4531 -0.2984
  184SOPE   C3321096   1.523   6.256   6.878 -0.0720 -0.1166  0.5302
  184SOPE   H3X21097   1.562   6.358   6.860 -3.0161  0.6863 -1.7220
  184SOPE   H3Y21098   1.607   6.189   6.905  1.2682  0.4416 -2.1704
  184SOPE   C3421099   1.414   6.250   6.993 -0.1813  0.0388 -0.3964
  184SOPE   H4X21100   1.401   6.141   7.013  0.9455 -0.4728 -2.3396
  184SOPE   H4Y21101   1.316   6.278   6.949 -1.6062 -4.3971 -0.3132
  184SOPE   C3521102   1.456   6.333   7.114 -0.0800  0.4218 -0.1659
  184SOPE   H5X21103   1.445   6.441   7.090 -1.3437  0.1629 -0.7892
  184SOPE   H5Y21104   1.561   6.318   7.149  0.0873  2.1392  0.1246
  184SOPE   C3621105   1.376   6.319   7.241  0.6957  0.5866  0.1797
  184SOPE   H6X21106   1.381   6.212   7.270  1.7293  0.4296 -0.5584
  184SOPE   H6Y21107   1.269   6.344   7.221  0.6526  0.4953  0.2976
  184SOPE   C3721108   1.416   6.405   7.357 -0.5906  0.1589 -0.3982
  184SOPE   H7X21109   1.417   6.515   7.339 -3.6703  0.1488 -1.0434
  184SOPE   H7Y21110   1.523   6.386   7.380 -0.0207  0.5942 -2.5547
  184SOPE   C3821111   1.319   6.368   7.472 -0.1954  0.2414 -0.4031
  184SOPE   H8X21112   1.271   6.269   7.455 -0.4501  0.4508 -0.9344
  184SOPE   H8Y21113   1.240   6.447   7.468  1.8729  2.3045 -1.8631
  184SOPE   C3921114   1.395   6.360   7.604 -0.1853  0.1832 -0.1239
  184SOPE   H9X21115   1.445   6.458   7.613 -0.0593  0.1450 -0.4141
  184SOPE   H9Y21116   1.472   6.280   7.607 -2.2318 -1.8375  0.7854
  184SOPE  C31021117   1.304   6.353   7.729 -0.3352 -0.1458  0.1535
  184SOPE  H10X21118   1.248   6.257   7.727 -1.8097  0.7168 -1.6783
  184SOPE  H10Y21119   1.229   6.435   7.729 -0.9778 -0.7073 -1.2047
  184SOPE  C31121120   1.381   6.346   7.862 -0.2288 -0.3048 -0.6366
  184SOPE  H11X21121   1.448   6.435   7.859  0.6742 -0.9273  0.5466
  184SOPE  H11Y21122   1.453   6.262   7.868  0.9838  0.9294  3.4780
  184SOPE  C31221123   1.296   6.350   7.992  0.1001  0.3236 -0.1824
  184SOPE  H12X21124   1.363   6.320   8.075  0.6024  0.1072 -0.6669
  184SOPE  H12Y21125   1.217   6.273   7.981  0.2737 -0.0402  1.0756
  184SOPE  C31321126   1.239   6.496   8.016  0.5686  0.1858 -0.4521
  184SOPE  H13X21127   1.177   6.520   7.927 -1.4583  0.5908  1.0465
  184SOPE  H13Y21128   1.322   6.569   8.025  0.2270  0.2970  2.0849
  184SOPE  C31421129   1.147   6.505   8.139  0.8758 -0.5970  1.0327
  184SOPE  H14X21130   1.203   6.471   8.229 -1.1913 -1.2984  2.0639
  184SOPE  H14Y21131   1.068   6.429   8.124  2.8396 -2.6437  0.6323
  184SOPE  C31521132   1.097   6.649   8.144 -0.9468  0.4417  0.7544
  184SOPE  H15X21133   1.058   6.675   8.043 -0.1337  0.1714  0.3697
  184SOPE  H15Y21134   1.191   6.707   8.160  1.1956 -2.2291 -1.6972
  184SOPE  C31621135   0.991   6.669   8.253  0.5865  0.1452  0.4324
  184SOPE  H16X21136   1.018   6.626   8.352 -2.4960  0.1025  1.2832
  184SOPE  H16Y21137   0.892   6.622   8.234  0.7888 -0.4425  0.8329
  184SOPE  C31721138   0.955   6.824   8.279  0.4740  0.3900  0.8182
  184SOPE  H17X21139   1.034   6.877   8.337  0.3461  2.8459 -1.1700
  184SOPE  H17Y21140   0.870   6.831   8.351  2.0644 -1.0294  2.8968
  184SOPE  C31821141   0.917   6.906   8.155  0.1317 -0.3234 -0.1041
  184SOPE  H18X21142   0.994   6.910   8.075  0.8184  1.2529  0.6210
  184SOPE  H18Y21143   0.907   7.011   8.189 -1.2653 -1.2670  2.5157
  184SOPE  H18Z21144   0.819   6.875   8.112  0.1640  0.6103 -0.8683
  185SAPI   C1221145   4.792   3.273  10.977  0.4640  1.0159 -0.2528
  185SAPI    H221146   4.823   3.293  10.872 -0.6901  0.2580 -0.7560
  185SAPI    O221147   4.741   3.138  10.995  0.4478 -0.0611  0.0320
  185SAPI   HO221148   4.803   3.075  10.957 -0.0554  0.1452 -1.1374
  185SAPI   C1321149   4.927   3.287  11.049 -0.6221 -0.0189 -0.6303
  185SAPI    H321150   4.967   3.390  11.035 -0.0628  0.0519  1.3606
  185SAPI    O321151   5.026   3.192  10.998 -0.2786  0.4316  0.2278
  185SAPI   HO321152   5.085   3.171  11.070 -1.0131  0.2493  0.7863
  185SAPI   C1421153   4.906   3.264  11.196 -0.4705 -0.3293 -0.7545
  185SAPI    H421154   4.870   3.158  11.198  1.3462 -0.9719 -1.0730
  185SAPI    O421155   5.029   3.255  11.275  0.0277  0.2989 -0.0673
  185SAPI   HO421156   5.010   3.197  11.349  0.2797 -0.3218 -0.4817
  185SAPI   C1521157   4.795   3.362  11.245 -0.0944  0.2305  0.0308
  185SAPI    H521158   4.841   3.461  11.223 -2.7096  1.0376 -2.0295
  185SAPI    O521159   4.775   3.341  11.389 -0.4050  0.5191 -0.4142
  185SAPI   HO521160   4.852   3.387  11.424 -0.6405  0.9831 -0.5145
  185SAPI   C1621161   4.664   3.365  11.168  0.0365  0.1257 -0.1181
  185SAPI    H621162   4.620   3.265  11.191  0.8451 -0.1658  0.2015
  185SAPI    O621163   4.571   3.465  11.205 -0.8676 -0.8549  0.1779
  185SAPI   HO621164   4.485   3.445  11.168 -0.7100 -2.2561  0.5356
  185SAPI   C1121165   4.695   3.384  11.021  0.0356  0.5032 -0.3155
  185SAPI    H121166   4.744   3.482  11.005 -1.1088  1.6134  2.6478
  185SAPI     P21167   4.533   3.495  10.845 -0.1140  0.4323 -0.4099
  185SAPI   O1321168   4.548   3.627  10.918  0.1852 -0.1223 -0.1254
  185SAPI   O1421169   4.399   3.460  10.796 -0.4484  0.1520  0.0290
  185SAPI   O1221170   4.576   3.375  10.937 -0.4889  0.5241 -0.9530
  185SAPI   O1121171   4.632   3.484  10.724 -0.0944 -0.1051 -0.1986
  185SAPI    C121172   4.644   3.366  10.643  0.3290  0.7534  0.4011
  185SAPI    HA21173   4.747   3.324  10.649  2.3872  5.5263  1.3867
  185SAPI    HB21174   4.586   3.278  10.677  1.6706 -0.2263  0.1777
  185SAPI    C221175   4.600   3.393  10.499 -1.0941 -0.1819 -0.5949
  185SAPI    HS21176   4.543   3.306  10.462 -1.5292 -0.7500  1.3371
  185SAPI   O2121177   4.713   3.442  10.423 -0.5176  0.2024 -0.4074
  185SAPI   C2121178   4.792   3.351  10.373 -0.1251  0.1112 -0.6240
  185SAPI   O2221179   4.772   3.231  10.380 -0.4271  0.3386 -0.1846
  185SAPI   C2221180   4.916   3.407  10.314 -0.0527  0.4804  0.0336
  185SAPI   H2R21181   4.955   3.346  10.230  3.7793  2.4618  0.2296
  185SAPI   H2S21182   4.892   3.510  10.279 -1.7259 -0.5886 -2.0127
  185SAPI    C321183   4.495   3.506  10.480 -0.1576 -0.5603  0.2047
  185SAPI    HX21184   4.543   3.603  10.503 -2.9043  0.6160  1.1830
  185SAPI    HY21185   4.413   3.494  10.553  1.0240 -3.6073  1.1299
  185SAPI   O3121186   4.450   3.510  10.349 -0.8957 -0.2936 -0.2731
  185SAPI   C3121187   4.334   3.466  10.310  0.2425  0.5669  0.1568
  185SAPI   O3221188   4.256   3.399  10.374  0.2252 -0.2055 -0.2501
  185SAPI   C3221189   4.315   3.506  10.165 -0.4514  0.2557  0.4109
  185SAPI   H2X21190   4.410   3.491  10.109 -0.4258 -0.3435  0.6148
  185SAPI   H2Y21191   4.291   3.614  10.162 -0.6958  0.1652 -2.7209
  185SAPI   C2321192   5.012   3.438  10.436 -0.0480  0.4161 -0.0249
  185SAPI   H3R21193   5.046   3.343  10.482 -0.2775 -0.3452 -1.4176
  185SAPI   H3S21194   4.964   3.495  10.518 -0.0400 -0.9805  0.9809
  185SAPI   C2421195   5.131   3.515  10.377  0.3641  0.2239  0.0816
  185SAPI   H4R21196   5.190   3.535  10.469  0.1969 -0.3658  0.3166
  185SAPI   H4S21197   5.100   3.610  10.328  1.1990  0.4718  0.0180
  185SAPI   C2521198   5.219   3.444  10.275 -0.7538 -0.0662  0.0408
  185SAPI   H5R21199   5.296   3.370  10.303 -1.3524 -0.3410  0.9798
  185SAPI   C2621200   5.206   3.465  10.144  1.1831  0.4530  0.3523
  185SAPI   H6R21201   5.269   3.402  10.079  1.5359  0.7967  0.3611
  185SAPI   C2721202   5.120   3.555  10.062 -0.1944 -0.2372 -0.5911
  185SAPI   H7R21203   5.181   3.647  10.051 -0.5083  0.2208  1.2304
  185SAPI   H7S21204   5.037   3.575  10.133  0.1216 -0.7475 -0.0713
  185SAPI   C2821205   5.067   3.482   9.943 -0.2362 -0.2075 -0.5439
  185SAPI   H8R21206   4.967   3.444   9.965  1.2437 -3.6569  0.5137
  185SAPI   C2921207   5.096   3.491   9.816 -0.3861  0.0666 -0.2683
  185SAPI   H9R21208   5.033   3.435   9.745  0.1995  0.1898 -0.8876
  185SAPI  C21021209   5.196   3.579   9.754 -1.0377 -0.0904 -0.0348
  185SAPI  H10R21210   5.258   3.621   9.836  0.3855 -1.8903 -0.1252
  185SAPI  H10S21211   5.136   3.666   9.720  1.9706  2.7368  1.6215
  185SAPI  C21121212   5.271   3.512   9.647 -0.7147 -0.0254  0.1874
  185SAPI  H11R21213   5.323   3.420   9.678 -0.8096  0.4666  1.8986
  185SAPI  C21221214   5.289   3.551   9.518  0.5194  0.9136 -0.9822
  185SAPI  H12R21215   5.350   3.501   9.441  0.7862  1.4475 -1.1179
  185SAPI  C21321216   5.221   3.666   9.456  0.2126  0.5257  0.1510
  185SAPI  H13R21217   5.288   3.716   9.382  0.6685 -0.3783 -0.0572
  185SAPI  H13S21218   5.220   3.741   9.538 -0.7987 -0.8083  1.3665
  185SAPI  C21421219   5.083   3.639   9.404 -0.0559 -0.2279 -0.6179
  185SAPI  H14R21220   5.016   3.586   9.474 -0.8894  0.5419 -0.8152
  185SAPI  C21521221   5.047   3.652   9.278 -0.3042 -0.8909  0.2701
  185SAPI  H15R21222   4.942   3.622   9.263 -0.4146  0.0641 -0.9175
  185SAPI  C21621223   5.116   3.698   9.149 -0.5217  0.2632 -0.0698
  185SAPI  H16R21224   5.227   3.710   9.156 -0.3957  1.0360 -2.8346
  185SAPI  H16S21225   5.070   3.793   9.115 -3.3460 -0.7003  0.9932
  185SAPI  C21721226   5.092   3.593   9.032 -0.1198 -0.0747  0.0419
  185SAPI  H17R21227   4.982   3.588   9.014  0.1560 -0.4376 -1.6058
  185SAPI  H17S21228   5.142   3.497   9.058 -1.3690 -1.0826 -1.2375
  185SAPI  C21821229   5.157   3.646   8.903 -0.8905 -0.2835 -0.5666
  185SAPI  H18R21230   5.132   3.754   8.895 -2.7396 -0.6940 -0.4580
  185SAPI  H18S21231   5.099   3.611   8.815 -0.4331 -1.2819 -0.4835
  185SAPI  C21921232   5.301   3.610   8.868  0.0795 -0.7968  0.2528
  185SAPI  H19R21233   5.369   3.642   8.950 -0.8997  0.7945  0.4675
  185SAPI  H19S21234   5.339   3.662   8.778 -0.5122 -1.9631 -0.6897
  185SAPI  C22021235   5.321   3.453   8.866  0.0513  0.2186 -0.0684
  185SAPI  H20R21236   5.417   3.409   8.831  0.2195 -0.0034  0.6678
  185SAPI  H20S21237   5.239   3.419   8.799 -0.1051  3.5673 -1.6865
  185SAPI  H20T21238   5.299   3.409   8.965  0.9047  1.4011  0.6569
  185SAPI   C3321239   4.202   3.430  10.097  0.5163 -0.2122 -0.1174
  185SAPI   H3X21240   4.106   3.461  10.144 -1.0460  0.3965 -3.5737
  185SAPI   H3Y21241   4.217   3.320  10.090  0.7789 -0.1223 -0.9853
  185SAPI   C3421242   4.197   3.472   9.942  0.7659  0.0598  0.0875
  185SAPI   H4X21243   4.295   3.449   9.895 -0.8056 -1.2512 -2.6453
  185SAPI   H4Y21244   4.191   3.581   9.921  0.4942 -0.3276 -1.9182
  185SAPI   C3521245   4.080   3.407   9.867 -0.0460 -0.6046  0.1404
  185SAPI   H5X21246   3.983   3.420   9.920  0.0460 -0.5641  0.2965
  185SAPI   H5Y21247   4.114   3.302   9.876 -1.4064 -0.9147  1.9882
  185SAPI   C3621248   4.071   3.440   9.723  0.0541  0.0980  0.6219
  185SAPI   H6X21249   3.994   3.366   9.694 -0.6381  1.3318 -0.7226
  185SAPI   H6Y21250   4.167   3.429   9.667 -0.4065 -1.0110  0.0345
  185SAPI   C3721251   4.006   3.573   9.686 -0.0791  0.3925  0.0751
  185SAPI   H7X21252   4.049   3.655   9.748  1.4330 -0.7560  0.5600
  185SAPI   H7Y21253   3.899   3.553   9.711 -0.1109  0.9153  0.3717
  185SAPI   C3821254   4.026   3.611   9.544 -0.9974 -0.3350 -0.8254
  185SAPI   H8X21255   4.135   3.619   9.524 -0.8335 -0.4218  0.0065
  185SAPI   H8Y21256   3.982   3.713   9.536  0.5574  0.8935  4.0165
  185SAPI   C3921257   3.958   3.534   9.435 -0.2251 -0.0454 -0.1228
  185SAPI   H9X21258   3.852   3.514   9.460  0.0492 -1.1892  0.1393
  185SAPI   H9Y21259   4.007   3.434   9.438 -1.3422 -0.5633  2.3578
  185SAPI  C31021260   3.970   3.604   9.295 -0.2192  0.5116 -0.1278
  185SAPI  H10X21261   4.076   3.633   9.274 -0.3181  0.3328 -0.9012
  185SAPI  H10Y21262   3.906   3.695   9.292  2.7485  2.6592 -2.6295
  185SAPI  C31121263   3.919   3.499   9.189 -0.2367 -0.1882 -0.7838
  185SAPI  H11X21264   3.833   3.442   9.230  0.3198 -0.7279 -0.3647
  185SAPI  H11Y21265   4.002   3.425   9.184  1.0348  1.1220  0.2902
  185SAPI  C31221266   3.872   3.553   9.051 -0.4535 -0.3164 -0.6101
  185SAPI  H12X21267   3.803   3.638   9.069 -0.6934 -0.1559 -2.1752
  185SAPI  H12Y21268   3.823   3.479   8.983 -2.8131 -0.9858  1.7366
  185SAPI  C31321269   3.999   3.619   8.983  0.1774 -0.0932  0.2129
  185SAPI  H13X21270   4.081   3.544   8.976 -0.3716 -0.6305 -0.7440
  185SAPI  H13Y21271   4.028   3.699   9.054  0.4804  0.4225 -0.4879
  185SAPI  C31421272   3.964   3.680   8.849  0.4249 -0.0350  0.4161
  185SAPI  H14X21273   3.882   3.752   8.867 -0.6161 -0.9289 -0.6339
  185SAPI  H14Y21274   3.925   3.595   8.788 -0.7542  0.0157  1.0833
  185SAPI  C31521275   4.082   3.766   8.792  0.4049  0.5993 -0.2247
  185SAPI  H15X21276   4.179   3.713   8.793 -0.0070 -0.1979  2.8314
  185SAPI  H15Y21277   4.100   3.850   8.862  1.6971  0.3995 -0.3113
  185SAPI  C31621278   4.054   3.825   8.652 -0.8317  0.6001 -0.0983
  185SAPI  H16X21279   3.963   3.889   8.653  0.0375  1.8525 -0.3143
  185SAPI  H16Y21280   4.037   3.734   8.590  0.9029 -1.6628  2.5984
  185SAPI  C31721281   4.171   3.905   8.598 -0.0381 -0.0228  0.5722
  185SAPI  H17X21282   4.263   3.845   8.619  1.8154  2.7606  0.7517
  185SAPI  H17Y21283   4.190   3.993   8.663  0.8733  1.3107 -1.4506
  185SAPI  C31821284   4.169   3.933   8.450  0.5547 -0.4086  0.3516
  185SAPI  H18X21285   4.172   3.840   8.391  2.8293  0.2050 -0.5252
  185SAPI  H18Y21286   4.255   3.992   8.412  0.5964  0.1362  1.2478
  185SAPI  H18Z21287   4.080   3.992   8.417  2.4856  1.5728 -1.4371
  186SAPI   C1221288   4.971   2.250  10.647  0.3385  0.1740 -0.7102
  186SAPI    H221289   4.997   2.257  10.540 -0.2300  0.0211 -0.8572
  186SAPI    O221290   4.984   2.382  10.703 -0.0170 -0.3317 -0.5631
  186SAPI   HO221291   5.076   2.402  10.724 -0.3612 -1.4896  2.3689
  186SAPI   C1321292   4.828   2.208  10.651 -0.7613  0.9526  0.1416
  186SAPI    H321293   4.810   2.109  10.605  1.4436  0.7470 -0.3106
  186SAPI    O321294   4.741   2.292  10.577  0.6675 -0.1650  0.0935
  186SAPI   HO321295   4.660   2.316  10.622  1.1810  2.5423 -0.2798
  186SAPI   C1421296   4.776   2.203  10.798  0.6069 -0.2403 -0.0732
  186SAPI    H421297   4.790   2.307  10.833 -1.9768  0.9588 -2.4818
  186SAPI    O421298   4.634   2.167  10.807  0.2296 -0.2808  0.3255
  186SAPI   HO421299   4.587   2.209  10.879  1.3325  0.0402  0.8707
  186SAPI   C1521300   4.862   2.110  10.880  0.1180 -0.2293  0.6061
  186SAPI    H521301   4.862   2.012  10.828  1.2051  0.8448 -1.5326
  186SAPI    O521302   4.807   2.098  11.009 -0.1941  0.4980 -0.4566
  186SAPI   HO521303   4.722   2.056  10.998 -0.5869  1.3424 -0.6631
  186SAPI   C1621304   5.011   2.146  10.877 -0.9071 -0.0771 -0.7570
  186SAPI    H621305   5.031   2.243  10.928  1.9756 -1.1693  0.2885
  186SAPI    O621306   5.082   2.048  10.956 -0.1136  0.2720 -0.2262
  186SAPI   HO621307   5.034   2.009  11.029 -1.8696  0.5461 -1.1978
  186SAPI   C1121308   5.060   2.151  10.726 -0.0114 -0.2732 -0.5878
  186SAPI    H121309   5.051   2.049  10.681  0.0198  0.6963 -2.8639
  186SAPI     P21310   5.294   2.140  10.602 -0.1463  0.4362 -0.4153
  186SAPI   O1321311   5.407   2.231  10.617  0.0668 -0.6553 -0.4361
  186SAPI   O1421312   5.210   2.134  10.484  0.3005 -0.0317 -0.4473
  186SAPI   O1221313   5.193   2.182  10.729 -0.1265  0.0918  0.2507
  186SAPI   O1121314   5.331   1.997  10.648 -0.1985 -0.2104  0.5112
  186SAPI    C121315   5.267   1.880  10.588 -1.1067 -0.0521 -0.1231
  186SAPI    HA21316   5.242   1.808  10.668 -1.1283  0.2488  0.1392
  186SAPI    HB21317   5.166   1.892  10.542 -2.7510 -2.2125  2.7589
  186SAPI    C221318   5.372   1.819  10.493  0.1632 -0.1767  0.3803
  186SAPI    HS21319   5.467   1.811  10.549  0.4456  1.3950  0.1384
  186SAPI   O2121320   5.379   1.904  10.375  0.1248  0.3019 -0.1978
  186SAPI   C2121321   5.497   1.966  10.354  0.1089 -0.4119 -0.0406
  186SAPI   O2221322   5.592   1.950  10.430  0.3646 -0.2184 -0.6968
  186SAPI   C2221323   5.491   2.049  10.220 -0.5559  0.0218 -0.2329
  186SAPI   H2R21324   5.382   2.053  10.198 -0.5731 -1.4329 -0.4543
  186SAPI   H2S21325   5.525   2.154  10.234  0.1086 -0.3186  0.7780
  186SAPI    C321326   5.353   1.663  10.457 -0.5100 -0.0053 -0.1482
  186SAPI    HX21327   5.245   1.652  10.432 -0.4482 -1.8827  0.3622
  186SAPI    HY21328   5.370   1.612  10.554  2.8296 -0.6359 -1.0155
  186SAPI   O3121329   5.442   1.617  10.353 -0.3394 -0.0923  0.5089
  186SAPI   C3121330   5.479   1.492  10.363 -0.1668  0.7173  0.0094
  186SAPI   O3221331   5.446   1.407  10.444  0.3757 -0.6829  0.1649
  186SAPI   C3221332   5.599   1.480  10.261 -0.3482 -0.1653  0.4543
  186SAPI   H2X21333   5.673   1.562  10.268 -0.0286 -0.2849 -1.2024
  186SAPI   H2Y21334   5.552   1.502  10.162 -0.4891 -0.6258  0.4184
  186SAPI   C2321335   5.570   1.988  10.105  0.4292 -0.3690 -0.7772
  186SAPI   H3R21336   5.561   1.878  10.121 -1.1389  0.1055  1.9115
  186SAPI   H3S21337   5.672   2.028  10.115  0.1106  0.3388 -0.3441
  186SAPI   C2421338   5.513   2.012   9.963 -0.4108 -0.7494  0.1929
  186SAPI   H4R21339   5.514   2.122   9.946  0.4482 -0.8206 -0.2808
  186SAPI   H4S21340   5.405   1.986   9.959 -1.1377  2.1763  0.0189
  186SAPI   C2521341   5.586   1.934   9.855  0.7843  0.7945 -0.3083
  186SAPI   H5R21342   5.591   1.829   9.886 -1.1660  1.2345  1.6075
  186SAPI   C2621343   5.629   1.971   9.731 -0.2694 -0.0433 -0.0047
  186SAPI   H6R21344   5.681   1.900   9.664 -0.4296  0.4861 -0.7038
  186SAPI   C2721345   5.621   2.110   9.673 -0.6424 -0.1959 -0.1404
  186SAPI   H7R21346   5.727   2.145   9.669 -0.9070  0.6347 -0.0599
  186SAPI   H7S21347   5.573   2.180   9.744 -1.2584 -1.7653  1.0080
  186SAPI   C2821348   5.537   2.097   9.543 -0.1685 -0.8320  0.3317
  186SAPI   H8R21349   5.427   2.102   9.550 -0.3088 -1.8879 -0.9074
  186SAPI   C2921350   5.591   2.075   9.418  0.2784 -0.5247 -0.0050
  186SAPI   H9R21351   5.517   2.065   9.338 -1.2770  0.4867  1.2693
  186SAPI  C21021352   5.736   2.061   9.382  0.0948 -0.3645  0.3565
  186SAPI  H10R21353   5.753   1.959   9.342 -0.3699  0.5571 -2.2960
  186SAPI  H10S21354   5.807   2.069   9.467 -0.8893 -0.9214  1.2401
  186SAPI  C21121355   5.783   2.178   9.286  0.4433  0.2085 -0.8662
  186SAPI  H11R21356   5.816   2.265   9.345 -3.8144 -0.0622  2.1123
  186SAPI  C21221357   5.791   2.179   9.152  0.1547  0.5971  0.2193
  186SAPI  H12R21358   5.816   2.268   9.092  0.0672 -1.1176 -2.3892
  186SAPI  C21321359   5.745   2.059   9.074  0.7541 -0.4424 -0.1261
  186SAPI  H13R21360   5.730   2.090   8.968 -1.4479 -0.5327  0.1338
  186SAPI  H13S21361   5.640   2.031   9.097 -0.6905  2.4099 -2.7699
  186SAPI  C21421362   5.816   1.927   9.074  0.1646  0.2383 -0.6402
  186SAPI  H14R21363   5.759   1.860   9.140 -0.5249  0.3592 -1.1122
  186SAPI  C21521364   5.937   1.902   9.009  0.2248  0.5177 -0.0813
  186SAPI  H15R21365   5.977   1.801   9.027  0.8367  0.8219  0.2759
  186SAPI  C21621366   6.009   1.990   8.913  1.1896  0.5256  0.5886
  186SAPI  H16R21367   6.120   1.983   8.919  1.2753  1.6110  0.2964
  186SAPI  H16S21368   5.977   2.096   8.914 -0.5945  0.0702 -1.7599
  186SAPI  C21721369   5.967   1.947   8.767 -0.2756 -0.7839 -0.2638
  186SAPI  H17R21370   5.857   1.966   8.765 -0.0365  0.7348  0.0610
  186SAPI  H17S21371   5.973   1.837   8.755 -1.9350 -0.8339 -0.7894
  186SAPI  C21821372   6.045   2.016   8.656 -0.1626  0.5026 -0.3000
  186SAPI  H18R21373   6.153   1.994   8.669  0.2129  1.4117 -1.8087
  186SAPI  H18S21374   6.022   2.124   8.669 -0.1934  0.4247  0.3050
  186SAPI  C21921375   6.015   1.971   8.517 -0.0367 -0.3949  0.3592
  186SAPI  H19R21376   6.033   1.861   8.521 -2.0021 -0.7019  1.1797
  186SAPI  H19S21377   6.081   2.020   8.441 -1.3973  1.9599  0.6332
  186SAPI  C22021378   5.862   1.982   8.480  0.2557 -0.3166 -0.1794
  186SAPI  H20R21379   5.798   1.905   8.528 -1.3527  1.4166  0.5258
  186SAPI  H20S21380   5.846   1.990   8.370  0.0511 -2.2602 -0.3035
  186SAPI  H20T21381   5.833   2.081   8.520 -1.7748 -0.4543 -1.2543
  186SAPI   C3321382   5.655   1.340  10.255 -0.4470 -0.4016  0.6085
  186SAPI   H3X21383   5.570   1.274  10.228 -0.6193  1.2538 -3.1212
  186SAPI   H3Y21384   5.681   1.301  10.356 -0.1897 -0.8788  0.3623
  186SAPI   C3421385   5.769   1.321  10.155  0.2479 -0.7150  0.2059
  186SAPI   H4X21386   5.803   1.215  10.167 -1.0860 -1.2375 -0.5725
  186SAPI   H4Y21387   5.848   1.395  10.180 -0.5454  0.5825 -1.0867
  186SAPI   C3521388   5.711   1.346  10.016  0.3442  0.4592  0.1943
  186SAPI   H5X21389   5.696   1.456  10.006  2.2572  0.8721  1.6486
  186SAPI   H5Y21390   5.616   1.295   9.989  1.0230  0.0417 -1.4440
  186SAPI   C3621391   5.809   1.305   9.905 -0.0796  0.6980 -0.4946
  186SAPI   H6X21392   5.837   1.199   9.922  0.0905  0.7599 -0.3832
  186SAPI   H6Y21393   5.904   1.361   9.917 -0.4228  0.7605  2.2566
  186SAPI   C3721394   5.753   1.316   9.762 -0.4176  0.3083  0.2034
  186SAPI   H7X21395   5.741   1.422   9.731 -0.4900  0.3601  0.4092
  186SAPI   H7Y21396   5.655   1.264   9.753  0.7855 -1.9763 -0.3055
  186SAPI   C3821397   5.843   1.251   9.662 -0.4542 -0.5656 -0.5102
  186SAPI   H8X21398   5.866   1.143   9.677 -1.4064 -1.0648 -2.4076
  186SAPI   H8Y21399   5.942   1.294   9.688 -0.0003 -0.7857 -1.8022
  186SAPI   C3921400   5.803   1.285   9.518  0.3006 -0.1324 -0.1030
  186SAPI   H9X21401   5.773   1.391   9.507 -1.4864 -0.6446 -0.2015
  186SAPI   H9Y21402   5.720   1.217   9.488  0.8005 -0.5045 -0.6823
  186SAPI  C31021403   5.918   1.250   9.412  0.4183 -0.3231 -0.7290
  186SAPI  H10X21404   5.954   1.146   9.430 -0.8149 -0.8383 -1.1499
  186SAPI  H10Y21405   5.997   1.323   9.439  1.6539 -1.3630 -1.4478
  186SAPI  C31121406   5.875   1.239   9.269  0.9509 -0.0059  0.8508
  186SAPI  H11X21407   5.834   1.335   9.229 -2.4712 -2.5193 -1.9769
  186SAPI  H11Y21408   5.788   1.171   9.259 -0.7138  2.1164  0.4863
  186SAPI  C31221409   5.990   1.196   9.169  0.3033 -0.7833  0.1727
  186SAPI  H12X21410   6.003   1.088   9.189 -2.2770 -0.9077  1.3960
  186SAPI  H12Y21411   6.079   1.256   9.194 -0.8588  0.8181  0.5825
  186SAPI  C31321412   5.969   1.225   9.018 -0.0195 -0.7078 -0.4907
  186SAPI  H13X21413   5.983   1.334   9.002  1.4431 -0.4760  2.1076
  186SAPI  H13Y21414   5.862   1.204   8.995 -0.6942 -0.3224  2.1621
  186SAPI  C31421415   6.062   1.150   8.924 -0.0079  0.4274 -0.1388
  186SAPI  H14X21416   6.037   1.042   8.916  0.4819  0.4220 -1.9127
  186SAPI  H14Y21417   6.163   1.142   8.970  1.1518 -1.9769 -2.9396
  186SAPI  C31521418   6.065   1.221   8.794  1.2257  0.1268 -0.8089
  186SAPI  H15X21419   6.141   1.302   8.806  0.6331  0.4313  0.9295
  186SAPI  H15Y21420   5.966   1.266   8.771  1.6932 -0.0249 -3.2817
  186SAPI  C31621421   6.101   1.127   8.670  0.3917 -0.1360 -0.7404
  186SAPI  H16X21422   6.011   1.065   8.651  1.4099 -2.2200  0.9517
  186SAPI  H16Y21423   6.196   1.073   8.693  0.4338 -0.4353 -1.6102
  186SAPI  C31721424   6.124   1.216   8.549  0.0648  0.3621  0.0304
  186SAPI  H17X21425   6.045   1.295   8.549 -2.2730 -1.9230  0.0796
  186SAPI  H17Y21426   6.108   1.148   8.463  0.4388  1.7836 -1.1975
  186SAPI  C31821427   6.261   1.275   8.535 -0.4880  0.0660  1.0509
  186SAPI  H18X21428   6.286   1.347   8.615 -1.8626  0.6491  0.9700
  186SAPI  H18Y21429   6.266   1.335   8.442 -0.6763 -4.4503 -2.0828
  186SAPI  H18Z21430   6.341   1.197   8.529 -0.4925  0.2502 -2.3805
  187SAPI   C1221431   2.509   2.431   6.104  0.1312 -0.0504 -0.3598
  187SAPI    H221432   2.518   2.532   6.150 -2.2191  0.8899 -1.9208
  187SAPI    O221433   2.412   2.439   6.001 -0.6267 -0.7356  0.5364
  187SAPI   HO221434   2.329   2.450   6.047  0.8849  0.4379  3.0762
  187SAPI   C1321435   2.641   2.377   6.065 -0.2939  0.8234  0.3611
  187SAPI    H321436   2.702   2.370   6.158 -0.2394  1.3057  0.3638
  187SAPI    O321437   2.715   2.458   5.975  0.1023 -0.3932  0.1916
  187SAPI   HO321438   2.661   2.486   5.900 -1.2731  1.9452  1.9963
  187SAPI   C1421439   2.623   2.234   5.997  0.1323 -0.5577 -0.2564
  187SAPI    H421440   2.564   2.262   5.907  0.2521  2.0496  0.4195
  187SAPI    O421441   2.746   2.167   5.965 -0.2262 -0.5078  0.4164
  187SAPI   HO421442   2.727   2.107   5.892 -0.8128  0.8583 -0.5726
  187SAPI   C1521443   2.550   2.134   6.084  0.6644  0.4768 -0.2054
  187SAPI    H521444   2.596   2.106   6.181 -2.1127 -1.7713  0.5413
  187SAPI    O521445   2.518   2.015   6.010 -0.2716  0.0075  0.1060
  187SAPI   HO521446   2.480   1.942   6.059 -1.1201  0.4574  0.1241
  187SAPI   C1621447   2.418   2.195   6.136  0.0722  0.7154  0.1429
  187SAPI    H621448   2.346   2.213   6.054 -0.5834  2.8855  1.1405
  187SAPI    O621449   2.349   2.104   6.221 -0.7564 -0.3728  0.2841
  187SAPI   HO621450   2.253   2.099   6.210 -0.6664 -1.4472 -0.0681
  187SAPI   C1121451   2.441   2.329   6.209 -0.3448  0.6677  0.1751
  187SAPI    H121452   2.515   2.313   6.290 -1.0098  2.2045  1.1077
  187SAPI     P21453   2.327   2.483   6.396  0.1923 -0.1952  0.0315
  187SAPI   O1321454   2.201   2.564   6.395 -0.4109 -0.1762 -0.5731
  187SAPI   O1421455   2.451   2.567   6.401 -0.0930  0.1649 -0.3860
  187SAPI   O1221456   2.316   2.384   6.261 -0.7745 -0.2346  0.2146
  187SAPI   O1121457   2.321   2.379   6.517 -0.4509  0.8748 -0.0185
  187SAPI    C121458   2.202   2.292   6.535  0.0422 -1.0134  1.2446
  187SAPI    HA21459   2.135   2.291   6.447  1.1094  1.6307  0.3772
  187SAPI    HB21460   2.234   2.186   6.551  3.8226 -0.5817 -2.5573
  187SAPI    C221461   2.125   2.342   6.662 -0.3099  0.6149  0.1393
  187SAPI    HS21462   2.079   2.442   6.646  0.1862  0.7677 -0.3468
  187SAPI   O2121463   2.215   2.335   6.772  0.3298 -0.1727 -0.5983
  187SAPI   C2121464   2.216   2.435   6.864 -0.1996 -0.0118 -0.3955
  187SAPI   O2221465   2.140   2.532   6.860 -0.2140  0.2119 -0.3947
  187SAPI   C2221466   2.311   2.404   6.978  0.5209 -0.6078 -0.6690
  187SAPI   H2R21467   2.262   2.327   7.040  0.0088  0.9983  0.9731
  187SAPI   H2S21468   2.405   2.352   6.948  1.0503 -0.1736  0.1975
  187SAPI    C321469   2.006   2.239   6.677  0.2503 -0.1292 -0.5058
  187SAPI    HX21470   2.045   2.135   6.687 -1.9116 -1.0580 -1.4918
  187SAPI    HY21471   1.949   2.245   6.582 -1.0556  0.3201  0.2912
  187SAPI   O3121472   1.913   2.279   6.781  0.3376  0.5763  0.2310
  187SAPI   C3121473   1.927   2.227   6.892 -0.8658 -0.2215  0.1392
  187SAPI   O3221474   2.006   2.139   6.926  0.3347  0.1312  0.0518
  187SAPI   C3221475   1.813   2.282   6.981  0.2700 -0.0084 -0.5275
  187SAPI   H2X21476   1.722   2.221   6.967 -0.2668  0.3950  1.0550
  187SAPI   H2Y21477   1.802   2.388   6.949  0.4364  0.2981  0.4176
  187SAPI   C2321478   2.327   2.532   7.072  0.2966  0.1116  0.3037
  187SAPI   H3R21479   2.377   2.507   7.169  0.9181 -2.1160 -0.5542
  187SAPI   H3S21480   2.227   2.566   7.106 -0.0075  0.6610 -1.1426
  187SAPI   C2421481   2.388   2.654   7.008 -0.8735  0.3466  0.0385
  187SAPI   H4R21482   2.361   2.745   7.065  1.8670  0.2617  1.5721
  187SAPI   H4S21483   2.349   2.664   6.905  0.6084  0.5149 -0.5138
  187SAPI   C2521484   2.541   2.648   7.009  0.3944  0.3623  1.2746
  187SAPI   H5R21485   2.578   2.554   6.967  1.3117  0.2261  2.3627
  187SAPI   C2621486   2.621   2.739   7.069  0.6703 -0.2623  0.5111
  187SAPI   H6R21487   2.730   2.724   7.064  0.5051 -1.5294  0.5405
  187SAPI   C2721488   2.575   2.867   7.136 -0.7357 -0.0251 -0.3175
  187SAPI   H7R21489   2.487   2.914   7.088 -0.9875  1.1055  1.2229
  187SAPI   H7S21490   2.656   2.942   7.123 -0.1117 -0.3618  1.4379
  187SAPI   C2821491   2.549   2.842   7.284  0.7523 -0.3512 -0.1308
  187SAPI   H8R21492   2.476   2.764   7.311  2.1880 -2.3688 -1.9091
  187SAPI   C2921493   2.599   2.900   7.393  0.0004  0.1790  0.1022
  187SAPI   H9R21494   2.571   2.848   7.485  1.2922  0.7080  0.8053
  187SAPI  C21021495   2.704   3.012   7.401 -0.2095 -0.1072 -0.7227
  187SAPI  H10R21496   2.736   3.029   7.296 -2.1089  0.4285 -1.2290
  187SAPI  H10S21497   2.794   2.977   7.457  1.8652  1.4511 -2.9834
  187SAPI  C21121498   2.671   3.148   7.461  0.3799 -0.3546  0.2013
  187SAPI  H11R21499   2.658   3.231   7.390 -1.7105 -0.0389  0.9281
  187SAPI  C21221500   2.657   3.172   7.593  0.1913  0.2754  0.1624
  187SAPI  H12R21501   2.621   3.273   7.619  0.0887  0.5545 -1.0084
  187SAPI  C21321502   2.664   3.089   7.713  0.0390  0.0336  0.2018
  187SAPI  H13R21503   2.641   2.983   7.689  0.3582 -0.1813  0.8499
  187SAPI  H13S21504   2.582   3.114   7.783  1.6600 -1.6447  2.7886
  187SAPI  C21421505   2.800   3.098   7.778  0.2925 -0.0079  0.2191
  187SAPI  H14R21506   2.881   3.105   7.705  0.5627  0.8554  0.6051
  187SAPI  C21521507   2.820   3.113   7.910 -0.3108 -0.3747  0.8009
  187SAPI  H15R21508   2.921   3.137   7.949 -0.8410  0.5611  1.6482
  187SAPI  C21621509   2.713   3.104   8.019  0.8441  0.7681 -0.3134
  187SAPI  H16R21510   2.627   3.048   7.977  1.8641  0.1058 -1.5704
  187SAPI  H16S21511   2.689   3.208   8.050  1.1293  0.8017 -0.1982
  187SAPI  C21721512   2.753   3.023   8.147  0.9180 -0.3734  0.4206
  187SAPI  H17R21513   2.819   3.090   8.206  0.2954  1.0320 -0.4574
  187SAPI  H17S21514   2.801   2.927   8.117  0.1062  0.2639 -3.1919
  187SAPI  C21821515   2.641   2.977   8.240  0.5882  0.4296  0.5647
  187SAPI  H18R21516   2.695   2.914   8.314  1.6507 -1.3636 -1.6560
  187SAPI  H18S21517   2.573   2.911   8.184 -0.0331  0.2211  1.5621
  187SAPI  C21921518   2.564   3.093   8.311  0.2354 -0.0195 -0.6382
  187SAPI  H19R21519   2.536   3.165   8.231 -1.8579  0.6513  0.6770
  187SAPI  H19S21520   2.636   3.155   8.368  1.9994 -2.5077 -0.1112
  187SAPI  C22021521   2.440   3.049   8.386 -0.8910 -1.2794  0.6745
  187SAPI  H20R21522   2.385   3.139   8.422  2.3691 -0.2871  3.4928
  187SAPI  H20S21523   2.458   2.988   8.477 -0.1394 -1.9440  0.0847
  187SAPI  H20T21524   2.378   2.984   8.321 -1.9202 -2.5275  2.8295
  187SAPI   C3321525   1.842   2.270   7.136 -0.3738 -0.1041 -0.3599
  187SAPI   H3X21526   1.863   2.166   7.170  1.2572  0.8602  1.6852
  187SAPI   H3Y21527   1.743   2.301   7.174 -0.3636 -0.7423  0.2020
  187SAPI   C3421528   1.937   2.369   7.185 -0.0262 -0.4927 -0.5765
  187SAPI   H4X21529   1.915   2.466   7.135  0.3671  1.0630  2.1545
  187SAPI   H4Y21530   2.041   2.337   7.163  0.8941 -0.6584  3.5299
  187SAPI   C3521531   1.928   2.389   7.340 -0.4503  0.5024  0.2269
  187SAPI   H5X21532   1.820   2.386   7.364 -0.0754 -2.2444  1.8780
  187SAPI   H5Y21533   1.981   2.479   7.377  2.9112  0.0810 -3.2053
  187SAPI   C3621534   1.986   2.266   7.416  0.8496  0.2385 -0.2201
  187SAPI   H6X21535   2.092   2.254   7.386  1.0334  2.1877 -0.4201
  187SAPI   H6Y21536   1.930   2.171   7.402  0.2212  0.6171 -0.2979
  187SAPI   C3721537   1.993   2.273   7.573 -0.2753  0.2073 -0.0329
  187SAPI   H7X21538   1.885   2.282   7.599 -0.3530  1.0994 -0.6102
  187SAPI   H7Y21539   2.045   2.367   7.603 -2.6053  1.0291  1.5846
  187SAPI   C3821540   2.052   2.147   7.637 -0.3892 -0.2438 -0.8780
  187SAPI   H8X21541   2.151   2.141   7.588  0.8531 -0.1042  1.5667
  187SAPI   H8Y21542   1.981   2.069   7.600  2.0365 -1.1345 -3.8559
  187SAPI   C3921543   2.065   2.144   7.793 -0.7912 -0.3335  0.4947
  187SAPI   H9X21544   2.088   2.039   7.825  0.6139 -0.4675 -0.8756
  187SAPI   H9Y21545   1.970   2.174   7.841  0.1069  1.0774  1.4398
  187SAPI  C31021546   2.173   2.242   7.847  0.1912  0.6152 -0.3770
  187SAPI  H10X21547   2.138   2.346   7.827  2.6165  1.2861 -1.2853
  187SAPI  H10Y21548   2.266   2.222   7.791  1.1391 -1.4139  1.8249
  187SAPI  C31121549   2.200   2.215   7.995  0.5347 -0.2064  0.1533
  187SAPI  H11X21550   2.298   2.264   8.015  1.5193 -1.8821 -0.4067
  187SAPI  H11Y21551   2.214   2.106   8.011 -0.2622 -0.7289 -2.4556
  187SAPI  C31221552   2.097   2.282   8.087  0.2767  0.6557 -0.0890
  187SAPI  H12X21553   2.002   2.229   8.069  1.4016 -1.2337 -0.5455
  187SAPI  H12Y21554   2.075   2.389   8.065 -4.0335 -0.5597 -2.1513
  187SAPI  C31321555   2.132   2.271   8.236 -0.0192 -0.0961 -0.8120
  187SAPI  H13X21556   2.233   2.315   8.251 -0.1832 -0.5505  2.0568
  187SAPI  H13Y21557   2.132   2.161   8.256 -2.6454 -0.2150 -1.3117
  187SAPI  C31421558   2.034   2.340   8.327  0.7448 -0.1615  0.8437
  187SAPI  H14X21559   1.930   2.303   8.314  0.9102  0.5691 -3.0855
  187SAPI  H14Y21560   2.038   2.448   8.301  0.4777 -0.4960 -0.6435
  187SAPI  C31521561   2.061   2.323   8.476 -0.2014 -0.6389  0.1892
  187SAPI  H15X21562   2.056   2.213   8.492  1.1817 -0.7413 -0.0108
  187SAPI  H15Y21563   1.973   2.370   8.524  0.5106  2.0096 -0.9994
  187SAPI  C31621564   2.188   2.385   8.533 -0.5136 -0.4589 -0.0146
  187SAPI  H16X21565   2.187   2.494   8.509 -0.4886 -0.6879 -1.0791
  187SAPI  H16Y21566   2.274   2.344   8.475  0.5641  2.6664 -0.7529
  187SAPI  C31721567   2.195   2.379   8.684  0.0418  0.0188 -0.2410
  187SAPI  H17X21568   2.108   2.422   8.739  0.8650  0.0611  1.0755
  187SAPI  H17Y21569   2.284   2.433   8.724 -1.1731  0.6369  1.7377
  187SAPI  C31821570   2.235   2.241   8.740  0.4742  0.8273 -0.1939
  187SAPI  H18X21571   2.200   2.236   8.846 -1.7795  0.9298 -0.9195
  187SAPI  H18Y21572   2.344   2.220   8.728 -0.1601 -1.7314 -1.8914
  187SAPI  H18Z21573   2.182   2.155   8.693  1.8571 -1.1221  1.6717
  188SAPI   C1221574   3.550   5.900   6.377  0.2336  0.5256  0.3485
  188SAPI    H221575   3.525   5.856   6.476 -1.6932  0.0957 -0.3128
  188SAPI    O221576   3.438   5.859   6.295  0.4418  0.6767  0.5351
  188SAPI   HO221577   3.443   5.766   6.269  0.0559  1.1567 -1.2432
  188SAPI   C1321578   3.553   6.046   6.388  0.0496  0.0857  0.7633
  188SAPI    H321579   3.638   6.070   6.456  0.0752 -1.0752  1.1445
  188SAPI    O321580   3.442   6.101   6.448  0.1618  0.4230 -0.7430
  188SAPI   HO321581   3.363   6.069   6.404 -0.4741  0.3809  0.4123
  188SAPI   C1421582   3.586   6.109   6.246  0.4938  0.1098  0.2563
  188SAPI    H421583   3.501   6.076   6.184  1.6923 -2.4902 -0.0836
  188SAPI    O421584   3.581   6.250   6.260 -0.8193  0.2700  0.1806
  188SAPI   HO421585   3.524   6.284   6.191 -1.7573  0.3489  0.9848
  188SAPI   C1521586   3.717   6.053   6.190  0.1741 -0.0978  0.6335
  188SAPI    H521587   3.799   6.082   6.259  1.9914 -0.1221 -1.5033
  188SAPI    O521588   3.755   6.111   6.064 -0.4763  0.3242 -0.0488
  188SAPI   HO521589   3.849   6.132   6.067  0.0249 -1.5770 -1.5295
  188SAPI   C1621590   3.705   5.900   6.181 -0.3611 -0.2491 -0.0274
  188SAPI    H621591   3.623   5.869   6.114 -1.1501  2.1211 -0.2165
  188SAPI    O621592   3.828   5.848   6.133 -0.0266 -0.6511 -0.5421
  188SAPI   HO621593   3.852   5.780   6.196  1.5560  1.0546  0.7344
  188SAPI   C1121594   3.680   5.843   6.320 -0.5645 -0.7781  0.1986
  188SAPI    H121595   3.757   5.894   6.381 -0.7563  1.2563 -1.1993
  188SAPI     P21596   3.722   5.627   6.468  0.1867 -0.6361  0.2777
  188SAPI   O1321597   3.835   5.697   6.527 -0.3426 -0.3611 -0.8936
  188SAPI   O1421598   3.734   5.481   6.450  0.0125  0.0713  0.9608
  188SAPI   O1221599   3.683   5.703   6.326 -0.2068 -0.3888 -0.1668
  188SAPI   O1121600   3.592   5.655   6.562  0.3779 -0.1348 -0.0236
  188SAPI    C121601   3.618   5.653   6.704 -0.1224  0.0143  0.1980
  188SAPI    HA21602   3.695   5.581   6.737  2.5265  2.1299 -1.1970
  188SAPI    HB21603   3.653   5.754   6.736 -1.8875  0.9343 -0.6833
  188SAPI    C221604   3.483   5.623   6.777 -0.1485 -1.0276  0.4910
  188SAPI    HS21605   3.413   5.699   6.737  1.0461 -0.3419 -0.3524
  188SAPI   O2121606   3.509   5.623   6.917  1.0788 -1.0520 -0.2851
  188SAPI   C2121607   3.418   5.674   6.996 -0.3444 -0.1128  0.4844
  188SAPI   O2221608   3.310   5.727   6.967 -0.1313 -0.4763 -0.0738
  188SAPI   C2221609   3.468   5.651   7.138  0.6733 -0.0580 -0.7251
  188SAPI   H2R21610   3.551   5.577   7.135 -1.0189 -2.1152  1.3025
  188SAPI   H2S21611   3.499   5.748   7.184 -0.6345 -0.6761  1.5133
  188SAPI    C321612   3.448   5.482   6.726  0.2906  0.4472 -0.0225
  188SAPI    HX21613   3.447   5.480   6.615  0.7148  0.7531 -0.0327
  188SAPI    HY21614   3.345   5.457   6.760 -0.3594  2.2106 -0.6534
  188SAPI   O3121615   3.554   5.386   6.761 -0.0188 -0.2095 -0.1431
  188SAPI   C3121616   3.550   5.324   6.878 -0.0907 -0.0364  0.4907
  188SAPI   O3221617   3.467   5.338   6.968 -0.1164  0.0340  0.0053
  188SAPI   C3221618   3.676   5.235   6.892  1.0087 -0.1478  0.0547
  188SAPI   H2X21619   3.759   5.307   6.871 -0.9851  1.0773 -4.4050
  188SAPI   H2Y21620   3.681   5.169   6.803 -0.3393  1.2854 -1.1382
  188SAPI   C2321621   3.363   5.578   7.225 -0.1623 -0.2061 -0.1563
  188SAPI   H3R21622   3.391   5.471   7.222  1.6700  0.2622 -0.2709
  188SAPI   H3S21623   3.257   5.580   7.192 -0.3190 -1.7518  0.2209
  188SAPI   C2421624   3.376   5.628   7.373 -0.7835 -0.5516 -0.1957
  188SAPI   H4R21625   3.357   5.737   7.379  0.8565 -0.2481 -0.2466
  188SAPI   H4S21626   3.484   5.614   7.396 -0.0695  1.4557 -2.1778
  188SAPI   C2521627   3.296   5.543   7.461 -0.2804 -0.0209  0.3876
  188SAPI   H5R21628   3.223   5.476   7.414  2.3048 -1.6893 -1.3633
  188SAPI   C2621629   3.311   5.542   7.593 -0.5855  0.1946  0.5229
  188SAPI   H6R21630   3.254   5.470   7.654  0.4787 -0.4772  0.7441
  188SAPI   C2721631   3.409   5.619   7.675  0.3691 -0.1488  0.2061
  188SAPI   H7R21632   3.367   5.707   7.729 -3.1006  0.0767 -2.6432
  188SAPI   H7S21633   3.481   5.670   7.608  1.5095  0.2507  1.7208
  188SAPI   C2821634   3.466   5.518   7.765 -0.1208 -0.1636 -0.4199
  188SAPI   H8R21635   3.548   5.463   7.716  1.8114  2.0038  0.2961
  188SAPI   C2921636   3.441   5.503   7.896 -0.2035  0.1537 -1.0054
  188SAPI   H9R21637   3.485   5.413   7.942  0.4755  1.1015  0.2406
  188SAPI  C21021638   3.336   5.582   7.979  0.2995  0.1676  0.0545
  188SAPI  H10R21639   3.247   5.519   8.001  0.1385  0.1950 -0.5181
  188SAPI  H10S21640   3.303   5.673   7.924 -0.2211  1.1428  1.9461
  188SAPI  C21121641   3.416   5.620   8.102  0.5603  0.0658 -0.0586
  188SAPI  H11R21642   3.495   5.694   8.084 -0.2488  0.6373 -1.3301
  188SAPI  C21221643   3.417   5.549   8.216 -0.0754 -0.1035  0.5255
  188SAPI  H12R21644   3.490   5.584   8.290  0.3874  0.5024 -0.1991
  188SAPI  C21321645   3.339   5.428   8.243  0.0411  0.8168  0.0139
  188SAPI  H13R21646   3.413   5.349   8.270  2.4007  2.6623 -0.8202
  188SAPI  H13S21647   3.303   5.386   8.147  0.2676  2.6496 -0.8957
  188SAPI  C21421648   3.212   5.422   8.334  0.2672 -0.8877  0.1359
  188SAPI  H14R21649   3.115   5.411   8.285  0.7115 -1.3089 -0.6541
  188SAPI  C21521650   3.209   5.422   8.465 -0.4260  0.0176 -0.1144
  188SAPI  H15R21651   3.115   5.416   8.521  0.7503 -1.0555  1.8279
  188SAPI  C21621652   3.335   5.437   8.547 -0.6415 -0.1598  0.6423
  188SAPI  H16R21653   3.324   5.530   8.608  0.1577  0.8774 -0.7614
  188SAPI  H16S21654   3.425   5.463   8.487 -0.4383 -0.8371  0.6542
  188SAPI  C21721655   3.383   5.315   8.628 -0.7779  0.3594 -0.0080
  188SAPI  H17R21656   3.492   5.320   8.649 -0.2668  0.0774 -2.4866
  188SAPI  H17S21657   3.382   5.225   8.564  2.7234 -0.3553  0.8399
  188SAPI  C21821658   3.290   5.284   8.743 -0.2039  0.0056  0.1316
  188SAPI  H18R21659   3.188   5.253   8.712  0.5593 -3.6708  1.1100
  188SAPI  H18S21660   3.285   5.380   8.799  0.5819 -0.5124  1.1052
  188SAPI  C21921661   3.341   5.181   8.843 -0.1858 -0.2427 -0.5306
  188SAPI  H19R21662   3.281   5.169   8.936  1.1444  0.5726  0.4513
  188SAPI  H19S21663   3.444   5.205   8.878 -0.3992  0.2714 -0.2420
  188SAPI  C22021664   3.343   5.025   8.799 -0.0031 -0.9418  0.2961
  188SAPI  H20R21665   3.383   4.954   8.874  0.2926 -1.9005 -0.7639
  188SAPI  H20S21666   3.417   5.027   8.717  0.6701  0.5074  0.9145
  188SAPI  H20T21667   3.248   4.981   8.763 -0.2784  0.1146 -0.2796
  188SAPI   C3321668   3.691   5.170   7.035 -1.1206  0.3749 -0.4262
  188SAPI   H3X21669   3.691   5.243   7.119 -1.2829  1.0607 -1.0149
  188SAPI   H3Y21670   3.789   5.118   7.032 -1.3238 -0.0407  0.0857
  188SAPI   C3421671   3.582   5.061   7.038 -0.1124  0.0343 -0.3526
  188SAPI   H4X21672   3.579   5.004   6.943 -0.7260  0.2637 -0.4703
  188SAPI   H4Y21673   3.484   5.113   7.030 -0.2538  0.1502  1.9199
  188SAPI   C3521674   3.559   4.969   7.155 -0.3110 -0.1322  0.1683
  188SAPI   H5X21675   3.647   4.901   7.164 -1.3831 -1.4296  1.1302
  188SAPI   H5Y21676   3.469   4.903   7.151  1.0383 -1.9344 -1.1657
  188SAPI   C3621677   3.568   5.054   7.287 -0.1583  0.2432  0.4206
  188SAPI   H6X21678   3.656   5.120   7.295  0.0632 -0.0785  0.6379
  188SAPI   H6Y21679   3.573   4.984   7.373 -2.4899 -1.9259 -1.1219
  188SAPI   C3721680   3.439   5.146   7.316  0.2728  0.3241  0.2367
  188SAPI   H7X21681   3.348   5.086   7.291  1.0691 -1.1958  0.9069
  188SAPI   H7Y21682   3.445   5.226   7.239 -1.5692 -1.7451 -2.1746
  188SAPI   C3821683   3.418   5.192   7.457 -0.6782  0.8295  0.5384
  188SAPI   H8X21684   3.317   5.239   7.450 -1.3576 -0.5807  0.5387
  188SAPI   H8Y21685   3.493   5.268   7.487  1.2581 -2.0286  3.3327
  188SAPI   C3921686   3.427   5.095   7.576  0.3480 -0.0334  0.1634
  188SAPI   H9X21687   3.527   5.046   7.574 -0.8372 -2.4675 -1.2343
  188SAPI   H9Y21688   3.345   5.024   7.557 -1.6844  2.2396  0.2250
  188SAPI  C31021689   3.397   5.149   7.713  0.0637 -0.2734 -0.8832
  188SAPI  H10X21690   3.297   5.198   7.702  0.0883 -0.4328 -1.8430
  188SAPI  H10Y21691   3.472   5.228   7.734 -2.9021  2.1127  1.2160
  188SAPI  C31121692   3.393   5.038   7.819 -0.3543  0.3923 -0.0917
  188SAPI  H11X21693   3.495   4.994   7.821 -1.2088 -1.6649 -0.2387
  188SAPI  H11Y21694   3.325   4.962   7.775 -1.2112  0.4352  1.1394
  188SAPI  C31221695   3.337   5.078   7.953  0.2257  0.1728 -0.2580
  188SAPI  H12X21696   3.229   5.103   7.947  0.1844  0.6413  1.9588
  188SAPI  H12Y21697   3.390   5.171   7.981  0.4186  0.1444 -0.5242
  188SAPI  C31321698   3.356   4.965   8.059  0.4585 -0.5000  0.7818
  188SAPI  H13X21699   3.466   4.950   8.066  0.7027 -0.7305 -2.6666
  188SAPI  H13Y21700   3.315   4.863   8.042  0.0444 -0.1353 -0.4260
  188SAPI  C31421701   3.321   5.015   8.203  0.0162 -0.0125 -0.8362
  188SAPI  H14X21702   3.344   5.123   8.218  0.6154  0.2640 -3.5137
  188SAPI  H14Y21703   3.386   4.954   8.269 -0.9143 -0.6957 -0.5341
  188SAPI  C31521704   3.179   4.977   8.251  0.4355 -0.1131 -0.4960
  188SAPI  H15X21705   3.145   4.871   8.251  0.5271 -0.1456 -0.8907
  188SAPI  H15Y21706   3.103   5.023   8.184 -0.1250  1.6000  1.2853
  188SAPI  C31621707   3.141   5.018   8.390  0.2218  0.3805 -0.4434
  188SAPI  H16X21708   3.167   5.124   8.410  1.8713 -0.1796  0.4455
  188SAPI  H16Y21709   3.205   4.960   8.460  1.2960  1.1200 -0.8059
  188SAPI  C31721710   2.993   5.004   8.415  0.2853 -0.0530 -0.2582
  188SAPI  H17X21711   2.976   4.894   8.409 -1.1156  0.1529 -0.2742
  188SAPI  H17Y21712   2.943   5.049   8.327  1.7589 -2.6016 -2.5126
  188SAPI  C31821713   2.930   5.065   8.544 -0.0941  0.2545  0.1367
  188SAPI  H18X21714   2.822   5.042   8.543  0.3119 -1.7985  0.5544
  188SAPI  H18Y21715   2.954   5.174   8.543  2.0342 -0.1987 -2.0712
  188SAPI  H18Z21716   2.966   5.007   8.632  2.0830 -0.9509 -1.4833
  189POPC     N21717   3.546   0.893  11.236 -0.3379 -0.4138 -0.8653
  189POPC   C1221718   3.667   0.809  11.268 -0.5077  0.4997  0.1505
  189POPC  H12A21719   3.627   0.712  11.294  1.9406  0.3813  3.6650
  189POPC  H12B21720   3.714   0.851  11.355  1.3747 -4.3867  1.6502
  189POPC   C1321721   3.595   1.033  11.198 -0.0803  1.4378  0.5477
  189POPC  H13A21722   3.645   1.091  11.274  2.9241  0.1750 -0.4152
  189POPC  H13B21723   3.665   1.030  11.116 -0.4358  0.1219  0.2941
  189POPC  H13C21724   3.509   1.094  11.173 -3.1205 -2.8567  0.0780
  189POPC   C1421725   3.472   0.839  11.120 -0.2165 -0.1531  0.6092
  189POPC  H14A21726   3.422   0.745  11.140 -1.2130  0.6967  2.2124
  189POPC  H14B21727   3.400   0.908  11.080 -0.8677 -2.3413 -2.1853
  189POPC  H14C21728   3.548   0.809  11.049  0.3261 -1.2585  1.6410
  189POPC   C1521729   3.451   0.888  11.351 -0.3728 -0.2131 -0.1357
  189POPC  H15A21730   3.425   0.784  11.364 -0.2822 -0.1207  0.8057
  189POPC  H15B21731   3.358   0.939  11.334 -2.0147 -3.5771 -1.8555
  189POPC  H15C21732   3.481   0.914  11.452 -1.7297  0.8339  0.0150
  189POPC   C1121733   3.777   0.789  11.154  0.4538  0.3490 -0.8032
  189POPC  H11A21734   3.866   0.751  11.209 -1.0390 -1.5831  0.3380
  189POPC  H11B21735   3.820   0.882  11.113 -1.0789  1.5657  0.2973
  189POPC     P21736   3.734   0.549  11.053 -0.0980  0.1592 -0.2778
  189POPC   O1321737   3.628   0.493  11.139 -0.3991 -0.0382 -0.0713
  189POPC   O1421738   3.873   0.503  11.074 -0.6043  0.6767 -0.3264
  189POPC   O1221739   3.728   0.707  11.046  0.4730 -0.1941 -0.3255
  189POPC   O1121740   3.703   0.511  10.904 -0.1755  0.0825  0.3541
  189POPC    C121741   3.640   0.604  10.810 -0.1536  0.7516  0.3871
  189POPC    HA21742   3.662   0.710  10.838 -0.4564  1.3877 -1.6353
  189POPC    HB21743   3.531   0.586  10.815  0.0407 -0.3637  0.6409
  189POPC    C221744   3.690   0.575  10.674 -0.7773  0.5464  1.2394
  189POPC    HS21745   3.676   0.666  10.611  0.8784 -1.5549 -2.3394
  189POPC   O2121746   3.618   0.457  10.634  0.0696  0.1685  0.0458
  189POPC   C2121747   3.606   0.458  10.504  0.5602  0.4323 -0.4114
  189POPC   O2221748   3.651   0.538  10.426 -0.0522  0.5312  0.2383
  189POPC   C2221749   3.522   0.341  10.467 -0.3678 -0.1518 -0.4505
  189POPC   H2R21750   3.436   0.344  10.538  0.6982 -0.2047  0.8827
  189POPC   H2S21751   3.563   0.243  10.499  0.6039  1.3073  3.0574
  189POPC    C321752   3.850   0.555  10.668  0.2548 -0.1827 -0.3123
  189POPC    HX21753   3.869   0.474  10.742 -1.2357  0.5486  0.9002
  189POPC    HY21754   3.908   0.639  10.714 -0.1412  1.9338 -3.4773
  189POPC   O3121755   3.899   0.516  10.542  0.0789 -0.6786  0.4444
  189POPC   C3121756   3.929   0.616  10.457  0.0926  0.3360 -0.1892
  189POPC   O3221757   3.928   0.741  10.473  0.1324 -0.3372 -0.0210
  189POPC   C3221758   3.987   0.545  10.333  0.1152  0.3921  0.6719
  189POPC   H2X21759   3.907   0.495  10.274  0.0162  0.0434  1.1042
  189POPC   H2Y21760   4.054   0.462  10.362  1.0721  0.6191 -0.8159
  189POPC   C2321761   3.463   0.330  10.326  0.2769  0.5223 -0.5653
  189POPC   H3R21762   3.535   0.378  10.256  1.0395  1.8821  1.1296
  189POPC   H3S21763   3.362   0.377  10.323  1.1415  2.5566  1.1653
  189POPC   C2421764   3.450   0.180  10.284  0.0495 -0.2218  0.1162
  189POPC   H4R21765   3.385   0.125  10.355 -1.7936  0.2304 -1.1682
  189POPC   H4S21766   3.544   0.124  10.266 -0.7407 -1.3932 -0.4054
  189POPC   C2521767   3.377   0.159  10.150 -0.0612  0.6216 -0.3099
  189POPC   H5R21768   3.267   0.166  10.166 -0.1846  0.5512 -1.0972
  189POPC   H5S21769   3.381   0.052  10.120 -0.5040  0.6964 -0.6397
  189POPC   C2621770   3.426   0.250  10.032 -0.5646  0.7137 -0.6177
  189POPC   H6R21771   3.536   0.246  10.015 -0.7063 -2.1171 -0.9973
  189POPC   H6S21772   3.409   0.354  10.069 -0.7826  0.5236 -0.1918
  189POPC   C2721773   3.346   0.234   9.905  0.5547 -0.0370  0.7206
  189POPC   H7R21774   3.243   0.211   9.938 -0.1428 -0.8767 -1.9410
  189POPC   H7S21775   3.386   0.148   9.846 -0.7951  0.3147 -0.7280
  189POPC   C2821776   3.355   0.353   9.818 -0.8522 -0.0955  0.2742
  189POPC   H8R21777   3.342   0.447   9.877 -1.6976 -0.3814  0.5480
  189POPC   H8S21778   3.275   0.336   9.742  0.3414  1.6251 -1.4234
  189POPC   C2921779   3.497   0.364   9.761 -0.2139 -0.3763  0.3114
  189POPC   H9121780   3.573   0.351   9.840  0.3247  1.6123  0.1552
  189POPC  C21021781   3.528   0.381   9.632 -0.0874  0.5158  0.5203
  189POPC  H10121782   3.634   0.388   9.602 -0.2993  2.5391  0.1678
  189POPC  C21121783   3.438   0.391   9.516 -0.2613  0.5500  0.2307
  189POPC  H11R21784   3.456   0.495   9.479  1.8208 -0.0882 -0.6062
  189POPC  H11S21785   3.333   0.368   9.544 -0.2152 -0.0911 -0.1041
  189POPC  C21221786   3.486   0.300   9.396  0.0816 -0.2657  0.0541
  189POPC  H12R21787   3.448   0.197   9.411 -0.4110  0.3441  3.2919
  189POPC  H12S21788   3.596   0.314   9.406  0.1606 -1.6439  1.4604
  189POPC  C21321789   3.436   0.357   9.261  0.2321 -0.9764  0.5785
  189POPC  H13R21790   3.467   0.464   9.266  2.5658 -1.5658 -0.5876
  189POPC  H13S21791   3.325   0.359   9.268  0.1941  1.9977 -0.1464
  189POPC  C21421792   3.491   0.297   9.137  0.5317 -0.1291  0.0189
  189POPC  H14R21793   3.436   0.202   9.120  2.7795 -1.5884  0.6802
  189POPC  H14S21794   3.597   0.271   9.155  0.1508 -1.2386  0.7660
  189POPC  C21521795   3.479   0.374   9.004  0.4864 -0.0738  0.2541
  189POPC  H15R21796   3.528   0.473   9.015 -1.5425  1.2980 -2.3779
  189POPC  H15S21797   3.371   0.380   8.980  0.4433  1.6844  0.7921
  189POPC  C21621798   3.557   0.313   8.885  0.1971  0.3632  0.0075
  189POPC  H16R21799   3.518   0.213   8.857 -1.4540  2.0105 -3.9319
  189POPC  H16S21800   3.662   0.294   8.918  0.3402  1.6933  0.3580
  189POPC  C21721801   3.541   0.385   8.750  0.0100  0.2037  0.1531
  189POPC  H17R21802   3.555   0.495   8.758  1.4199  0.0632 -0.1236
  189POPC  H17S21803   3.439   0.377   8.708 -0.7081  2.2898  1.4027
  189POPC  C21821804   3.646   0.315   8.658  0.3896 -0.6045 -0.4277
  189POPC  H18R21805   3.629   0.208   8.632  1.6494 -0.9029 -0.0525
  189POPC  H18S21806   3.743   0.328   8.712  0.3789  3.6285 -1.2336
  189POPC  H18T21807   3.662   0.370   8.563  0.8686 -1.7021 -0.9992
  189POPC   C3321808   4.050   0.641  10.238  0.3131  0.2674  0.6075
  189POPC   H3X21809   4.130   0.694  10.294  1.2331 -0.4616 -0.0201
  189POPC   H3Y21810   3.969   0.714  10.214  0.8853  0.3772 -1.0264
  189POPC   C3421811   4.093   0.570  10.107  0.0640 -0.8179  0.0701
  189POPC   H4X21812   3.999   0.527  10.065 -0.2269 -0.7107  0.6135
  189POPC   H4Y21813   4.175   0.498  10.124  0.5513 -0.2935 -0.0148
  189POPC   C3521814   4.152   0.674  10.008  0.2403 -0.6331  0.7119
  189POPC   H5X21815   4.258   0.697  10.028  0.4109 -1.2030  0.4578
  189POPC   H5Y21816   4.106   0.773  10.028  0.0845 -0.9306  1.8640
  189POPC   C3621817   4.145   0.623   9.861  0.3442  0.0712 -0.9197
  189POPC   H6X21818   4.041   0.590   9.836  1.4668 -2.1707 -2.8366
  189POPC   H6Y21819   4.209   0.532   9.859  0.1466 -0.1532  1.5720
  189POPC   C3721820   4.203   0.714   9.753  0.1995 -0.2859  0.1321
  189POPC   H7X21821   4.305   0.746   9.785 -0.3092 -0.0793  1.5696
  189POPC   H7Y21822   4.135   0.801   9.743 -0.1301 -0.4836  0.6232
  189POPC   C3821823   4.196   0.652   9.606  0.4090  0.5835 -0.4168
  189POPC   H8X21824   4.096   0.607   9.594  0.9222 -0.4159 -1.0006
  189POPC   H8Y21825   4.272   0.571   9.604 -0.2265 -0.0591  0.9412
  189POPC   C3921826   4.224   0.773   9.514  0.4467  0.2372  0.4557
  189POPC   H9X21827   4.317   0.828   9.540 -0.4755  2.2532 -0.3238
  189POPC   H9Y21828   4.135   0.840   9.522 -0.8768 -1.5214  0.7062
  189POPC  C31021829   4.231   0.725   9.369  0.0408  0.1871  0.3086
  189POPC  H10X21830   4.144   0.659   9.347  0.7529 -0.1914 -1.5042
  189POPC  H10Y21831   4.320   0.658   9.366 -0.8392 -0.9826 -0.0036
  189POPC  C31121832   4.241   0.834   9.261  0.0026  0.7106  0.0513
  189POPC  H11X21833   4.345   0.872   9.276  0.5226 -1.0691  1.0565
  189POPC  H11Y21834   4.154   0.902   9.273 -1.1267 -0.6674 -0.3370
  189POPC  C31221835   4.238   0.776   9.117 -0.0860 -0.1103  0.2578
  189POPC  H12X21836   4.137   0.735   9.097  0.1228 -1.1005  1.1946
  189POPC  H12Y21837   4.309   0.690   9.111 -0.6035 -0.5940  0.9746
  189POPC  C31321838   4.269   0.889   9.019  0.0586  0.5327  0.3925
  189POPC  H13X21839   4.378   0.910   9.025  0.6715 -2.9961  4.0219
  189POPC  H13Y21840   4.222   0.984   9.054 -2.5123  0.2153 -2.0592
  189POPC  C31421841   4.221   0.846   8.882 -0.5959 -0.0554 -0.5184
  189POPC  H14X21842   4.224   0.931   8.811 -2.1348 -0.1546 -0.7271
  189POPC  H14Y21843   4.117   0.806   8.880 -0.2333 -1.1892  1.5193
  189POPC  C31521844   4.316   0.750   8.813  0.6332  0.5635  0.3571
  189POPC  H15X21845   4.348   0.667   8.879 -0.7951 -0.9223 -0.7771
  189POPC  H15Y21846   4.410   0.809   8.804  0.8178  0.5828  2.3061
  189POPC  C31621847   4.262   0.692   8.685  0.0799  0.4232 -0.0257
  189POPC  H16X21848   4.341   0.631   8.637  1.3332  1.8027  0.2605
  189POPC  H16Y21849   4.232   0.773   8.616  1.6554  0.1228 -1.0642
  189POPC  H16Z21850   4.170   0.633   8.710 -0.1375  1.7166  2.3485
  190POPC     N21851   5.978   3.850  11.036 -0.6097  0.0965 -0.2369
  190POPC   C1221852   5.900   3.766  10.933  0.0390  0.6120  0.4857
  190POPC  H12A21853   5.961   3.740  10.848 -2.5949 -0.6760 -1.0839
  190POPC  H12B21854   5.821   3.826  10.892  1.0771  0.5307 -1.6672
  190POPC   C1321855   6.046   3.963  10.970  0.0217 -0.3800  0.1612
  190POPC  H13A21856   6.126   3.938  10.903  1.4172  0.9080  1.3313
  190POPC  H13B21857   5.978   4.020  10.908 -2.4153 -1.3240  1.8665
  190POPC  H13C21858   6.092   4.034  11.036  1.9995 -1.2913 -0.2098
  190POPC   C1421859   5.877   3.901  11.131  0.3411 -0.1978  0.3397
  190POPC  H14A21860   5.907   3.970  11.209 -1.2349 -1.7087  2.3568
  190POPC  H14B21861   5.798   3.946  11.073  1.6993  1.0457 -0.5934
  190POPC  H14C21862   5.825   3.827  11.189  0.0892 -0.7093 -0.5359
  190POPC   C1521863   6.083   3.771  11.115 -0.4285  0.3776 -1.1885
  190POPC  H15A21864   6.034   3.680  11.149  0.4247  0.5760  0.6714
  190POPC  H15B21865   6.118   3.822  11.204 -1.6093 -1.6199  0.4846
  190POPC  H15C21866   6.169   3.740  11.058 -0.0515 -2.8844  0.9966
  190POPC   C1121867   5.833   3.636  10.989 -0.1418 -0.9301 -0.4171
  190POPC  H11A21868   5.768   3.587  10.913  0.5787 -0.1507 -1.5506
  190POPC  H11B21869   5.773   3.657  11.080 -0.9603 -1.8185 -0.7342
  190POPC     P21870   5.896   3.399  11.080  0.5017  0.7122 -0.3010
  190POPC   O1321871   5.793   3.420  11.179 -0.0267  0.2285 -0.3754
  190POPC   O1421872   6.011   3.314  11.117  0.5755 -0.1316  0.2817
  190POPC   O1221873   5.938   3.543  11.024  0.3885  0.3130 -0.0634
  190POPC   O1121874   5.828   3.325  10.954  0.2806  0.2546 -0.0092
  190POPC    C121875   5.902   3.338  10.833 -0.4577 -0.1476  0.3851
  190POPC    HA21876   6.001   3.288  10.838  0.2421  0.9514 -1.7402
  190POPC    HB21877   5.922   3.444  10.807  0.8655 -0.0638  1.7404
  190POPC    C221878   5.836   3.263  10.717  0.5660 -0.0254 -0.3599
  190POPC    HS21879   5.905   3.270  10.630  2.6331  0.2495  1.2529
  190POPC   O2121880   5.709   3.316  10.680 -0.0690  0.7436  0.0406
  190POPC   C2121881   5.712   3.428  10.612  0.1235  0.0066  0.0513
  190POPC   O2221882   5.809   3.502  10.595  0.5795 -0.0585 -0.4781
  190POPC   C2221883   5.576   3.459  10.543 -0.5948 -0.7738 -0.5672
  190POPC   H2R21884   5.555   3.554  10.596  3.9606  0.3774 -0.5943
  190POPC   H2S21885   5.503   3.378  10.563 -0.2594 -0.5843  1.4576
  190POPC    C321886   5.833   3.101  10.744  0.0525 -0.1251  0.5082
  190POPC    HX21887   5.755   3.083  10.822  0.2651  0.4803  0.8662
  190POPC    HY21888   5.932   3.075  10.786  0.5521  1.4267  0.3467
  190POPC   O3121889   5.807   3.027  10.615  0.1543 -0.4054  0.0402
  190POPC   C3121890   5.922   2.981  10.557 -0.0458 -1.5103  0.2510
  190POPC   O3221891   6.034   2.981  10.600 -0.1990 -0.1668 -0.0993
  190POPC   C3221892   5.896   2.922  10.421  0.4929 -0.1526 -0.4230
  190POPC   H2X21893   5.789   2.924  10.391 -0.7777 -2.8648  3.5558
  190POPC   H2Y21894   5.919   2.815  10.441  0.6085 -0.0495 -0.0150
  190POPC   C2321895   5.590   3.493  10.391  0.8109  0.1039 -0.3221
  190POPC   H3R21896   5.671   3.569  10.388  0.1858  0.7422 -1.6747
  190POPC   H3S21897   5.501   3.554  10.366  1.2899  0.8098 -0.3231
  190POPC   C2421898   5.627   3.392  10.288 -0.0896  0.1512 -0.1826
  190POPC   H4R21899   5.565   3.304  10.310  2.8855 -1.6880  1.1444
  190POPC   H4S21900   5.731   3.357  10.308  0.0418  1.0368  0.7217
  190POPC   C2521901   5.616   3.432  10.142  0.2074  0.1138  0.4591
  190POPC   H5R21902   5.692   3.510  10.121  0.4107  0.2930  1.8031
  190POPC   H5S21903   5.516   3.465  10.107 -0.0916  0.6914  1.8317
  190POPC   C2621904   5.642   3.317  10.055  0.0684  0.0024 -0.1692
  190POPC   H6R21905   5.568   3.235  10.067 -1.0309  1.3070  2.3629
  190POPC   H6S21906   5.742   3.271  10.070  0.2650  0.2711 -0.6429
  190POPC   C2721907   5.628   3.361   9.903  0.2585  0.1147 -0.1090
  190POPC   H7R21908   5.683   3.457   9.890  1.8782 -0.5342  1.7854
  190POPC   H7S21909   5.517   3.370   9.901  0.0825 -2.0187 -2.1916
  190POPC   C2821910   5.675   3.261   9.794 -0.3540 -0.0422  0.7670
  190POPC   H8R21911   5.626   3.164   9.816  1.4911 -1.5283 -1.5421
  190POPC   H8S21912   5.785   3.247   9.801 -0.2247  1.0168  0.9118
  190POPC   C2921913   5.648   3.322   9.656 -0.2514 -0.0684 -0.0942
  190POPC   H9121914   5.568   3.398   9.655 -0.3830 -0.0986  2.5882
  190POPC  C21021915   5.716   3.276   9.554 -0.0950 -0.7482 -0.3556
  190POPC  H10121916   5.706   3.328   9.458 -0.1674 -1.1797 -0.5832
  190POPC  C21121917   5.826   3.169   9.555 -0.0856  1.0970 -0.0842
  190POPC  H11R21918   5.791   3.088   9.622  0.4046  0.2329 -0.8673
  190POPC  H11S21919   5.923   3.201   9.600  0.3475 -1.6245  1.0047
  190POPC  C21221920   5.861   3.104   9.421 -0.4237  0.7907 -0.9202
  190POPC  H12R21921   5.966   3.069   9.433 -0.8234  0.1108  0.5918
  190POPC  H12S21922   5.855   3.190   9.350 -0.5640  1.1326 -0.4949
  190POPC  C21321923   5.772   2.988   9.375  0.3358  0.7175  0.6445
  190POPC  H13R21924   5.667   3.024   9.374 -0.6438 -2.0063  0.8538
  190POPC  H13S21925   5.766   2.902   9.446 -0.9597  1.3556  1.3331
  190POPC  C21421926   5.819   2.946   9.238 -0.5844 -0.1343 -0.0795
  190POPC  H14R21927   5.921   2.908   9.262 -0.0890  1.2222 -0.0172
  190POPC  H14S21928   5.829   3.044   9.188  0.2108  0.4135  1.1167
  190POPC  C21521929   5.739   2.847   9.155  0.1079  0.1111 -0.1140
  190POPC  H15R21930   5.636   2.885   9.134  0.2259  1.2407  1.2891
  190POPC  H15S21931   5.702   2.773   9.228  2.3743 -0.5280  0.4064
  190POPC  C21621932   5.817   2.781   9.037 -0.2925 -0.3130 -0.3209
  190POPC  H16R21933   5.750   2.706   8.991 -0.8387  0.2567 -0.4580
  190POPC  H16S21934   5.908   2.731   9.076 -0.2949  0.4904  0.7386
  190POPC  C21721935   5.857   2.873   8.918 -0.2330  0.3374  0.3526
  190POPC  H17R21936   5.942   2.937   8.947  1.8101 -3.0283  2.1559
  190POPC  H17S21937   5.776   2.943   8.888  1.1697  1.4514 -0.9069
  190POPC  C21821938   5.905   2.798   8.788  0.5113 -0.1798  0.3595
  190POPC  H18R21939   6.003   2.749   8.802  0.5290  0.0646  1.1090
  190POPC  H18S21940   5.919   2.875   8.709  0.9372  0.0016  0.6186
  190POPC  H18T21941   5.829   2.729   8.745 -0.1528  0.6030  0.2548
  190POPC   C3321942   5.988   2.980  10.308 -0.6041 -0.3995 -0.4178
  190POPC   H3X21943   6.085   3.022  10.342 -1.4919  0.5833  0.9704
  190POPC   H3Y21944   5.931   3.072  10.282 -1.7488 -0.9033  0.2872
  190POPC   C3421945   5.999   2.885  10.184  0.5981  0.6018 -0.1105
  190POPC   H4X21946   5.895   2.852  10.163 -0.4697  1.2757  3.8159
  190POPC   H4Y21947   6.069   2.799  10.189  0.1243  0.3547  2.6231
  190POPC   C3521948   6.069   2.963  10.067 -0.6743 -0.3863 -0.2067
  190POPC   H5X21949   6.175   2.971  10.100 -0.6671 -0.0488 -0.3095
  190POPC   H5Y21950   6.031   3.068  10.068 -2.5518 -1.0617  0.7180
  190POPC   C3621951   6.074   2.903   9.923 -0.4181  0.2893  0.1368
  190POPC   H6X21952   5.972   2.897   9.881 -0.7262 -0.7414  1.0041
  190POPC   H6Y21953   6.113   2.801   9.943 -3.8068 -1.1964 -0.4461
  190POPC   C3721954   6.168   2.972   9.826 -0.3834 -0.2579  0.4721
  190POPC   H7X21955   6.273   2.973   9.864 -0.2801 -0.3980  0.1957
  190POPC   H7Y21956   6.129   3.075   9.810  1.4563  0.0261 -2.6743
  190POPC   C3821957   6.183   2.909   9.685 -0.4811 -0.4617 -1.1107
  190POPC   H8X21958   6.079   2.872   9.668  0.3718 -1.9670 -3.2239
  190POPC   H8Y21959   6.252   2.823   9.689 -0.2440 -0.2110  0.1643
  190POPC   C3921960   6.219   3.008   9.581  0.2076 -0.7772 -0.0006
  190POPC   H9X21961   6.317   3.053   9.609  0.8611 -2.1043 -0.0708
  190POPC   H9Y21962   6.134   3.079   9.586 -0.9644 -2.0664 -1.3582
  190POPC  C31021963   6.233   2.934   9.451  0.3630 -0.7375  0.3842
  190POPC  H10X21964   6.144   2.869   9.442  0.1324 -0.4061  0.2693
  190POPC  H10Y21965   6.319   2.865   9.461  0.6492 -0.3530  0.5888
  190POPC  C31121966   6.234   3.029   9.323 -0.1104  0.4551  0.0148
  190POPC  H11X21967   6.326   3.091   9.323 -2.8761  4.7830  0.5572
  190POPC  H11Y21968   6.145   3.096   9.331 -1.2739 -1.1623  0.9036
  190POPC  C31221969   6.219   2.951   9.194  0.5382  0.3487  0.6965
  190POPC  H12X21970   6.138   2.876   9.195  2.2097 -1.5350  2.7950
  190POPC  H12Y21971   6.316   2.899   9.176  0.2487  0.0259  0.0739
  190POPC  C31321972   6.183   3.039   9.074 -0.2169 -0.0803 -1.0935
  190POPC  H13X21973   6.255   3.124   9.073 -1.2597  0.8340  0.5101
  190POPC  H13Y21974   6.079   3.077   9.082  0.2136  0.6837  1.2045
  190POPC  C31421975   6.202   2.969   8.934 -0.3979 -0.9899  0.1520
  190POPC  H14X21976   6.136   2.879   8.930 -1.6257 -0.1472  1.0057
  190POPC  H14Y21977   6.307   2.937   8.921 -0.5832 -0.9685 -1.6119
  190POPC  C31521978   6.168   3.055   8.813  0.0765 -0.2880  0.9430
  190POPC  H15X21979   6.218   3.153   8.824 -1.3903  0.4276  1.3098
  190POPC  H15Y21980   6.061   3.084   8.822  0.4285  0.0717  4.5634
  190POPC  C31621981   6.191   2.979   8.682  0.3137 -0.2688 -0.1421
  190POPC  H16X21982   6.124   2.891   8.670 -0.8904  0.6104  0.0593
  190POPC  H16Y21983   6.294   2.943   8.659  0.1900 -0.3676 -0.5357
  190POPC  H16Z21984   6.175   3.042   8.592 -1.9488 -0.9819 -0.2700
  191POPC     N21985   6.736   3.966   6.195 -0.4090  0.1601  0.3997
  191POPC   C1221986   6.636   3.881   6.280  0.6083  0.2342 -0.3717
  191POPC  H12A21987   6.682   3.864   6.377  1.1634  1.7913 -0.3501
  191POPC  H12B21988   6.627   3.783   6.235 -2.6220  1.2767 -2.1622
  191POPC   C1321989   6.789   4.068   6.289  0.7546 -0.8646 -0.0244
  191POPC  H13A21990   6.857   4.006   6.346 -1.5475 -3.0538  0.4304
  191POPC  H13B21991   6.843   4.150   6.244 -1.8793 -0.2329 -2.1668
  191POPC  H13C21992   6.707   4.108   6.347  2.2050  1.3406  0.5948
  191POPC   C1421993   6.853   3.881   6.155  0.6044 -0.9151  0.5795
  191POPC  H14A21994   6.830   3.809   6.078  0.6708  0.3028 -0.5937
  191POPC  H14B21995   6.926   3.943   6.105 -0.1727 -0.4631 -0.0063
  191POPC  H14C21996   6.883   3.829   6.245 -1.7438 -1.3221  1.1762
  191POPC   C1521997   6.670   4.029   6.069 -0.4908  0.7525  0.1315
  191POPC  H15A21998   6.645   3.956   5.994 -0.5660 -1.3681  2.1348
  191POPC  H15B21999   6.736   4.103   6.026 -0.2147 -0.1506 -1.0101
  191POPC  H15C22000   6.571   4.066   6.092 -0.4018 -0.0881  2.0128
  191POPC   C1122001   6.495   3.933   6.314  0.7169 -0.0628  0.0967
  191POPC  H11A22002   6.519   4.026   6.370  0.1025  1.0944 -1.5058
  191POPC  H11B22003   6.433   3.875   6.386 -0.5476 -0.9231 -1.6348
  191POPC     P22004   6.308   4.058   6.180 -0.1742  0.1688  0.1954
  191POPC   O1322005   6.180   4.006   6.123  0.0181  0.3421  0.0063
  191POPC   O1422006   6.388   4.154   6.100  0.3373  0.8020  0.5295
  191POPC   O1222007   6.417   3.942   6.205  0.3575  0.5029 -0.3073
  191POPC   O1122008   6.278   4.106   6.330  0.1786  0.0683 -0.2206
  191POPC    C122009   6.211   4.013   6.418  0.0891 -0.2514 -0.3506
  191POPC    HA22010   6.284   3.969   6.488  0.1587 -0.7129 -0.7090
  191POPC    HB22011   6.172   3.926   6.360 -0.9984 -1.0729  1.5531
  191POPC    C222012   6.084   4.077   6.489 -0.2135 -0.7403  0.6278
  191POPC    HS22013   6.006   4.086   6.410  1.0198 -0.9829 -0.6455
  191POPC   O2122014   6.120   4.205   6.547  0.0112 -0.1615  0.0796
  191POPC   C2122015   6.025   4.286   6.582 -0.2180 -0.9896 -0.0784
  191POPC   O2222016   5.909   4.267   6.542  0.5921 -0.8881 -0.5098
  191POPC   C2222017   6.084   4.386   6.677 -0.8499  0.1237  0.0365
  191POPC   H2R22018   6.150   4.452   6.617  0.2284 -1.9733 -1.1537
  191POPC   H2S22019   6.134   4.332   6.761  2.0786  0.5405 -1.3611
  191POPC    C322020   6.019   3.969   6.587 -0.3646  0.2554  0.1392
  191POPC    HX22021   5.983   3.886   6.523 -1.6342  0.6451  0.3427
  191POPC    HY22022   5.935   4.012   6.646  0.8108  0.9863  1.3213
  191POPC   O3122023   6.121   3.914   6.680 -0.3439 -0.4866 -0.2765
  191POPC   C3122024   6.149   3.980   6.790  0.6289  0.3800 -0.0889
  191POPC   O3222025   6.095   4.081   6.827 -0.1070  0.4620  0.1026
  191POPC   C3222026   6.274   3.924   6.867 -0.4452  0.7497  0.3887
  191POPC   H2X22027   6.286   3.986   6.958 -1.3589  1.1177  0.2672
  191POPC   H2Y22028   6.349   3.928   6.786 -1.8548  1.7135 -0.8935
  191POPC   C2322029   5.964   4.453   6.743  0.1229 -1.0198 -0.1173
  191POPC   H3R22030   5.897   4.377   6.789 -1.8302  1.0536  0.5600
  191POPC   H3S22031   5.903   4.509   6.669 -2.0589 -2.8985  0.1842
  191POPC   C2422032   6.001   4.543   6.861 -0.2447 -0.8866  0.1259
  191POPC   H4R22033   6.084   4.612   6.831 -0.0046 -0.9761  0.5744
  191POPC   H4S22034   6.038   4.475   6.941 -1.0130 -1.0032  0.3797
  191POPC   C2522035   5.887   4.633   6.902 -0.0140 -0.0648  0.1855
  191POPC   H5R22036   5.806   4.565   6.934  0.2013  0.6236  2.3212
  191POPC   H5S22037   5.854   4.679   6.807  0.1272  1.2340  0.7534
  191POPC   C2622038   5.926   4.737   7.006  0.1948  0.2262  0.9839
  191POPC   H6R22039   5.848   4.815   7.022 -0.3770  0.4391 -2.4249
  191POPC   H6S22040   6.013   4.792   6.964  0.2485 -1.3825 -1.1222
  191POPC   C2722041   5.972   4.677   7.143 -0.8325 -0.3124  0.1694
  191POPC   H7R22042   6.055   4.607   7.118 -0.3992  1.0806 -2.4199
  191POPC   H7S22043   5.880   4.628   7.182 -1.6107  0.9378 -0.1033
  191POPC   C2822044   6.021   4.773   7.256  0.6422  0.3919 -0.1206
  191POPC   H8R22045   6.113   4.825   7.222  0.6451  0.4456 -0.0302
  191POPC   H8S22046   6.050   4.713   7.344  0.4126  0.0110 -0.3019
  191POPC   C2922047   5.921   4.870   7.300 -0.4295  0.1765  0.0049
  191POPC   H9122048   5.887   4.944   7.226  1.7167  1.2107  0.0296
  191POPC  C21022049   5.857   4.876   7.419 -0.8940  0.3416 -0.8908
  191POPC  H10122050   5.773   4.947   7.420 -2.1424 -1.0790  1.2834
  191POPC  C21122051   5.880   4.782   7.534  0.2634 -0.0497  0.3359
  191POPC  H11R22052   5.909   4.678   7.505 -0.4275  0.0416 -0.6989
  191POPC  H11S22053   5.787   4.768   7.593 -0.1640 -2.0653 -0.7537
  191POPC  C21222054   5.972   4.835   7.641  0.6554 -0.4533  0.3120
  191POPC  H12R22055   6.069   4.866   7.596  1.1068 -0.6264  1.1588
  191POPC  H12S22056   6.000   4.752   7.709 -1.1675 -0.0515  1.5937
  191POPC  C21322057   5.911   4.955   7.722 -0.4293  0.4518 -0.1780
  191POPC  H13R22058   5.812   4.932   7.767  1.0186 -1.9163  1.9030
  191POPC  H13S22059   5.911   5.044   7.655 -1.8353  1.1995  0.7966
  191POPC  C21422060   6.003   4.982   7.842 -0.6187 -0.1435  0.1009
  191POPC  H14R22061   6.106   4.984   7.803 -1.8026  0.7938 -3.0873
  191POPC  H14S22062   5.997   4.884   7.895 -0.3260 -1.1834 -1.7626
  191POPC  C21522063   5.964   5.101   7.930 -0.2722 -0.6986  0.1613
  191POPC  H15R22064   5.863   5.083   7.973 -0.2320  0.9553  1.0033
  191POPC  H15S22065   5.965   5.197   7.875  0.7988 -1.3555 -0.9839
  191POPC  C21622066   6.068   5.114   8.047  0.5670 -0.5650 -0.2286
  191POPC  H16R22067   6.170   5.118   8.002 -0.2437 -0.6291 -2.1345
  191POPC  H16S22068   6.074   5.021   8.107  2.4700 -1.4168 -1.6572
  191POPC  C21722069   6.035   5.230   8.139  0.7844 -0.3734  0.5912
  191POPC  H17R22070   6.071   5.207   8.242  1.5237  0.3844  0.5079
  191POPC  H17S22071   5.925   5.229   8.155  0.8999 -1.1346  1.4416
  191POPC  C21822072   6.078   5.367   8.085 -0.3520 -0.1773 -0.3883
  191POPC  H18R22073   6.024   5.437   8.153  1.2665  0.8280 -0.1107
  191POPC  H18S22074   6.036   5.376   7.983 -2.0369 -0.6863  0.2311
  191POPC  H18T22075   6.189   5.373   8.084 -0.2330 -1.8764 -3.7588
  191POPC   C3322076   6.254   3.776   6.907  1.0891 -0.7880  0.6422
  191POPC   H3X22077   6.344   3.754   6.968  1.1540 -0.2561  0.7370
  191POPC   H3Y22078   6.266   3.713   6.816  1.0908 -0.7040  0.5842
  191POPC   C3422079   6.131   3.732   6.981  0.1811 -0.4935  0.4218
  191POPC   H4X22080   6.139   3.624   7.005 -1.0741 -0.8498 -0.7363
  191POPC   H4Y22081   6.040   3.739   6.919  1.8597  1.5301 -1.9415
  191POPC   C3522082   6.107   3.799   7.112 -0.4816  0.1156 -0.0343
  191POPC   H5X22083   6.007   3.765   7.148 -1.5690  0.2080 -2.8492
  191POPC   H5Y22084   6.105   3.909   7.094  0.7635  0.2444  0.5743
  191POPC   C3622085   6.208   3.759   7.225 -0.0507 -0.2281 -0.3819
  191POPC   H6X22086   6.309   3.784   7.189 -0.2101  0.8862 -0.0607
  191POPC   H6Y22087   6.196   3.648   7.231 -1.4777 -0.1372 -1.2640
  191POPC   C3722088   6.192   3.832   7.359  0.2222 -0.5338  0.3063
  191POPC   H7X22089   6.091   3.809   7.399 -0.3751  1.6902  0.1606
  191POPC   H7Y22090   6.204   3.942   7.346 -2.6888 -0.1270  0.5697
  191POPC   C3822091   6.292   3.797   7.475 -0.5625  0.1063  0.4040
  191POPC   H8X22092   6.394   3.830   7.445  0.0221 -1.2763  0.7790
  191POPC   H8Y22093   6.293   3.687   7.491 -1.5813  0.2639  1.6469
  191POPC   C3922094   6.260   3.860   7.615 -0.3444 -0.1083  0.3119
  191POPC   H9X22095   6.150   3.850   7.631 -0.0213 -2.4023  1.3263
  191POPC   H9Y22096   6.291   3.967   7.608  1.8741 -0.6724  1.0935
  191POPC  C31022097   6.336   3.793   7.724  0.2422 -0.3541  0.0994
  191POPC  H10X22098   6.444   3.814   7.713 -0.0022  1.1660  0.5362
  191POPC  H10Y22099   6.316   3.684   7.714 -0.4931 -0.2862  0.7636
  191POPC  C31122100   6.275   3.830   7.864 -0.4674  0.3354 -0.2372
  191POPC  H11X22101   6.165   3.823   7.848 -0.4816  0.0880 -0.0255
  191POPC  H11Y22102   6.296   3.935   7.893  0.1616 -0.2608  1.5198
  191POPC  C31222103   6.326   3.735   7.980 -0.4447  0.3533  0.1287
  191POPC  H12X22104   6.430   3.698   7.966  0.5316  2.2568  2.1764
  191POPC  H12Y22105   6.260   3.646   7.985 -0.0955  0.1743  1.7717
  191POPC  C31322106   6.305   3.792   8.120 -0.6615 -0.4307 -0.3494
  191POPC  H13X22107   6.309   3.717   8.202 -0.1771 -1.7934 -1.5956
  191POPC  H13Y22108   6.203   3.837   8.121  0.1394  1.4371  0.4790
  191POPC  C31422109   6.413   3.891   8.152  0.3436 -0.7149  0.4012
  191POPC  H14X22110   6.416   3.972   8.077  1.3712 -1.2663 -0.1697
  191POPC  H14Y22111   6.515   3.850   8.135  1.3136  1.7210  0.1424
  191POPC  C31522112   6.401   3.957   8.293 -0.6869  0.4474  0.4031
  191POPC  H15X22113   6.497   4.004   8.320  0.9664 -4.0430  2.9842
  191POPC  H15Y22114   6.393   3.888   8.380  0.3168  1.7979  1.5749
  191POPC  C31622115   6.286   4.055   8.307  0.6223  0.5029  0.1040
  191POPC  H16X22116   6.272   4.094   8.410 -0.2203  0.7562 -0.0992
  191POPC  H16Y22117   6.192   4.001   8.281  0.2230  1.4042 -0.3421
  191POPC  H16Z22118   6.300   4.139   8.235  0.6905 -0.1758 -0.6865
  192POPC     N22119   3.829   0.035   5.965 -0.1196 -0.2272 -0.0115
  192POPC   C1222120   3.894  -0.064   6.062  0.1139 -0.0480 -0.2113
  192POPC  H12A22121   3.858  -0.161   6.031 -0.3408  0.0541 -0.0100
  192POPC  H12B22122   3.852  -0.027   6.155  2.3110  1.4993  0.1947
  192POPC   C1322123   3.684   0.016   5.950 -0.6835 -0.5633  0.6607
  192POPC  H13A22124   3.670  -0.074   5.891  0.9520 -0.2460 -0.2296
  192POPC  H13B22125   3.628   0.015   6.043  0.6076  1.8484  1.4873
  192POPC  H13C22126   3.636   0.089   5.886  0.8483 -0.6091 -0.5600
  192POPC   C1422127   3.851   0.177   6.011  0.0825  0.4554 -0.0789
  192POPC  H14A22128   3.803   0.186   6.107  0.7570 -2.8245  0.6472
  192POPC  H14B22129   3.954   0.208   6.015 -0.6488  2.9933 -0.3834
  192POPC  H14C22130   3.812   0.250   5.941 -0.7114  1.4186  1.3542
  192POPC   C1522131   3.891   0.022   5.827 -0.2017  0.7605  0.4148
  192POPC  H15A22132   3.894  -0.082   5.797  0.8687  1.8489 -3.4596
  192POPC  H15B22133   3.992   0.059   5.835  0.4559 -0.8666 -0.1237
  192POPC  H15C22134   3.847   0.084   5.751 -2.3470  0.0545  1.0465
  192POPC   C1122135   4.046  -0.073   6.074 -0.4079  0.5194  0.1571
  192POPC  H11A22136   4.090  -0.085   5.973  2.2685  0.1339  1.3213
  192POPC  H11B22137   4.053  -0.172   6.125 -2.1545 -0.5880 -1.6889
  192POPC     P22138   4.223   0.118   6.096  0.1309  0.0712  0.3881
  192POPC   O1322139   4.249   0.229   6.196  0.1775  0.6128  1.0627
  192POPC   O1422140   4.193   0.155   5.957 -0.1915  0.1400 -0.3841
  192POPC   O1222141   4.091   0.040   6.150  0.0758 -0.2190  0.0942
  192POPC   O1122142   4.327   0.007   6.105  0.4599  0.4451  0.5435
  192POPC    C122143   4.347  -0.092   6.211  0.3273 -0.8906 -0.0069
  192POPC    HA22144   4.403  -0.178   6.168  0.9170 -1.1028  1.1891
  192POPC    HB22145   4.247  -0.133   6.238  0.7336 -0.3599  2.4040
  192POPC    C222146   4.409  -0.033   6.341  0.7159 -0.0931  0.2761
  192POPC    HS22147   4.381   0.074   6.350  1.2389  0.1215 -0.5579
  192POPC   O2122148   4.551  -0.051   6.333  0.6948 -0.8298  0.1374
  192POPC   C2122149   4.627   0.022   6.415  0.1197 -0.4048  0.1834
  192POPC   O2222150   4.584   0.127   6.466  0.0621  0.1504 -0.2845
  192POPC   C2222151   4.777  -0.028   6.416 -0.2335 -0.1459 -0.5092
  192POPC   H2R22152   4.839   0.064   6.421  1.4801 -1.3107  0.1815
  192POPC   H2S22153   4.791  -0.076   6.316  1.2559  0.2321 -0.4929
  192POPC    C322154   4.338  -0.101   6.469 -0.0255  0.1002  0.3087
  192POPC    HX22155   4.374  -0.207   6.477 -0.3365  0.0758  1.5539
  192POPC    HY22156   4.228  -0.102   6.454  0.0873  2.0916 -0.7786
  192POPC   O3122157   4.386  -0.043   6.592  0.6264 -0.3124  0.4072
  192POPC   C3122158   4.328   0.070   6.637 -0.0783  0.1159  0.3576
  192POPC   O3222159   4.225   0.125   6.593 -0.2371  0.4824 -0.0095
  192POPC   C3222160   4.402   0.123   6.761 -0.1042 -0.1513  0.2773
  192POPC   H2X22161   4.341   0.195   6.819 -1.7766 -0.0532 -1.5479
  192POPC   H2Y22162   4.491   0.172   6.717 -1.4373 -0.4133 -2.8763
  192POPC   C2322163   4.809  -0.123   6.535  0.5013  0.7047  0.0022
  192POPC   H3R22164   4.904  -0.179   6.524  0.6207  1.0100 -0.5267
  192POPC   H3S22165   4.730  -0.201   6.548  0.1599  1.4209  2.4228
  192POPC   C2422166   4.829  -0.044   6.671 -0.1503 -0.2863 -0.2174
  192POPC   H4R22167   4.747   0.032   6.674  2.7604  2.9433  1.5694
  192POPC   H4S22168   4.925   0.011   6.658 -1.3411  2.2646  1.2961
  192POPC   C2522169   4.835  -0.133   6.793 -0.9385  0.2500  1.0064
  192POPC   H5R22170   4.920  -0.203   6.778 -0.6626  0.9956 -1.1785
  192POPC   H5S22171   4.740  -0.190   6.798  0.1563 -1.7428 -0.0605
  192POPC   C2622172   4.852  -0.072   6.929  0.6387  0.0448 -0.7203
  192POPC   H6R22173   4.772   0.004   6.944  1.9449  1.2756  0.1308
  192POPC   H6S22174   4.951  -0.024   6.941  0.6643  0.1192 -1.2386
  192POPC   C2722175   4.852  -0.185   7.039  0.1508  0.6031  0.0769
  192POPC   H7R22176   4.948  -0.238   7.053  0.5492  1.6604  1.4633
  192POPC   H7S22177   4.788  -0.271   7.011  1.7089 -1.0607  1.5100
  192POPC   C2822178   4.803  -0.129   7.175 -0.0699  0.7846  0.1204
  192POPC   H8R22179   4.774  -0.216   7.237  3.0433 -1.3422 -1.2741
  192POPC   H8S22180   4.713  -0.065   7.162  0.0876  0.6811 -1.6274
  192POPC   C2922181   4.912  -0.054   7.232  0.1050 -0.0362  0.2110
  192POPC   H9122182   4.905   0.048   7.192 -2.7260  0.0510  0.8396
  192POPC  C21022183   5.000  -0.086   7.331  0.0330  0.0267 -0.2536
  192POPC  H10122184   5.080  -0.013   7.355 -0.8010  0.6275  0.7552
  192POPC  C21122185   5.004  -0.220   7.403 -0.0090 -0.7312  0.1285
  192POPC  H11R22186   5.111  -0.231   7.431  0.2295 -1.0235 -0.8663
  192POPC  H11S22187   4.985  -0.297   7.325  1.2697 -1.4911  0.5511
  192POPC  C21222188   4.915  -0.224   7.533 -0.2532  0.1959 -0.3752
  192POPC  H12R22189   4.809  -0.230   7.501 -0.6991  1.0155  0.9119
  192POPC  H12S22190   4.922  -0.126   7.586 -0.5976  0.2135 -0.3665
  192POPC  C21322191   4.958  -0.348   7.615 -0.1310 -0.8015 -0.4332
  192POPC  H13R22192   4.989  -0.429   7.545  2.3768  1.0600 -1.5434
  192POPC  H13S22193   4.861  -0.377   7.661  0.1075  0.3950  0.8326
  192POPC  C21422194   5.074  -0.335   7.715  0.4541 -0.0853  0.6388
  192POPC  H14R22195   5.172  -0.334   7.663  0.3590  1.7186  0.4779
  192POPC  H14S22196   5.084  -0.422   7.784  0.3646 -1.6499 -1.2527
  192POPC  C21522197   5.087  -0.206   7.801  0.2910 -0.2051  0.8389
  192POPC  H15R22198   5.099  -0.125   7.725  0.1338 -2.0105 -1.1565
  192POPC  H15S22199   5.189  -0.221   7.843 -0.1897 -0.9913  1.7478
  192POPC  C21622200   4.974  -0.175   7.898  0.9877 -0.6502  0.6293
  192POPC  H16R22201   4.892  -0.141   7.831  0.5600 -0.5942  1.1853
  192POPC  H16S22202   5.010  -0.092   7.962 -0.0112  1.2178 -1.1591
  192POPC  C21722203   4.916  -0.302   7.985  1.1113 -0.3987 -0.4052
  192POPC  H17R22204   5.000  -0.356   8.035 -0.4619 -1.0036  1.6195
  192POPC  H17S22205   4.859  -0.371   7.919 -0.1456 -0.1738  0.4446
  192POPC  C21822206   4.830  -0.254   8.105  0.4715 -0.1468  0.0639
  192POPC  H18R22207   4.879  -0.192   8.183  1.4068 -1.5535  0.6023
  192POPC  H18S22208   4.788  -0.344   8.153  2.6923 -0.7593  0.8945
  192POPC  H18T22209   4.744  -0.192   8.070 -1.1489 -1.8045  1.0182
  192POPC   C3322210   4.463   0.013   6.845 -0.2488  0.2313 -1.2974
  192POPC   H3X22211   4.549   0.059   6.899 -0.9426  0.1783 -0.1153
  192POPC   H3Y22212   4.512  -0.068   6.788 -0.1345 -0.5534 -0.0964
  192POPC   C3422213   4.377  -0.063   6.954 -0.8168 -0.6744  0.0495
  192POPC   H4X22214   4.304  -0.125   6.899 -0.4263 -0.1040 -1.1391
  192POPC   H4Y22215   4.322   0.011   7.016 -1.9488 -1.5778  0.1399
  192POPC   C3522216   4.462  -0.157   7.032 -0.0832 -0.3807  0.3296
  192POPC   H5X22217   4.563  -0.112   7.033 -0.7742  1.1609  2.6561
  192POPC   H5Y22218   4.457  -0.255   6.978  3.3387 -0.3449 -0.1186
  192POPC   C3622219   4.426  -0.168   7.179 -0.0562 -0.2705 -0.3327
  192POPC   H6X22220   4.318  -0.145   7.192  0.7323  2.6125  1.5350
  192POPC   H6Y22221   4.478  -0.093   7.242 -0.5369  0.4937 -0.8356
  192POPC   C3722222   4.447  -0.310   7.241  0.2822  0.8446 -0.4895
  192POPC   H7X22223   4.555  -0.322   7.221  0.6100  0.4168  1.4232
  192POPC   H7Y22224   4.392  -0.383   7.177  0.6473 -1.0275  1.2815
  192POPC   C3822225   4.407  -0.315   7.390 -0.0597 -0.2614  0.3065
  192POPC   H8X22226   4.301  -0.281   7.394 -1.3203 -3.8653 -0.0765
  192POPC   H8Y22227   4.475  -0.236   7.427 -0.1328  0.3788 -0.9073
  192POPC   C3922228   4.416  -0.444   7.469  0.2324  0.0209 -1.2005
  192POPC   H9X22229   4.522  -0.477   7.468  0.7788  1.7367 -2.1399
  192POPC   H9Y22230   4.355  -0.525   7.425  0.6864 -1.0768  0.1381
  192POPC  C31022231   4.392  -0.422   7.625 -0.3100 -0.2547  1.2029
  192POPC  H10X22232   4.292  -0.379   7.648 -1.4216 -1.9848 -0.2243
  192POPC  H10Y22233   4.469  -0.357   7.672 -0.7246 -1.6039  3.8600
  192POPC  C31122234   4.400  -0.553   7.699 -0.3601  0.0404  0.4007
  192POPC  H11X22235   4.489  -0.612   7.668 -0.5615 -0.5338  0.8980
  192POPC  H11Y22236   4.307  -0.613   7.693  1.0898 -2.0005 -2.6893
  192POPC  C31222237   4.423  -0.540   7.852 -0.0956 -0.2616 -0.0472
  192POPC  H12X22238   4.342  -0.472   7.887  0.9728  1.3297 -0.6256
  192POPC  H12Y22239   4.523  -0.492   7.863 -0.6854  0.6385  1.7790
  192POPC  C31322240   4.402  -0.667   7.931  0.0509  0.0204 -0.3695
  192POPC  H13X22241   4.463  -0.755   7.903 -0.8026 -0.5957 -0.3291
  192POPC  H13Y22242   4.299  -0.703   7.911 -0.6153 -0.0346  2.9256
  192POPC  C31422243   4.429  -0.655   8.088  0.5384  0.1732 -0.3167
  192POPC  H14X22244   4.397  -0.743   8.148  1.6163  1.1645  1.7427
  192POPC  H14Y22245   4.372  -0.575   8.139  0.4691  0.1755 -0.3996
  192POPC  C31522246   4.579  -0.644   8.127  0.2114  0.2082  0.2717
  192POPC  H15X22247   4.629  -0.561   8.073 -3.9461  0.2036 -3.9226
  192POPC  H15Y22248   4.630  -0.733   8.085  2.8099  0.9303  1.7960
  192POPC  C31622249   4.612  -0.650   8.278  0.3873  0.0455 -0.0948
  192POPC  H16X22250   4.717  -0.674   8.304  0.2861  0.2512  0.5090
  192POPC  H16Y22251   4.556  -0.735   8.322  4.2601 -2.6764 -0.2145
  192POPC  H16Z22252   4.585  -0.556   8.331  2.9916  0.5194  0.4241
  193SOD    SOD22253   0.068   1.017  12.292  0.5275 -0.3555  0.2250
  194SOD    SOD22254   4.181   6.015  13.953  0.3565  0.3986 -0.0967
  195SOD    SOD22255   2.854   3.972  12.676  0.0091 -0.3024 -0.2413
  196SOD    SOD22256   1.862   1.127  11.329  0.0292  0.4406  0.0328
  197SOD    SOD22257   0.107   3.178   4.149  0.8205 -0.0772 -0.3146
  198SOD    SOD22258   1.522   6.425  15.041  0.5035 -0.3934  0.1986
  199SOD    SOD22259   6.279   6.615   1.620 -0.7627 -0.2811 -0.0283
  200SOD    SOD22260   1.665   2.255   0.015 -0.3220 -0.1208  0.0292
  201SOD    SOD22261   0.701   3.348   5.997  0.2613 -0.3075 -0.0775
  202SOD    SOD22262   0.194   6.653  14.058  0.4739  0.2979  0.2237
  203SOD    SOD22263   0.325   2.160   3.151  0.3729  0.6348 -0.1344
  204SOD    SOD22264   2.328   5.063   3.260  0.3419  0.0276  0.1799
  205SOD    SOD22265   4.674   5.990  12.316 -0.5406 -0.1214  0.0472
  206SOD    SOD22266   6.478   5.161  14.645  0.0708 -0.0998  0.1301
  207SOD    SOD22267   4.952   1.472   3.335 -0.4018  0.0511  0.0411
  208SOD    SOD22268   0.997   5.846   0.025 -0.2936 -0.2279  0.2330
  209SOD    SOD22269   2.819   4.447   6.267 -0.1830  0.2794  0.3714
  210SOD    SOD22270   5.372   1.183  10.454 -0.0479  0.1367  0.2974
  211SOD    SOD22271   4.550   5.422  14.115  0.2065  0.3470 -0.0808
  212SOD    SOD22272   6.486   6.710  13.850  0.3749 -0.8118  0.1773
  213SOD    SOD22273   5.459   4.300  16.037 -0.2908 -0.1912  0.4000
  214SOD    SOD22274   4.861   4.609  12.558  0.4508  0.4354  0.4664
  215SOD    SOD22275   2.837   1.075   4.481 -0.4129  0.0728  0.1885
  216SOD    SOD22276   5.313   3.598   6.339  0.1612 -0.5277 -0.3893
  217SOD    SOD22277   6.651   5.799   4.711  0.3516 -0.3040 -0.6130
  218SOD    SOD22278   1.648   6.528   0.833  0.1145  0.1768 -0.4220
  219SOD    SOD22279   5.188   6.354  10.229 -0.2778  0.1549  0.1308
  220SOD    SOD22280   1.609   4.804   2.743 -0.3347 -0.0161  0.4774
  221SOD    SOD22281   1.153   1.707   5.214  0.3686  0.1608  0.4082
  222SOD    SOD22282   3.967   6.474  16.844  0.1276  0.4652  0.1560
  223SOD    SOD22283   4.042   3.225   5.872 -0.1261  0.1962 -0.6020
  224SOD    SOD22284   0.849   2.259   0.805 -0.2916  0.3962  0.0121
  225SOD    SOD22285   1.483   6.650  12.467  0.2327 -0.6128 -0.6971
  226SOD    SOD22286   6.690   4.128  10.842  0.4035 -0.0408 -0.0888
  227SOD    SOD22287   1.255   2.355   2.998  0.1896  0.1206 -0.0102
  228SOD    SOD22288   0.640   3.297   6.538  0.1605 -0.1828  0.0302
  229SOD    SOD22289   3.457   0.106   4.035 -0.6351  0.2359  0.2582
  230SOD    SOD22290   5.237   1.825  12.122  0.1887  0.2806 -0.5427
  231SOD    SOD22291   0.830   5.116  13.545 -0.2565 -0.2864  0.2515
  232SOD    SOD22292   0.608   4.601  12.125  0.1387  0.1311 -0.2984
  233SOD    SOD22293   6.768   5.418  13.285  0.6049  0.0565 -0.1984
  234SOD    SOD22294   5.075   5.727   3.405 -0.7855 -0.3546 -0.7134
  235SOD    SOD22295   0.025   3.444  11.419 -0.3123 -0.0960  0.2922
  236SOD    SOD22296   0.612   1.056   3.302  0.1131 -0.0958  0.5017
  237SOD    SOD22297   6.361   5.825   3.995 -0.2648 -0.4668  0.3474
  238SOD    SOD22298   1.287   4.238  10.879  0.7179 -0.0770 -1.2921
  239SOD    SOD22299   5.858   4.344  12.781 -0.2780 -0.3895 -0.0546
  240SOD    SOD22300   2.832   2.451  11.253 -0.1135  0.0847 -0.0061
  241SOD    SOD22301   1.480   1.142   0.452 -0.2795 -0.2861 -0.3764
  242SOD    SOD22302   5.970   2.300   1.135 -0.1671 -0.2075 -0.7271
  243SOD    SOD22303   0.641   3.222  14.813 -0.3030 -0.5562  0.4887
  244SOD    SOD22304   5.753   3.812   1.693  0.0570  0.3425 -0.4468
  245SOD    SOD22305   1.296   3.945  13.877  0.5000  0.2782 -0.2030
  246SOD    SOD22306   0.886   0.375   3.437 -0.1693 -0.2560 -0.5209
  247SOD    SOD22307   1.616   2.459  14.504 -0.1548  0.6119  0.3012
  248SOD    SOD22308   2.850   1.070   3.279 -0.1409 -0.1374  0.0797
  249SOD    SOD22309   1.216   1.262   1.620  0.0773 -0.4438  0.0691
  250SOD    SOD22310   0.825   1.136  13.366  0.5505  0.2865 -0.2455
  251SOD    SOD22311   5.711   4.369  15.245 -0.1310 -0.5364  0.0186
  252SOD    SOD22312   3.050   3.974   5.684  0.3920 -0.2230  0.0014
  253SOD    SOD22313   4.010   0.152  15.022 -0.0574  0.0381 -0.3294
  254SOD    SOD22314   3.051   6.413   1.687 -0.5415 -0.8389 -0.0924
  255SOD    SOD22315   1.147   3.976  12.891 -0.0096 -0.1824  0.3763
  256SOD    SOD22316   6.218   1.617   1.400 -0.3093 -0.2048 -0.4388
  257SOD    SOD22317   2.114   1.918   5.730  0.3260  0.2063 -0.1096
  258SOD    SOD22318   3.102   3.647  10.761  0.2683  0.0162 -0.3443
  259SOD    SOD22319   0.126   2.274  13.787 -0.1457  0.2165  0.0808
  260SOD    SOD22320   5.095   2.038  16.464 -0.2731 -0.0169  0.0772
  261SOD    SOD22321   3.006   6.369  12.295  0.4450 -0.0332  0.2505
  262SOD    SOD22322   6.339   0.484   1.992  0.0270  0.1140  0.3248
  263SOD    SOD22323   2.637   6.569  11.319 -0.2443  0.1961 -0.0477
  264SOD    SOD22324   4.221   3.094   6.834  0.1204  0.5183 -0.6774
  265SOD    SOD22325   6.741   2.248   5.960 -0.1991 -0.4553 -0.1855
  266SOD    SOD22326   6.772   3.122  15.831 -0.0788  0.0913  0.0594
  267SOD    SOD22327   4.497   3.836  15.207 -0.2520  0.0814  0.3495
  268SOD    SOD22328   3.169   0.077   2.849  0.1120 -0.2838  0.0295
  269SOD    SOD22329   3.228   3.381   1.521 -0.1758 -0.1445  0.4255
  270CLA    CLA22330   4.053   6.696   1.463  0.0071 -0.2782 -0.2511
  271CLA    CLA22331   0.012   1.607   3.409 -0.3181 -0.0246 -0.1881
  272CLA    CLA22332   2.439   6.453  11.816  0.1173  0.2500 -0.5273
  273CLA    CLA22333   0.530   4.791  12.552  0.0485 -0.1483 -0.0476
  274CLA    CLA22334   3.680   0.389   3.233 -0.2226  0.2948  0.5321
  275CLA    CLA22335   3.331   5.705   2.034 -0.0549 -0.4260  0.2056
  276CLA    CLA22336   0.192   1.825  13.537 -0.1634 -0.1790 -0.1846
  277CLA    CLA22337   3.196   6.662  16.554 -0.1084  0.0474  0.1075
  278CLA    CLA22338   1.103   1.640   5.470  0.3082 -0.0870  0.3786
  279CLA    CLA22339   1.375   6.271   0.666  0.0651 -0.7223  0.2428
  280CLA    CLA22340   2.400   5.089  11.968 -0.0534  0.2460  0.3342
  281CLA    CLA22341   5.550   4.959  13.220  0.2443 -0.1386  0.5984
  282CLA    CLA22342   6.512   4.477   1.018  0.3541 -0.3908 -0.0069
  283CLA    CLA22343   3.550   6.443  14.158  0.2641  0.4047 -0.2606
  284CLA    CLA22344   0.077   3.104  14.743  0.1394  0.1860  0.0559
  285CLA    CLA22345   2.402   1.934  13.026  0.2495  0.0283 -0.1556
  286CLA    CLA22346   3.633   6.593  14.890  0.0105 -0.6747 -0.1293
  287CLA    CLA22347   6.094   6.246  14.246  0.0035 -0.2098 -0.3692
  288CLA    CLA22348   3.381   2.301   1.428 -0.2746  0.3166 -0.4621
  289CLA    CLA22349   6.040   0.508  14.804 -0.2584  0.1466  0.2134
  290CLA    CLA22350   0.965   4.095   2.458  0.1669  0.0372 -0.1979
  291CLA    CLA22351   3.776   6.506  13.456 -0.3424  0.3242  0.1686
  292CLA    CLA22352   4.342   1.750   1.098  0.4101  0.1321  0.0431
  293CLA    CLA22353   2.214   1.620   1.346 -0.5836 -0.0496  0.6487
  294CLA    CLA22354   0.371   3.518   5.019  0.0432  0.0324 -0.0132
  295CLA    CLA22355   6.605   6.374  14.213  0.2113  0.3814 -0.3284
  296CLA    CLA22356   2.871   5.346  13.486  0.2509  0.0406  0.1352
  297CLA    CLA22357   6.557   6.552  12.297 -0.2874 -0.0211  0.1114
  298CLA    CLA22358   6.222   0.765   4.719 -0.5150 -0.0181  0.1674
  299CLA    CLA22359   0.587   2.189   3.107 -0.1459 -0.0721 -0.0976
  300CLA    CLA22360   0.411   3.361   1.759 -0.2042  0.1016 -0.3157
  301CLA    CLA22361   4.416   2.233   5.324 -0.2799 -0.3941  0.0037
  302CLA    CLA22362   5.552   5.026  12.510  0.4093  0.1360  0.6671
  303CLA    CLA22363   6.312   0.155   4.900 -0.1727  0.2665 -0.1637
  304CLA    CLA22364   4.326   3.330  12.377 -0.2257  0.1248 -0.0167
  305CLA    CLA22365   0.706   4.362  17.085  0.0640 -0.4159 -0.3532
  306CLA    CLA22366   4.856   3.014   0.831 -0.1335  0.3129  0.3143
  307CLA    CLA22367   6.451   1.213  14.007 -0.1940  0.0102 -0.0720
  308CLA    CLA22368   3.836   4.472   2.510  0.2128  0.2917  0.2789
  309CLA    CLA22369   5.688   5.130   1.757  0.2261 -0.0324 -0.3598
  310CLA    CLA22370   2.399   0.085   1.132 -0.4345  0.6727  0.0444
  311CLA    CLA22371   0.312   2.327  11.653  0.1295 -0.5414 -0.0752
  312CLA    CLA22372   1.366   1.678   0.278  0.0489  0.1086  0.1889
  313CLA    CLA22373   0.587   3.523  11.953 -0.2243  0.0722 -0.1763
  314CLA    CLA22374   2.537   0.361  12.190 -0.3189 -0.1499 -0.2425
  315CLA    CLA22375   2.880   5.532   2.711 -0.1418  0.1305  0.0957
  316CLA    CLA22376   1.243   4.609  12.750  0.2589 -0.0034 -0.1764
  317CLA    CLA22377   1.065   2.217   3.395  0.1950  0.0194  0.0875
  318CLA    CLA22378   6.750   5.332  14.021 -0.1001  0.1579 -0.0873
  319CLA    CLA22379   0.018   2.170   0.847  0.1210 -0.1143 -0.5478
  320CLA    CLA22380   3.017   5.217  15.482  0.3744  0.2013 -0.2876
  321CLA    CLA22381   6.483   5.738  16.044 -0.3928 -0.3751  0.3574
  322CLA    CLA22382   1.618   3.325   3.625 -0.4562 -0.3147 -0.2527
  323TIP3   OH222383   6.623   6.231   4.812 -0.1449  0.0062 -0.4469
  323TIP3    H122384   6.582   6.239   4.726 -1.7409  0.2044  0.3153
  323TIP3    H222385   6.656   6.318   4.832 -1.4035  0.4003 -0.0636
  324TIP3   OH222386   0.813   0.333   1.206 -0.5877 -0.4620 -0.3449
  324TIP3    H122387   0.776   0.296   1.125  0.2512 -1.8785 -0.0956
  324TIP3    H222388   0.743   0.387   1.242 -2.3215 -2.8917 -0.0203
  325TIP3   OH222389   1.163   5.205   5.237  1.0486  0.2087 -0.4969
  325TIP3    H122390   1.117   5.194   5.154  0.1901 -0.1218  0.0162
  325TIP3    H222391   1.104   5.259   5.290  0.3630 -1.7614  0.8335
  326TIP3   OH222392   0.233   6.038   3.298 -0.2753  0.1467  0.2040
  326TIP3    H122393   0.177   6.114   3.281 -1.3622 -0.3135  1.6625
  326TIP3    H222394   0.201   5.970   3.239 -3.0954 -0.9911  2.9150
  327TIP3   OH222395   2.288   1.022  12.966 -0.2846  0.2688 -0.7240
  327TIP3    H122396   2.316   0.966  13.039 -0.4993  0.5881 -0.3989
  327TIP3    H222397   2.275   1.108  13.005  0.7600  0.7380 -1.3641
  328TIP3   OH222398   0.809   0.282  15.194 -0.7099  0.4222  0.5585
  328TIP3    H122399   0.796   0.377  15.185 -1.1451  0.3407  0.2952
  328TIP3    H222400   0.904   0.271  15.200 -0.6267  0.8231  0.0078
  329TIP3   OH222401   3.389   6.268  10.717  0.4897 -0.3060  0.8523
  329TIP3    H122402   3.419   6.199  10.776  1.3227  1.6345  2.7879
  329TIP3    H222403   3.413   6.350  10.762 -0.0735  1.2386 -1.5714
  330TIP3   OH222404   6.640   5.355   1.136 -0.2900  0.4281  0.1812
  330TIP3    H122405   6.568   5.415   1.119 -1.8404 -1.5366 -0.3644
  330TIP3    H222406   6.691   5.397   1.205 -1.3329  2.3468 -0.1865
  331TIP3   OH222407   3.793   3.812  16.528 -0.3863 -1.0206 -0.4482
  331TIP3    H122408   3.735   3.886  16.511 -0.5865 -1.1328 -0.2670
  331TIP3    H222409   3.734   3.743  16.561 -0.1941 -1.2357 -0.5559
  332TIP3   OH222410   0.921   4.289  13.645 -0.0217 -0.3904 -0.4291
  332TIP3    H122411   0.867   4.236  13.585 -0.2473  0.1724 -0.7265
  332TIP3    H222412   0.904   4.379  13.619 -0.1730 -0.1396  0.5392
  333TIP3   OH222413   1.586   2.749  10.798 -0.1812 -0.2019 -0.1659
  333TIP3    H122414   1.640   2.826  10.778 -0.0279 -0.5134 -0.9874
  333TIP3    H222415   1.503   2.785  10.830  0.2144  0.2918  0.3048
  334TIP3   OH222416   6.774   2.105  15.518  0.2944  0.1499 -0.0180
  334TIP3    H122417   6.811   2.036  15.572  1.0977  1.0189  0.5451
  334TIP3    H222418   6.725   2.058  15.450 -1.6649 -0.9513  2.0660
  335TIP3   OH222419   2.031   5.287  11.868 -0.0445 -0.0154 -0.1176
  335TIP3    H122420   2.116   5.279  11.825 -1.1359 -1.1399 -2.1191
  335TIP3    H222421   2.044   5.355  11.934  2.0232  0.7925 -1.3181
  336TIP3   OH222422   2.366   2.449  14.958 -0.4414 -0.0157 -0.1935
  336TIP3    H122423   2.394   2.398  14.882  0.7305  2.3488 -1.4171
  336TIP3    H222424   2.422   2.527  14.956 -1.8320  1.0751  1.8761
  337TIP3   OH222425   0.478   5.866  14.033  0.3998 -0.6712  0.2214
  337TIP3    H122426   0.436   5.829  13.956 -1.0405 -0.7967  1.0651
  337TIP3    H222427   0.426   5.944  14.054  0.4592 -0.9516  1.4037
  338TIP3   OH222428   4.256   5.331   1.423  0.8033 -0.5343  0.1693
  338TIP3    H122429   4.260   5.288   1.508  0.3966  0.5695  0.7477
  338TIP3    H222430   4.307   5.411   1.433 -2.5280  1.6146  0.5791
  339TIP3   OH222431   6.170   5.423  16.194  0.0018  0.3918  0.1078
  339TIP3    H122432   6.257   5.450  16.224  0.4620 -0.3772 -0.5260
  339TIP3    H222433   6.182   5.401  16.102 -0.9499  0.6480 -0.0836
  340TIP3   OH222434   0.401   5.286   0.275  0.4214  0.0896 -0.2324
  340TIP3    H122435   0.413   5.248   0.362  0.1915 -1.5943 -0.9080
  340TIP3    H222436   0.346   5.223   0.229  2.7347 -0.4061 -2.4355
  341TIP3   OH222437   6.545   3.650  12.861 -0.2993  0.1030  0.0993
  341TIP3    H122438   6.489   3.634  12.785 -0.7082 -3.6033  1.0727
  341TIP3    H222439   6.634   3.632  12.830 -0.0819  1.8037 -0.3192
  342TIP3   OH222440   5.835   3.019   1.457  0.0448 -0.2569 -0.0116
  342TIP3    H122441   5.927   3.019   1.430 -0.4048 -3.3472 -1.7462
  342TIP3    H222442   5.838   3.002   1.551  1.2172 -1.3654 -0.2374
  343TIP3   OH222443   0.575   2.863  16.146 -0.9273 -0.0972  0.3780
  343TIP3    H122444   0.556   2.874  16.053 -1.7259  1.3218  0.6997
  343TIP3    H222445   0.491   2.874  16.190 -0.3382  0.5537  1.3637
  344TIP3   OH222446   5.234   3.260  16.225 -0.4340 -0.5807  0.0944
  344TIP3    H122447   5.300   3.245  16.158  0.2251  1.5546  0.2349
  344TIP3    H222448   5.247   3.189  16.288  1.8290 -0.1246  0.1830
  345TIP3   OH222449   4.944   0.772   3.354  0.1196 -0.0681  0.3402
  345TIP3    H122450   4.867   0.811   3.396 -0.7035  0.0062 -1.1943
  345TIP3    H222451   5.009   0.766   3.424 -0.0055  3.2828  0.8123
  346TIP3   OH222452   1.659   3.586   5.651 -0.3961  0.2122  0.6267
  346TIP3    H122453   1.608   3.662   5.622 -1.6989 -0.3369  1.4520
  346TIP3    H222454   1.712   3.562   5.575 -0.6661  1.3805  0.0681
  347TIP3   OH222455   3.103   4.010  15.788  0.0502 -0.9479 -0.9605
  347TIP3    H122456   3.116   3.925  15.830  0.1767 -0.1685  0.6012
  347TIP3    H222457   3.116   3.992  15.694  1.5697 -2.3525 -0.5225
  348TIP3   OH222458   5.862   3.082   3.761  0.4387 -0.1862 -0.4085
  348TIP3    H122459   5.884   3.064   3.852  0.5469 -0.5378 -0.5012
  348TIP3    H222460   5.938   3.128   3.726 -0.8030  2.6384  0.4686
  349TIP3   OH222461   0.720   3.948   5.793 -0.0962  0.3988  0.3221
  349TIP3    H122462   0.638   3.911   5.826  0.2587  0.8619  1.7587
  349TIP3    H222463   0.756   3.879   5.737 -0.9086 -0.2395  0.5631
  350TIP3   OH222464   3.199   4.842   1.920 -0.0175 -0.2961 -0.1152
  350TIP3    H122465   3.155   4.831   2.005 -0.1190  0.2287 -0.1031
  350TIP3    H222466   3.292   4.846   1.942 -0.0637  0.1220 -0.0081
  351TIP3   OH222467   2.527   0.226  16.506  0.5536 -1.0725 -0.2586
  351TIP3    H122468   2.494   0.312  16.530  1.4130 -1.3557  2.1172
  351TIP3    H222469   2.619   0.227  16.533  1.3093 -1.8233 -2.6722
  352TIP3   OH222470   6.016   0.167  14.419  0.4179 -0.2160 -0.2409
  352TIP3    H122471   6.026   0.098  14.353  0.8746 -1.4885  1.1219
  352TIP3    H222472   6.039   0.124  14.502 -1.8679  0.8575  0.9941
  353TIP3   OH222473   3.154   3.459  14.802  0.1954  0.5142  0.0011
  353TIP3    H122474   3.214   3.400  14.757 -1.9621 -1.2611 -0.6437
  353TIP3    H222475   3.127   3.522  14.736 -1.3621 -0.8316 -0.6662
  354TIP3   OH222476   5.375   2.227  14.728  0.2914 -0.3516 -0.1086
  354TIP3    H122477   5.448   2.196  14.675  1.3522  1.3756  0.2766
  354TIP3    H222478   5.309   2.254  14.664 -0.4046 -2.7698 -0.4439
  355TIP3   OH222479   0.307   3.361  15.186  0.4059  0.5410 -0.2506
  355TIP3    H122480   0.240   3.410  15.234  0.4809  1.0750 -0.6820
  355TIP3    H222481   0.372   3.339  15.252  0.5934  1.4241 -0.1358
  356TIP3   OH222482   0.264   5.797   2.111 -0.6001 -0.0505  0.0472
  356TIP3    H122483   0.226   5.723   2.063 -0.4577  0.3476 -0.6928
  356TIP3    H222484   0.309   5.758   2.185  0.7800 -0.8466 -1.1794
  357TIP3   OH222485   0.564   1.660   5.547 -0.2357 -0.0086 -1.0968
  357TIP3    H122486   0.477   1.692   5.523 -0.4500 -1.4638 -2.3176
  357TIP3    H222487   0.550   1.568   5.572  0.6510  0.2861  0.5822
  358TIP3   OH222488   2.712   1.439   0.654  0.2249  0.3394  0.0332
  358TIP3    H122489   2.766   1.450   0.732 -0.0985 -0.6557  0.4090
  358TIP3    H222490   2.624   1.464   0.682  0.4343  1.7340 -0.5142
  359TIP3   OH222491   3.988   5.474   0.705 -0.0076 -0.1479 -0.6161
  359TIP3    H122492   3.980   5.429   0.789  0.4352  0.9553  0.0233
  359TIP3    H222493   3.899   5.472   0.669 -0.2737 -0.3174  0.0370
  360TIP3   OH222494   1.971   3.026   5.160 -0.4211  0.0306 -0.3254
  360TIP3    H122495   1.899   2.964   5.169 -0.8265  0.4797 -0.4837
  360TIP3    H222496   2.026   3.010   5.236 -0.2482 -0.8853 -0.6327
  361TIP3   OH222497   2.368   4.641  16.757 -0.2661 -0.0652  0.2721
  361TIP3    H122498   2.389   4.712  16.696 -0.2489  0.5592  0.9959
  361TIP3    H222499   2.294   4.596  16.717 -0.3948  0.4740 -0.1061
  362TIP3   OH222500   4.318   6.407   5.663 -0.3428 -0.3975  0.6225
  362TIP3    H122501   4.370   6.455   5.728  0.8040 -0.3394 -0.3147
  362TIP3    H222502   4.379   6.343   5.627 -1.1850 -0.9234  0.1423
  363TIP3   OH222503   6.175   1.166   2.342  0.3666  0.3085  0.5266
  363TIP3    H122504   6.269   1.174   2.356  0.9563 -3.4041 -0.7939
  363TIP3    H222505   6.143   1.121   2.420 -0.0569  0.2169  0.3009
  364TIP3   OH222506   2.651   1.283  17.121  0.0392 -0.0074  0.0082
  364TIP3    H122507   2.683   1.369  17.147  0.9541  0.1723 -1.6612
  364TIP3    H222508   2.729   1.238  17.088 -0.7552 -0.8598 -0.7307
  365TIP3   OH222509   3.068   4.162   5.229  0.2554  0.4775 -0.1680
  365TIP3    H122510   3.095   4.217   5.303  0.0143 -0.1409  0.3808
  365TIP3    H222511   3.009   4.097   5.267  1.0515 -0.5694 -0.7025
  366TIP3   OH222512   6.242   6.633   1.864  0.0428 -0.6065  0.0873
  366TIP3    H122513   6.147   6.630   1.848  0.0438  2.1395 -0.6933
  366TIP3    H222514   6.250   6.631   1.959 -0.9043  0.6719  0.2134
  367TIP3   OH222515   1.983   2.912  16.037 -0.2547 -0.4752  0.2065
  367TIP3    H122516   2.077   2.932  16.039 -0.3809 -0.0064  1.3227
  367TIP3    H222517   1.971   2.845  16.104 -0.7129 -0.5615  0.0388
  368TIP3   OH222518   3.805   5.288  16.255  0.2404 -0.2045 -0.0028
  368TIP3    H122519   3.759   5.327  16.181  0.9280  0.0126 -0.3193
  368TIP3    H222520   3.748   5.305  16.330 -0.1457  0.1498 -0.3748
  369TIP3   OH222521   4.543   4.378   5.041 -0.8808  0.0405 -0.9526
  369TIP3    H122522   4.621   4.336   5.005  0.1058  0.3424  0.8007
  369TIP3    H222523   4.488   4.305   5.069  0.6029 -0.1414  1.6158
  370TIP3   OH222524   6.192   1.221   1.202  0.9972 -0.5827  0.8245
  370TIP3    H122525   6.237   1.148   1.159  1.5798  0.9395 -1.2485
  370TIP3    H222526   6.249   1.244   1.275  1.4310 -1.4024  0.7534
  371TIP3   OH222527   5.547   4.499  14.910 -0.8730  0.6120  0.5342
  371TIP3    H122528   5.608   4.563  14.875  0.0179  0.5363  1.9157
  371TIP3    H222529   5.602   4.430  14.947 -1.7526  0.8521  2.3744
  372TIP3   OH222530   1.780   4.447  16.612  0.7247 -0.2938 -0.1330
  372TIP3    H122531   1.751   4.530  16.573  1.3762 -0.6868 -1.4819
  372TIP3    H222532   1.731   4.380  16.565  0.2864 -0.6949  0.8756
  373TIP3   OH222533   4.459   3.202   3.906 -0.7905 -0.1897 -0.7946
  373TIP3    H122534   4.546   3.234   3.882 -0.7384 -0.3414 -0.8071
  373TIP3    H222535   4.459   3.202   4.001 -0.1287 -1.9400 -0.7796
  374TIP3   OH222536   3.631   4.043   2.182 -0.1952 -0.0110 -0.3542
  374TIP3    H122537   3.595   4.013   2.265  1.1982  0.4687  0.4436
  374TIP3    H222538   3.684   4.120   2.206  0.1748  0.1564 -1.6897
  375TIP3   OH222539   1.369   3.400  15.934  0.8519  0.0399  0.3648
  375TIP3    H122540   1.453   3.391  15.980  1.1517 -1.5157 -0.4455
  375TIP3    H222541   1.338   3.310  15.924  0.0093  0.4748 -1.0236
  376TIP3   OH222542   2.318   1.136   3.740 -0.7797 -0.1044  0.2184
  376TIP3    H122543   2.388   1.181   3.693 -1.1073 -0.4302 -0.6080
  376TIP3    H222544   2.237   1.170   3.700 -1.1313  1.1715  1.9907
  377TIP3   OH222545   5.824   3.027   5.347  0.2297  0.0643 -0.3969
  377TIP3    H122546   5.873   2.991   5.421 -0.6472 -2.1005 -0.8290
  377TIP3    H222547   5.884   3.021   5.273  0.1892 -0.1972 -0.4064
  378TIP3   OH222548   1.218   0.210   6.188  0.0842  0.3919  0.6742
  378TIP3    H122549   1.285   0.276   6.206 -0.0744  1.1609 -1.5282
  378TIP3    H222550   1.135   0.255   6.202 -0.0433  0.9905 -1.8615
  379TIP3   OH222551   1.309   5.535   4.589 -0.4957  0.1788 -0.6968
  379TIP3    H122552   1.254   5.582   4.527  0.7853 -0.2112 -2.1664
  379TIP3    H222553   1.311   5.445   4.556 -1.2211 -0.4490  0.9055
  380TIP3   OH222554   3.095   2.329   2.205 -0.8272  0.6222  0.0365
  380TIP3    H122555   3.117   2.412   2.161 -1.3686  0.0807 -1.2984
  380TIP3    H222556   3.135   2.262   2.151 -0.0371  0.0217  1.3536
  381TIP3   OH222557   6.467   4.010   1.072  0.0954 -0.0800 -0.4970
  381TIP3    H122558   6.535   3.946   1.051  0.7123  0.0154  1.0983
  381TIP3    H222559   6.395   3.989   1.013  0.4257 -2.0200 -0.2615
  382TIP3   OH222560   6.422   4.423   2.639  0.5043 -0.4314 -0.1955
  382TIP3    H122561   6.502   4.430   2.586  0.7758 -0.2684  0.2369
  382TIP3    H222562   6.450   4.443   2.728  0.0550 -0.7633  0.0217
  383TIP3   OH222563   6.331   2.632   1.774 -0.0552 -0.3056  0.0422
  383TIP3    H122564   6.249   2.680   1.769  0.7462  0.9118 -2.0975
  383TIP3    H222565   6.385   2.683   1.833 -0.0946  0.0574 -0.2340
  384TIP3   OH222566   6.059   2.681   4.601 -0.2112  0.3627 -0.2292
  384TIP3    H122567   6.013   2.666   4.684  0.7948 -0.4823  0.1833
  384TIP3    H222568   6.107   2.763   4.616  1.7126 -0.9259  0.8129
  385TIP3   OH222569   1.609   1.390  14.476  0.3407 -0.1552  0.4168
  385TIP3    H122570   1.696   1.378  14.514  0.7620 -1.0387 -0.7916
  385TIP3    H222571   1.625   1.420  14.386 -0.6100  0.3872  0.4212
  386TIP3   OH222572   2.223   1.123  12.673 -0.0363  0.6984  0.1968
  386TIP3    H122573   2.175   1.079  12.743  2.4011 -0.3831  1.2480
  386TIP3    H222574   2.204   1.071  12.595  0.4357 -0.5104  0.8630
  387TIP3   OH222575   5.718   1.996   1.573 -0.3190  0.4636 -0.3512
  387TIP3    H122576   5.772   2.061   1.618 -0.3882  1.8321 -2.1709
  387TIP3    H222577   5.642   1.985   1.630  0.8522  0.1048  1.1834
  388TIP3   OH222578   2.864   3.383  11.417 -0.0344 -0.0696  0.0881
  388TIP3    H122579   2.932   3.377  11.350 -0.1330  0.7245 -0.0776
  388TIP3    H222580   2.912   3.402  11.498 -0.2672  3.0833 -0.4693
  389TIP3   OH222581   4.609   1.868  13.267 -0.0438  0.6684 -0.6477
  389TIP3    H122582   4.564   1.813  13.203  0.7796 -0.1378 -0.5517
  389TIP3    H222583   4.701   1.867  13.239  0.4189 -0.1296  0.8412
  390TIP3   OH222584   5.564   2.587  12.441  0.1580 -0.7867  0.0820
  390TIP3    H122585   5.633   2.592  12.507  0.9844 -0.5796 -0.7847
  390TIP3    H222586   5.577   2.665  12.388 -1.5302 -0.0998  0.6596
  391TIP3   OH222587   4.468   3.787   0.876 -0.0382  0.0566 -0.1066
  391TIP3    H122588   4.521   3.865   0.895  1.4567 -1.0327  0.2411
  391TIP3    H222589   4.468   3.780   0.781  1.0655 -0.3651 -0.0778
  392TIP3   OH222590   6.421   6.785   1.161  0.2172  0.2240 -1.0420
  392TIP3    H122591   6.355   6.836   1.114 -1.8467 -2.1811 -0.8490
  392TIP3    H222592   6.447   6.716   1.100  3.6837  1.9108 -1.6522
  393TIP3   OH222593   5.612   2.811   6.450  0.0878  0.3868  0.5763
  393TIP3    H122594   5.607   2.715   6.447  1.7092  0.3149 -0.1034
  393TIP3    H222595   5.549   2.835   6.518 -0.9587 -1.1076  0.1744
  394TIP3   OH222596   5.447   5.760   3.557 -0.3604  0.0953 -0.1117
  394TIP3    H122597   5.457   5.854   3.545  0.7591  0.1900  1.4709
  394TIP3    H222598   5.381   5.735   3.492 -0.2942  1.8688 -0.9000
  395TIP3   OH222599   0.566   1.227   6.189  0.1890 -0.4327  0.3680
  395TIP3    H122600   0.641   1.264   6.142 -1.0778 -0.4438 -1.7542
  395TIP3    H222601   0.596   1.142   6.219  1.2478 -0.1503  0.1313
  396TIP3   OH222602   1.493   1.136   6.430  0.2901 -0.4322 -0.2279
  396TIP3    H122603   1.417   1.080   6.444  0.1460  0.1589  1.4125
  396TIP3    H222604   1.563   1.096   6.482  1.0259 -0.7728 -1.4496
  397TIP3   OH222605   1.171   5.316  11.814  0.0078  0.2310  0.8117
  397TIP3    H122606   1.215   5.326  11.730 -1.4247 -1.4613 -0.1495
  397TIP3    H222607   1.212   5.382  11.870  1.7379  0.6260 -0.8836
  398TIP3   OH222608   5.334   1.771   4.544  0.1137 -0.0387  0.3191
  398TIP3    H122609   5.403   1.836   4.556 -0.1653  0.6965 -1.9569
  398TIP3    H222610   5.369   1.691   4.584  1.1905  1.0054  1.5117
  399TIP3   OH222611   5.986   4.762   0.412 -0.2793 -0.3071 -0.1231
  399TIP3    H122612   6.077   4.789   0.408 -0.2777 -0.2104  0.4395
  399TIP3    H222613   5.978   4.715   0.495 -0.5234 -1.1462 -0.6163
  400TIP3   OH222614   2.568   0.975  12.683 -0.0728 -0.4886 -0.2552
  400TIP3    H122615   2.542   1.035  12.613 -0.8683 -1.6073 -0.9325
  400TIP3    H222616   2.549   1.023  12.763  0.6242  0.7151 -0.7881
  401TIP3   OH222617   2.090   4.533  14.367  0.0186  0.3119 -0.4622
  401TIP3    H122618   2.036   4.608  14.391 -1.5591 -0.8789 -0.1491
  401TIP3    H222619   2.161   4.570  14.314 -1.0193  1.9544 -0.7469
  402TIP3   OH222620   5.895   3.539   2.502  0.1493  0.4762  0.6867
  402TIP3    H122621   5.893   3.476   2.574 -2.0596  1.1722  1.2456
  402TIP3    H222622   5.804   3.566   2.490  0.7073  1.5892 -1.3022
  403TIP3   OH222623   0.180   2.422   2.130  0.5000  0.0093  0.0407
  403TIP3    H122624   0.240   2.348   2.139  0.1673 -0.3640 -0.7506
  403TIP3    H222625   0.093   2.384   2.143  0.3135  0.2139 -0.5643
  404TIP3   OH222626   0.356   5.952  14.617  0.0828 -0.2439 -0.3956
  404TIP3    H122627   0.445   5.954  14.581 -0.0911 -1.1900 -0.9265
  404TIP3    H222628   0.340   5.859  14.633 -1.1276 -0.1772 -1.1476
  405TIP3   OH222629   5.898   2.532  11.381 -0.0133 -0.5617  0.1260
  405TIP3    H122630   5.987   2.497  11.384 -0.0524 -0.7168 -0.4607
  405TIP3    H222631   5.842   2.457  11.398 -0.0841 -0.7132 -0.7959
  406TIP3   OH222632   4.245   0.432  15.745 -0.3539 -0.0419  0.0445
  406TIP3    H122633   4.223   0.482  15.824 -0.9998  1.8514 -1.2993
  406TIP3    H222634   4.170   0.373  15.732 -1.0042  0.7955 -0.0619
  407TIP3   OH222635   4.985   5.981  12.691  0.2045 -0.0372  0.7063
  407TIP3    H122636   4.967   5.903  12.639  0.1934 -0.3198  1.1271
  407TIP3    H222637   4.918   6.044  12.663  0.5369  0.0027 -0.0090
  408TIP3   OH222638   4.208   1.457   1.182  0.1216 -0.0064 -0.2097
  408TIP3    H122639   4.196   1.551   1.175  0.9050 -0.0142 -1.8604
  408TIP3    H222640   4.119   1.422   1.182 -0.1218  0.5728 -2.3287
  409TIP3   OH222641   3.438   5.232   3.010  0.5115 -0.4210 -0.1818
  409TIP3    H122642   3.375   5.180   2.958 -0.3541  1.0695 -0.6522
  409TIP3    H222643   3.385   5.269   3.080  1.0143  0.2648 -0.1668
  410TIP3   OH222644   6.251   5.133  16.500 -0.1005 -0.3411 -0.2437
  410TIP3    H122645   6.203   5.051  16.514  1.7519 -1.5265 -0.7771
  410TIP3    H222646   6.202   5.177  16.431 -1.1554 -0.9586  0.0955
  411TIP3   OH222647   0.564   6.093  12.771 -0.3147 -0.4698  0.5717
  411TIP3    H122648   0.485   6.144  12.757  0.4554  0.6280  0.0957
  411TIP3    H222649   0.627   6.155  12.808  0.6353 -1.0669  0.0069
  412TIP3   OH222650   6.270   0.589  16.941 -0.0425  0.0787  0.0945
  412TIP3    H122651   6.180   0.611  16.965 -0.2022 -0.2683 -0.1832
  412TIP3    H222652   6.262   0.511  16.887  0.5846 -1.1670  1.7701
  413TIP3   OH222653   1.675   6.312   0.891 -0.0071 -0.1469 -0.7372
  413TIP3    H122654   1.742   6.265   0.941  0.0317 -0.1509 -0.7929
  413TIP3    H222655   1.602   6.251   0.886 -0.7852  0.6170  1.0617
  414TIP3   OH222656   1.497   0.578  15.316  0.3757  0.5161 -0.1734
  414TIP3    H122657   1.521   0.486  15.306  1.6769  1.0290 -1.9669
  414TIP3    H222658   1.402   0.577  15.326  0.2650 -0.9577 -1.2355
  415TIP3   OH222659   1.853   2.850  16.765  0.2357 -0.2482  0.5515
  415TIP3    H122660   1.832   2.784  16.832  1.6115  0.0027  1.2482
  415TIP3    H222661   1.786   2.918  16.777  0.3794 -0.2750  1.5866
  416TIP3   OH222662   5.412   2.046  11.649 -0.0402 -0.0357  0.7234
  416TIP3    H122663   5.411   2.122  11.591 -0.7794  0.0207  0.8133
  416TIP3    H222664   5.424   1.971  11.591  0.6988  0.1398  0.6364
  417TIP3   OH222665   1.964   5.967  16.047  0.0301  0.3586 -0.5553
  417TIP3    H122666   2.028   5.947  16.115 -0.4484 -0.3781 -0.3126
  417TIP3    H222667   2.017   5.988  15.970  0.5912  2.8276  0.4714
  418TIP3   OH222668   3.695   3.421  15.991 -0.3131 -0.0940 -0.2561
  418TIP3    H122669   3.773   3.366  15.993 -0.3391 -0.0676  1.7587
  418TIP3    H222670   3.632   3.377  16.048 -1.4290  0.4065 -1.0695
  419TIP3   OH222671   0.799   2.285   4.960 -0.6985 -0.2968  0.8652
  419TIP3    H122672   0.806   2.283   4.864  0.0285  0.7263  0.8953
  419TIP3    H222673   0.797   2.378   4.982  0.0843 -0.5296  1.9231
  420TIP3   OH222674   5.174   5.069   1.853  0.2603  0.0088 -0.1442
  420TIP3    H122675   5.243   5.106   1.798  1.0448  0.1872  0.9439
  420TIP3    H222676   5.148   4.989   1.808  0.6198  0.3599 -0.9788
  421TIP3   OH222677   1.584   2.213  11.452  0.1757 -0.2981 -0.3317
  421TIP3    H122678   1.567   2.213  11.358 -2.3127 -0.2670  0.0771
  421TIP3    H222679   1.663   2.265  11.463 -0.5701  1.2702 -2.2368
  422TIP3   OH222680   6.769   0.263  15.853  0.2368  0.2579 -0.1054
  422TIP3    H122681   6.864   0.272  15.850  0.4750 -2.1177 -0.4419
  422TIP3    H222682   6.744   0.292  15.940  1.4424 -0.5631  0.5152
  423TIP3   OH222683   1.536   5.226   0.771 -0.0540 -0.1435  0.6447
  423TIP3    H122684   1.579   5.265   0.695 -1.5726 -1.8807 -1.1724
  423TIP3    H222685   1.570   5.275   0.846  1.0721  1.9764 -1.1929
  424TIP3   OH222686   1.638   1.941  16.867 -0.5725 -0.7389 -0.0757
  424TIP3    H122687   1.583   1.932  16.789 -1.4952 -1.6967  0.6660
  424TIP3    H222688   1.606   1.873  16.927  0.6571 -0.5471  0.8248
  425TIP3   OH222689   4.722   1.691   5.598 -0.2431  0.1325  0.0786
  425TIP3    H122690   4.733   1.730   5.685  0.4401  1.1396 -0.4515
  425TIP3    H222691   4.754   1.601   5.608  0.1751  0.3566  0.7891
  426TIP3   OH222692   2.101   6.414   2.283 -0.4233  0.3144 -0.2744
  426TIP3    H122693   2.021   6.465   2.269  0.6224  2.0005 -0.1381
  426TIP3    H222694   2.116   6.418   2.377  0.1641  0.5386 -0.3733
  427TIP3   OH222695   3.414   4.456  15.576  0.8017  0.8163 -0.2270
  427TIP3    H122696   3.350   4.391  15.550  1.8733 -0.4356  0.2343
  427TIP3    H222697   3.388   4.536  15.529 -0.4513  0.0399 -0.8610
  428TIP3   OH222698   2.889   0.941   1.046  0.0281  0.0382 -0.1826
  428TIP3    H122699   2.822   0.966   1.110  0.1208  1.9954 -0.8041
  428TIP3    H222700   2.847   0.875   0.991 -0.8927  0.1788  0.3441
  429TIP3   OH222701   0.994   0.181   3.390 -0.1661  0.3089 -0.4758
  429TIP3    H122702   1.030   0.185   3.301 -0.1907  0.4552 -0.4791
  429TIP3    H222703   1.056   0.126   3.438 -2.5415 -3.6322 -1.7058
  430TIP3   OH222704   2.027   5.496  15.581 -0.0394 -0.3115 -0.1469
  430TIP3    H122705   1.987   5.543  15.654 -0.3007  1.9109 -1.6683
  430TIP3    H222706   2.071   5.422  15.622 -0.6559  0.5627  2.2100
  431TIP3   OH222707   1.762   4.991  13.073 -0.3895 -0.3098 -0.2013
  431TIP3    H122708   1.765   4.899  13.099  1.3549 -1.1605 -3.1837
  431TIP3    H222709   1.702   4.993  12.999  0.4197  0.7425 -0.8415
  432TIP3   OH222710   2.617   5.054   2.583  0.2591 -0.7598  0.5507
  432TIP3    H122711   2.668   5.135   2.580 -0.0111 -0.5556  1.2588
  432TIP3    H222712   2.650   5.008   2.661 -1.2903 -0.1744  1.5705
  433TIP3   OH222713   6.067   0.099   1.349 -0.1213 -0.2624 -0.1422
  433TIP3    H122714   6.050   0.130   1.260 -0.2011  0.4634  0.1236
  433TIP3    H222715   6.090   0.006   1.338  1.2180  0.1573 -1.0648
  434TIP3   OH222716   2.358   1.575   6.684  0.5674  0.7534  0.1520
  434TIP3    H122717   2.452   1.589   6.699  0.7539  0.4030 -0.6432
  434TIP3    H222718   2.321   1.662   6.675  0.7510  0.9056  0.8368
  435TIP3   OH222719   5.397   3.778   5.147 -0.3728 -0.0130  0.5884
  435TIP3    H122720   5.324   3.766   5.086 -1.4379  1.0789  1.6137
  435TIP3    H222721   5.472   3.795   5.090 -1.4957  1.7476 -0.4553
  436TIP3   OH222722   2.851   3.700  15.964  0.0101 -0.0764  0.1932
  436TIP3    H122723   2.802   3.626  15.928  0.3703  0.4662 -1.4949
  436TIP3    H222724   2.793   3.740  16.028 -1.6346  0.3303 -1.4958
  437TIP3   OH222725   5.616   4.372  13.345 -0.4433 -0.0992  0.3285
  437TIP3    H122726   5.704   4.333  13.341  0.6532  2.3250  0.0363
  437TIP3    H222727   5.613   4.414  13.432 -0.2681  2.1513 -0.7229
  438TIP3   OH222728   6.391   5.782   3.288 -0.8442  0.6475  0.4881
  438TIP3    H122729   6.438   5.720   3.233 -3.1095 -0.4167 -0.2887
  438TIP3    H222730   6.445   5.862   3.284  2.3366 -1.3160  1.8854
  439TIP3   OH222731   1.470   2.177   5.102 -0.1248  0.3256  0.0218
  439TIP3    H122732   1.397   2.236   5.085 -1.2627 -0.8698  0.6759
  439TIP3    H222733   1.546   2.222   5.065 -0.7584  2.7390  1.4882
  440TIP3   OH222734   0.986   3.778   4.418  0.0612 -0.0817  0.1046
  440TIP3    H122735   1.082   3.769   4.416  0.0398 -0.2218 -0.4397
  440TIP3    H222736   0.968   3.850   4.357 -0.2537 -0.7190 -0.5648
  441TIP3   OH222737   2.591   1.744  16.467 -0.6932 -0.0250 -0.1990
  441TIP3    H122738   2.655   1.810  16.440 -1.1654 -0.4774 -2.4637
  441TIP3    H222739   2.506   1.783  16.446 -0.9680 -1.3644 -1.6262
  442TIP3   OH222740   3.771   3.098  16.583  0.4118  0.2499  0.1603
  442TIP3    H122741   3.860   3.111  16.616  0.8108  1.2343 -1.2432
  442TIP3    H222742   3.759   3.169  16.520 -0.5972 -1.1507 -1.2476
  443TIP3   OH222743   2.668   5.884  12.131 -0.3800  0.8928  0.2309
  443TIP3    H122744   2.670   5.875  12.226  1.0255  0.4775  0.1645
  443TIP3    H222745   2.636   5.973  12.117 -1.0705  0.7933  1.0722
  444TIP3   OH222746   2.437   2.904  12.827 -0.0161  0.1615  0.0947
  444TIP3    H122747   2.440   3.000  12.823 -1.6006  0.2070 -0.0820
  444TIP3    H222748   2.498   2.876  12.758  0.2037  1.0317 -0.0723
  445TIP3   OH222749   1.128   5.805  13.776 -0.1447  0.3381  0.0729
  445TIP3    H122750   1.148   5.899  13.774 -0.3930  0.4055  0.7681
  445TIP3    H222751   1.204   5.764  13.734 -0.5082  0.9227 -1.1642
  446TIP3   OH222752   4.830   2.148  12.597 -0.5483 -0.7399  0.0302
  446TIP3    H122753   4.792   2.060  12.599  2.2570 -2.0117  0.0946
  446TIP3    H222754   4.920   2.136  12.628  0.6551  1.7457 -2.2644
  447TIP3   OH222755   4.436   3.688  13.935  0.1139  0.0758 -0.3302
  447TIP3    H122756   4.355   3.736  13.926 -0.6138 -1.2291 -0.9282
  447TIP3    H222757   4.419   3.604  13.892  1.8373 -0.1333 -0.6530
  448TIP3   OH222758   0.279   0.502  13.965  0.0758 -0.2709 -0.3817
  448TIP3    H122759   0.251   0.587  13.997  0.5164  0.2068 -1.2402
  448TIP3    H222760   0.252   0.501  13.873  0.4179 -0.9099 -0.4807
  449TIP3   OH222761   0.868   6.209  14.546  0.4695  0.0261  0.1710
  449TIP3    H122762   0.887   6.247  14.631 -1.0080  1.1945 -0.0204
  449TIP3    H222763   0.799   6.263  14.509 -1.1900 -2.3982 -0.4074
  450TIP3   OH222764   6.622   2.249   4.366 -0.5259 -0.2851 -0.2857
  450TIP3    H122765   6.582   2.256   4.279 -0.8200  1.5206 -0.0250
  450TIP3    H222766   6.582   2.320   4.416 -0.3279 -1.2889  1.3244
  451TIP3   OH222767   4.439   6.441   5.084 -0.5342 -0.1959 -0.1071
  451TIP3    H122768   4.372   6.417   5.148 -1.3001  1.2701 -0.3195
  451TIP3    H222769   4.514   6.387   5.106 -0.8045  0.2578  2.0147
  452TIP3   OH222770   0.757   4.511  11.560 -0.2617  0.0803  0.2349
  452TIP3    H122771   0.764   4.601  11.594 -0.6636 -0.7804  2.7626
  452TIP3    H222772   0.663   4.494  11.557 -0.1997 -0.1260 -0.6150
  453TIP3   OH222773   0.576   5.829   0.825 -0.2423  0.1100 -0.2527
  453TIP3    H122774   0.578   5.919   0.792  3.0906  0.1151 -0.1851
  453TIP3    H222775   0.642   5.827   0.893 -1.5345 -1.9698  0.9848
  454TIP3   OH222776   5.570   5.408   1.680 -0.0090 -0.4200 -0.4019
  454TIP3    H122777   5.601   5.421   1.591  2.3130  0.1671  0.4440
  454TIP3    H222778   5.620   5.333   1.713 -0.4334 -0.2860  0.5777
  455TIP3   OH222779   0.829   2.625  15.211 -0.6489  0.1694 -0.0857
  455TIP3    H122780   0.761   2.567  15.176 -1.9380  1.7892 -0.3594
  455TIP3    H222781   0.783   2.681  15.273  0.5775  0.8563  0.2265
  456TIP3   OH222782   6.578   6.753  16.967 -0.2276  0.5496 -0.6549
  456TIP3    H122783   6.568   6.772  16.874  1.2182 -1.8713 -1.3539
  456TIP3    H222784   6.489   6.757  17.002 -1.1329 -0.9827 -2.6628
  457TIP3   OH222785   2.139   3.280  16.500 -0.0346  0.1219  0.2140
  457TIP3    H122786   2.126   3.323  16.585  2.2617 -0.3914  0.8664
  457TIP3    H222787   2.073   3.319  16.443 -0.3478  1.8878  1.7264
  458TIP3   OH222788   0.633   4.970  13.382 -0.5317  0.2859 -0.0818
  458TIP3    H122789   0.725   4.957  13.360 -0.3490 -0.3257  1.0154
  458TIP3    H222790   0.594   5.008  13.303  0.2834 -1.0546 -1.1367
  459TIP3   OH222791   4.203   2.331  14.585 -0.2203  0.1568  0.1386
  459TIP3    H122792   4.107   2.334  14.583 -0.2462 -0.6563 -0.2140
  459TIP3    H222793   4.226   2.349  14.676 -0.7563 -0.5426  0.4203
  460TIP3   OH222794   5.649   4.582   6.181  0.2828  0.9627 -0.1418
  460TIP3    H122795   5.581   4.586   6.248 -0.7238  0.1522 -1.1002
  460TIP3    H222796   5.676   4.490   6.179 -0.9200  0.6092 -2.0245
  461TIP3   OH222797   2.932   5.438  15.268 -0.0497  0.1682 -1.0864
  461TIP3    H122798   2.945   5.404  15.180  0.7133 -0.6421 -0.6711
  461TIP3    H222799   3.019   5.434  15.308 -0.5034 -0.0567 -0.0976
  462TIP3   OH222800   5.596   2.893  10.706  0.2238  0.2447 -0.5489
  462TIP3    H122801   5.649   2.968  10.679  0.1231  0.0007 -1.4202
  462TIP3    H222802   5.584   2.841  10.626 -2.2172  0.8328 -0.5993
  463TIP3   OH222803   4.734   2.121  17.053 -0.0987 -0.7113 -0.4762
  463TIP3    H122804   4.694   2.199  17.091  0.6313 -0.5150 -0.0854
  463TIP3    H222805   4.802   2.096  17.116 -0.5295 -1.8367 -0.4514
  464TIP3   OH222806   0.825   3.820  15.942 -0.6170  0.0706 -0.2826
  464TIP3    H122807   0.766   3.778  16.004 -2.1458  2.0815 -0.3386
  464TIP3    H222808   0.820   3.766  15.863 -1.2511 -0.5880  0.2071
  465TIP3   OH222809   4.480   0.538  13.309 -0.2388 -0.2428  0.4303
  465TIP3    H122810   4.442   0.615  13.353  0.5990  0.8337 -0.7245
  465TIP3    H222811   4.549   0.509  13.369  0.6311  0.9802  0.0546
  466TIP3   OH222812   3.484   1.313  13.744  0.8752  0.4139  0.0327
  466TIP3    H122813   3.504   1.287  13.833  0.3212  1.6472  0.5291
  466TIP3    H222814   3.391   1.337  13.746  1.1754  1.6613 -0.5691
  467TIP3   OH222815   3.501   5.658  14.630 -0.0028 -0.3818  0.0635
  467TIP3    H122816   3.595   5.654  14.650 -0.1816  2.2327  1.5956
  467TIP3    H222817   3.480   5.751  14.631 -1.9588 -0.6874 -3.5553
  468TIP3   OH222818   5.286   0.600  11.220  0.7084  0.3444 -0.5189
  468TIP3    H122819   5.349   0.665  11.188  0.0768  0.5897 -1.2815
  468TIP3    H222820   5.319   0.575  11.306  0.1569  2.8046  0.4366
  469TIP3   OH222821   6.397   5.474   2.121  0.0161 -0.5821  0.9652
  469TIP3    H122822   6.388   5.554   2.174 -1.6398  0.1411 -0.3569
  469TIP3    H222823   6.462   5.495   2.055  0.3333 -0.6739  1.2484
  470TIP3   OH222824   5.362   1.855  11.201 -0.2913  0.4339  0.1344
  470TIP3    H122825   5.366   1.946  11.228  0.0307  0.7069 -0.8249
  470TIP3    H222826   5.300   1.854  11.128 -0.5569 -0.1770  0.3546
  471TIP3   OH222827   3.298   0.497   5.007 -0.0262 -0.3175  0.4789
  471TIP3    H122828   3.225   0.493   5.070 -2.1789  4.7199 -1.3933
  471TIP3    H222829   3.366   0.547   5.053 -0.3354  0.5802 -0.0276
  472TIP3   OH222830   3.447   0.818   4.717  0.3281  0.6588  0.4294
  472TIP3    H122831   3.430   0.888   4.780  0.8930  1.2275 -0.0400
  472TIP3    H222832   3.494   0.752   4.767 -0.9995  0.2046  1.1001
  473TIP3   OH222833   2.062   2.392  11.751  0.5713 -0.0851 -0.5109
  473TIP3    H122834   2.016   2.451  11.691 -0.6381 -0.7166 -0.2057
  473TIP3    H222835   2.079   2.446  11.829 -0.1209  0.0062 -0.4175
  474TIP3   OH222836   0.045   3.888   1.255  0.1495 -0.1720  0.4301
  474TIP3    H122837   0.038   3.859   1.164  0.5222  0.1735  0.2941
  474TIP3    H222838  -0.037   3.858   1.296 -0.9171  1.3705 -0.4948
  475TIP3   OH222839   5.343   1.159  14.418  0.3914 -0.3664  0.1435
  475TIP3    H122840   5.329   1.070  14.386  0.9428 -0.2346 -0.4774
  475TIP3    H222841   5.340   1.213  14.339 -1.5180  0.3558  0.7064
  476TIP3   OH222842   5.075   6.531  15.848 -0.4107 -0.4956 -0.1686
  476TIP3    H122843   5.165   6.498  15.843 -0.5445 -0.9588  0.4094
  476TIP3    H222844   5.034   6.502  15.767 -1.0272 -3.2759  1.0614
  477TIP3   OH222845   0.795   0.676  14.871  0.5217 -0.5281  0.1554
  477TIP3    H122846   0.705   0.667  14.841  0.0280  0.0806  1.4052
  477TIP3    H222847   0.821   0.587  14.897 -0.6822 -0.2684  2.3944
  478TIP3   OH222848   2.266   0.199   0.571  0.4451 -0.6684  0.6536
  478TIP3    H122849   2.328   0.270   0.553 -2.3307  1.9420  0.9239
  478TIP3    H222850   2.258   0.197   0.666 -1.1928  0.2755  0.5666
  479TIP3   OH222851   4.832   0.933   0.916  0.1814 -0.6872 -0.0768
  479TIP3    H122852   4.748   0.974   0.897 -0.2846 -0.5133  2.2563
  479TIP3    H222853   4.897   1.001   0.896 -0.4065  0.1868  0.9811
  480TIP3   OH222854   5.484   0.923  11.373 -0.2245  0.9885  0.0203
  480TIP3    H122855   5.489   1.012  11.407 -3.5771  0.7368  1.3171
  480TIP3    H222856   5.419   0.880  11.428 -0.3330 -1.6136 -2.0483
  481TIP3   OH222857   1.441   6.453   1.951  0.2854 -0.0143  0.3393
  481TIP3    H122858   1.348   6.446   1.974  0.4840  0.5428  1.3222
  481TIP3    H222859   1.450   6.400   1.871 -1.0024  0.4550 -0.1282
  482TIP3   OH222860   3.881   3.826   3.536  0.6310 -0.1953 -0.2859
  482TIP3    H122861   3.942   3.860   3.601  0.5755 -0.4654 -0.0936
  482TIP3    H222862   3.888   3.887   3.462  0.7972  0.0296 -0.0835
  483TIP3   OH222863   6.562   1.862   5.288 -0.0037  0.5594 -0.1993
  483TIP3    H122864   6.576   1.865   5.383  1.6221  0.1959 -0.4195
  483TIP3    H222865   6.532   1.950   5.265  0.3242  0.8684  0.5449
  484TIP3   OH222866   0.892   2.395   1.410 -0.6504  0.5121 -0.3772
  484TIP3    H122867   0.826   2.349   1.461 -0.9391  1.8482  0.4862
  484TIP3    H222868   0.845   2.426   1.332 -0.4642 -0.6040 -0.9377
  485TIP3   OH222869   0.811   0.915  17.123 -0.2034  0.3277  0.0904
  485TIP3    H122870   0.902   0.899  17.146 -0.2044  0.1617 -0.0147
  485TIP3    H222871   0.815   0.960  17.038 -0.1564  2.2523  1.1109
  486TIP3   OH222872   1.892   3.399  12.911  0.2803 -0.1130  0.2558
  486TIP3    H122873   1.943   3.410  12.830  0.1383 -2.2622 -0.1613
  486TIP3    H222874   1.802   3.384  12.881  0.0693 -0.0343  0.8470
  487TIP3   OH222875   5.561   3.193   2.146 -0.5533 -0.9736 -0.6103
  487TIP3    H122876   5.629   3.181   2.080 -0.1039 -1.4456 -0.0652
  487TIP3    H222877   5.490   3.134   2.118 -1.1046  0.1456 -1.6472
  488TIP3   OH222878   6.409   3.633   1.470  0.1704 -0.2147 -0.6514
  488TIP3    H122879   6.405   3.566   1.539  1.3085 -0.7524 -1.0960
  488TIP3    H222880   6.322   3.673   1.471 -0.3721 -1.3758 -0.0572
  489TIP3   OH222881   6.472   5.721   3.579 -0.2961 -0.9409 -0.1057
  489TIP3    H122882   6.536   5.791   3.568 -1.5090  0.4779  1.6894
  489TIP3    H222883   6.426   5.718   3.495 -1.0824  1.2767  0.2167
  490TIP3   OH222884   4.698   4.535  12.418  0.1724  0.0286  0.2371
  490TIP3    H122885   4.620   4.587  12.436  0.1805 -0.3508  1.4236
  490TIP3    H222886   4.687   4.505  12.328  0.0538  1.8612 -0.3827
  491TIP3   OH222887   4.346   2.697   3.692 -0.8485 -0.0652 -0.1078
  491TIP3    H122888   4.386   2.645   3.622  1.2581 -1.4427  2.0487
  491TIP3    H222889   4.299   2.633   3.745  0.6455  0.3750  1.8071
  492TIP3   OH222890   0.328   3.152   4.157 -0.4897  0.7175 -0.1618
  492TIP3    H122891   0.394   3.111   4.212 -1.8690 -0.2048  0.8429
  492TIP3    H222892   0.360   3.140   4.067  0.3455 -0.3347  0.2724
  493TIP3   OH222893   0.751   6.301  12.809  0.0167  0.1690  0.0077
  493TIP3    H122894   0.773   6.341  12.893  1.0656 -0.1838 -0.0887
  493TIP3    H222895   0.833   6.261  12.780 -1.2599 -3.1316  0.7034
  494TIP3   OH222896   1.348   4.106   0.677  0.2709 -0.6837  0.4084
  494TIP3    H122897   1.306   4.046   0.739  0.2877 -0.5557  0.5453
  494TIP3    H222898   1.408   4.051   0.627  0.3199 -0.7747  0.5657
  495TIP3   OH222899   2.939   1.002   2.514  0.3124  0.3755 -0.4389
  495TIP3    H122900   2.942   1.056   2.435  3.2561 -0.7524 -1.1513
  495TIP3    H222901   3.023   0.956   2.515 -1.1247 -2.3368  1.4457
  496TIP3   OH222902   1.900   1.012  16.021 -0.0528  0.1143  0.4340
  496TIP3    H122903   1.979   1.024  15.969 -0.0308 -1.1049  0.1711
  496TIP3    H222904   1.921   0.939  16.079 -1.0455 -0.3132  0.2537
  497TIP3   OH222905   0.939   1.597  11.933  0.1734  0.3625 -0.0657
  497TIP3    H122906   0.975   1.686  11.929  0.2986  0.2519 -2.0360
  497TIP3    H222907   1.009   1.545  11.972  0.8292  0.7945 -0.6545
  498TIP3   OH222908   0.542   6.139  11.342  0.2133  0.2040 -0.0985
  498TIP3    H122909   0.516   6.231  11.332 -1.2992 -0.1130  0.6881
  498TIP3    H222910   0.637   6.140  11.336  0.1841  1.7623 -0.5819
  499TIP3   OH222911   4.008   6.625   0.419 -0.0432  0.4103  0.3067
  499TIP3    H122912   3.990   6.640   0.512 -0.2856 -1.1566  0.5283
  499TIP3    H222913   3.936   6.570   0.389  0.3947  0.3455 -0.6540
  500TIP3   OH222914   5.889   0.458   5.963 -0.0252  0.3709  0.9127
  500TIP3    H122915   5.981   0.440   5.983 -0.2181  0.5742  2.0552
  500TIP3    H222916   5.854   0.495   6.044 -1.0240  0.6457  0.3661
  501TIP3   OH222917   2.649   3.940  12.556  0.1539  0.3862 -0.4192
  501TIP3    H122918   2.584   4.005  12.584  0.6865  1.6408 -2.0046
  501TIP3    H222919   2.614   3.905  12.474  1.9437  1.8317 -1.8428
  502TIP3   OH222920   5.825   5.234   1.499 -0.0739 -0.2776 -0.0653
  502TIP3    H122921   5.778   5.200   1.576  0.4260 -0.9566 -0.0523
  502TIP3    H222922   5.903   5.276   1.536 -0.4597  0.4892 -0.1162
  503TIP3   OH222923   1.077   4.285  16.540  0.0845  0.1321  0.3962
  503TIP3    H122924   1.126   4.270  16.620  0.6796 -0.9287 -0.1687
  503TIP3    H222925   1.077   4.381  16.530 -1.9596  0.4358  2.8630
  504TIP3   OH222926   4.747   1.483  16.970  0.3079  0.2372 -0.5782
  504TIP3    H122927   4.665   1.499  17.016  0.3069  1.8474 -1.0968
  504TIP3    H222928   4.744   1.390  16.946 -0.1001 -0.3959  1.8262
  505TIP3   OH222929   2.096   6.622   4.281 -0.0878 -0.2930  0.2031
  505TIP3    H122930   2.138   6.708   4.288 -1.5622  0.6523 -2.0858
  505TIP3    H222931   2.019   6.629   4.337 -0.9200  0.3280 -1.0190
  506TIP3   OH222932   0.693   3.062   2.626 -0.3315 -0.2719 -0.1325
  506TIP3    H122933   0.762   2.997   2.637 -0.6372 -0.4912  0.5730
  506TIP3    H222934   0.633   3.022   2.562 -0.0836 -0.3156 -0.3387
  507TIP3   OH222935   6.364   4.887  16.913 -0.0441 -0.8728  0.5761
  507TIP3    H122936   6.396   4.971  16.946  0.6098 -1.3088  1.0864
  507TIP3    H222937   6.395   4.884  16.822 -2.5993  0.7136 -0.3849
  508TIP3   OH222938   0.855   0.336  12.433 -0.7394  0.0678 -0.2112
  508TIP3    H122939   0.819   0.262  12.384 -1.7619  0.7828 -0.5443
  508TIP3    H222940   0.923   0.371  12.375 -1.5133  0.5222 -0.8499
  509TIP3   OH222941   2.950   2.754   5.191 -0.3804 -0.0897  0.1158
  509TIP3    H122942   2.863   2.751   5.151 -0.6057  1.8235  0.4238
  509TIP3    H222943   2.997   2.680   5.152 -2.7324 -2.3320  1.3752
  510TIP3   OH222944   2.166   3.649  14.527 -0.0433 -0.0636 -0.0310
  510TIP3    H122945   2.229   3.682  14.591 -0.5009  0.0033  0.3988
  510TIP3    H222946   2.202   3.674  14.442 -0.0704  1.0177  0.2583
  511TIP3   OH222947   2.247   0.757   4.475 -0.1489  0.1584 -0.0436
  511TIP3    H122948   2.168   0.712   4.503 -0.4215  0.8256  0.2710
  511TIP3    H222949   2.315   0.690   4.477 -0.7034 -0.4102 -0.2938
  512TIP3   OH222950   4.863   5.016  12.710 -0.2784  0.5655 -0.2689
  512TIP3    H122951   4.949   4.984  12.737 -0.7401  0.1887  0.7555
  512TIP3    H222952   4.809   4.937  12.704 -0.3287  0.7020 -1.7608
  513TIP3   OH222953   5.744   4.668   1.595  0.1900  0.6039  0.3308
  513TIP3    H122954   5.679   4.598   1.591  0.0095  0.6479  2.1252
  513TIP3    H222955   5.709   4.730   1.658  2.1074  0.4692  1.5734
  514TIP3   OH222956   5.096   3.094  12.885  0.1192 -0.0076 -0.6304
  514TIP3    H122957   5.077   3.180  12.848 -1.1104  0.2316  0.4963
  514TIP3    H222958   5.124   3.113  12.975 -1.0601 -0.8247 -0.0785
  515TIP3   OH222959   4.026   3.350   1.473  0.1678  0.0031 -0.3573
  515TIP3    H122960   4.045   3.270   1.423 -0.2063 -1.0502  1.1537
  515TIP3    H222961   3.972   3.403   1.413  1.3373 -0.3818 -1.7779
  516TIP3   OH222962   1.901   0.947  16.504  0.5923 -0.2500  0.1925
  516TIP3    H122963   1.907   0.858  16.469 -0.9493 -0.2480 -0.0923
  516TIP3    H222964   1.956   0.945  16.583  0.2898 -1.5543  0.3842
  517TIP3   OH222965   4.580   5.878  15.915  0.0925 -0.0966  0.7250
  517TIP3    H122966   4.563   5.798  15.865 -2.1754  0.3666  0.7383
  517TIP3    H222967   4.535   5.865  15.998  0.7411  0.7050  1.2116
  518TIP3   OH222968   6.080   0.674   3.437  0.3292 -0.4374  0.1797
  518TIP3    H122969   6.131   0.625   3.502  1.3715  0.0478 -0.2702
  518TIP3    H222970   5.993   0.634   3.441  0.4032 -0.4612  1.8133
  519TIP3   OH222971   1.579   0.314  13.802  0.7899  0.1524  0.0365
  519TIP3    H122972   1.609   0.384  13.745 -1.2916  0.7248 -0.4243
  519TIP3    H222973   1.496   0.347  13.837  1.3280 -0.7862  2.2697
  520TIP3   OH222974   2.235   6.163  11.010  0.1927 -0.0139  0.0830
  520TIP3    H122975   2.226   6.068  11.019 -1.4934 -0.0969 -1.9508
  520TIP3    H222976   2.322   6.176  10.973  0.0878 -0.8409 -0.4606
  521TIP3   OH222977   6.534   4.205   4.857 -0.2985 -0.2223  1.1995
  521TIP3    H122978   6.591   4.135   4.889 -0.2936  0.2138  2.1689
  521TIP3    H222979   6.446   4.167   4.856 -0.0342 -0.8102 -0.0356
  522TIP3   OH222980   4.991   2.184  14.822  0.1396  0.1920 -0.7914
  522TIP3    H122981   4.934   2.261  14.813 -1.0745 -0.6077 -0.0865
  522TIP3    H222982   5.008   2.157  14.732  1.1911  1.7223 -1.0659
  523TIP3   OH222983   2.291   2.121   1.309 -0.1118 -0.1677  0.3278
  523TIP3    H122984   2.283   2.078   1.394 -0.1030  0.4267  0.6298
  523TIP3    H222985   2.382   2.148   1.304 -0.2450  0.2849  0.3617
  524TIP3   OH222986   6.691   1.333   5.581 -0.0010  0.0732 -0.3990
  524TIP3    H122987   6.773   1.285   5.587 -0.2699 -0.3122  0.2744
  524TIP3    H222988   6.714   1.424   5.601  0.2649 -0.0336 -0.2292
  525TIP3   OH222989   6.670   1.674   4.624 -0.0160  0.1064 -0.1565
  525TIP3    H122990   6.697   1.764   4.644  1.9612 -0.7676  1.3669
  525TIP3    H222991   6.658   1.672   4.529  0.0533  1.9372 -0.2153
  526TIP3   OH222992   2.958   4.714  15.846  0.3466  0.0091 -0.7193
  526TIP3    H122993   3.011   4.793  15.858 -0.7754  0.8443 -1.2374
  526TIP3    H222994   3.022   4.643  15.843  1.3644  0.8850 -0.2301
  527TIP3   OH222995   2.521   4.243  15.783 -0.3159  0.6147 -0.4236
  527TIP3    H122996   2.614   4.221  15.791 -0.4170 -0.1854 -1.4668
  527TIP3    H222997   2.520   4.338  15.772  0.3741  0.6295 -0.3885
  528TIP3   OH222998   2.352   6.535  16.786  0.3379  0.0348  0.1655
  528TIP3    H122999   2.304   6.579  16.856  0.6412 -0.0812  0.4480
  528TIP3    H223000   2.292   6.469  16.753  0.1547  0.1610  0.2423
  529TIP3   OH223001   3.251   5.452  13.293  0.0085  0.2131 -0.7940
  529TIP3    H123002   3.299   5.534  13.280  0.7846 -0.5022 -2.6692
  529TIP3    H223003   3.244   5.415  13.205 -0.9019 -1.4282 -0.0473
  530TIP3   OH223004   2.200   3.660   1.924  1.0384 -0.0265 -0.0393
  530TIP3    H123005   2.245   3.598   1.981  0.5175 -1.2783 -0.9818
  530TIP3    H223006   2.109   3.633   1.924  0.4232  1.9561  1.1212
  531TIP3   OH223007   3.497   3.927  14.521 -0.1277  0.0877 -0.1726
  531TIP3    H123008   3.583   3.943  14.481  1.0702 -3.2673  0.9587
  531TIP3    H223009   3.516   3.907  14.613 -2.0855 -1.1296 -0.0065
  532TIP3   OH223010   5.665   3.904   6.352 -0.1233  0.1930  0.2884
  532TIP3    H123011   5.692   3.899   6.260  0.2197 -1.2988  0.4433
  532TIP3    H223012   5.732   3.854   6.399 -1.0722 -0.2924  1.1587
  533TIP3   OH223013   0.769   1.255  14.061 -0.0642  0.1028 -0.2568
  533TIP3    H123014   0.846   1.201  14.048 -0.0966  0.3114 -1.3542
  533TIP3    H223015   0.701   1.195  14.092  0.3634 -0.1777  0.1396
  534TIP3   OH223016   6.268   2.842  15.427 -0.4428 -0.4667  0.4151
  534TIP3    H123017   6.183   2.885  15.419 -0.3309 -0.0317  1.4885
  534TIP3    H223018   6.321   2.881  15.358 -0.7639  0.1093  0.4888
  535TIP3   OH223019   5.152   6.470   0.949 -0.3002 -0.2717  0.5548
  535TIP3    H123020   5.178   6.400   1.009 -1.2149 -1.0205  0.0926
  535TIP3    H223021   5.144   6.427   0.863 -1.1254  0.3316  0.3178
  536TIP3   OH223022   0.742   0.260   1.859  0.7302  0.2241 -0.0632
  536TIP3    H123023   0.724   0.181   1.809  2.1963 -2.3318  3.2614
  536TIP3    H223024   0.830   0.287   1.831  0.7082 -0.0044 -0.3476
  537TIP3   OH223025   3.330   0.655   5.447  0.2430 -0.0823  0.4689
  537TIP3    H123026   3.245   0.620   5.418  0.3997 -0.7320  0.7776
  537TIP3    H223027   3.388   0.578   5.448 -0.3636 -0.5957  4.8743
  538TIP3   OH223028   1.163   5.682   2.739 -0.0589  0.1294  0.2716
  538TIP3    H123029   1.195   5.720   2.821  0.7464 -0.4212  0.2211
  538TIP3    H223030   1.242   5.670   2.686 -0.5643  0.3916 -0.5488
  539TIP3   OH223031   4.085   0.801   1.528 -0.0597 -0.0287 -0.7438
  539TIP3    H123032   4.154   0.806   1.595 -0.9077 -2.8532  0.4063
  539TIP3    H223033   4.056   0.892   1.518  1.7503  0.7871  0.9734
  540TIP3   OH223034   6.140   2.685  11.512  0.0670 -0.6976  0.5468
  540TIP3    H123035   6.045   2.689  11.524  0.1230  0.7148  0.6328
  540TIP3    H223036   6.175   2.739  11.583  0.8950 -0.6295  0.0896
  541TIP3   OH223037   3.199   2.629   5.874  0.2745  0.2275  0.3532
  541TIP3    H123038   3.267   2.614   5.940 -0.6296 -1.4149  0.9473
  541TIP3    H223039   3.116   2.618   5.922 -0.4003  1.0407 -0.6131
  542TIP3   OH223040   5.480   5.309   3.979 -0.1049 -0.3724 -0.3275
  542TIP3    H123041   5.452   5.337   3.892  1.5126 -0.6570 -0.9603
  542TIP3    H223042   5.523   5.225   3.965  2.3110  0.7011  0.3789
  543TIP3   OH223043   2.345   3.676  14.777 -0.2920 -0.5462  0.6585
  543TIP3    H123044   2.356   3.762  14.817  0.6814  0.1784 -1.1356
  543TIP3    H223045   2.430   3.656  14.738 -0.9777 -1.6006 -0.3330
  544TIP3   OH223046   5.880   4.651  12.019  0.4504  0.3166  0.5909
  544TIP3    H123047   5.903   4.591  11.948  1.6534  2.5167 -0.9301
  544TIP3    H223048   5.802   4.697  11.987  0.2864  0.4572  1.1929
  545TIP3   OH223049   0.352   6.380  12.349  0.1927  0.1381 -1.1088
  545TIP3    H123050   0.279   6.441  12.337 -0.2444 -0.2736 -0.5588
  545TIP3    H223051   0.322   6.298  12.309  0.4550  0.0421 -1.1106
  546TIP3   OH223052   0.903   3.808   3.079 -0.1950  0.0566 -0.2768
  546TIP3    H123053   0.830   3.857   3.117 -0.4139  0.0036 -0.6332
  546TIP3    H223054   0.930   3.747   3.149  0.7713  1.4079  0.5580
  547TIP3   OH223055   4.616   6.779   2.547  0.6544  0.2767  0.3290
  547TIP3    H123056   4.681   6.771   2.617  0.9982 -0.1396 -0.0333
  547TIP3    H223057   4.550   6.714   2.568 -0.0391  1.2129  1.1094
  548TIP3   OH223058   5.220   1.657  16.168 -0.3283 -0.5832 -0.6812
  548TIP3    H123059   5.138   1.686  16.128  0.0859 -0.0632 -1.1567
  548TIP3    H223060   5.289   1.694  16.113  0.2393 -0.4631  0.0921
  549TIP3   OH223061   3.500   4.933  11.748 -0.4128 -0.1632 -0.6369
  549TIP3    H123062   3.477   4.846  11.782 -1.2344  0.5795  0.7636
  549TIP3    H223063   3.472   4.994  11.817  2.7777  1.0158 -0.2895
  550TIP3   OH223064   3.783   2.229   3.001  0.6485 -0.6974  0.3017
  550TIP3    H123065   3.837   2.300   3.035  0.5926 -1.7210  2.6843
  550TIP3    H223066   3.780   2.243   2.907  3.1412  0.7187  0.3879
  551TIP3   OH223067   1.449   2.631   1.937 -0.5331  0.1846  0.5249
  551TIP3    H123068   1.464   2.655   1.845 -1.0074 -1.5292 -0.0191
  551TIP3    H223069   1.506   2.555   1.951 -1.6581 -0.5594  1.1673
  552TIP3   OH223070   4.108   0.889  11.282  0.0629  0.4219 -0.7939
  552TIP3    H123071   4.092   0.830  11.209  0.4599  0.0566 -0.5908
  552TIP3    H223072   4.195   0.864  11.314 -0.4238  0.0800  0.2716
  553TIP3   OH223073   1.413   2.330  13.211  0.7259  0.3045  0.3876
  553TIP3    H123074   1.452   2.418  13.204 -3.0994  1.9673 -1.3912
  553TIP3    H223075   1.419   2.295  13.122  1.8178 -1.0952  1.0001
  554TIP3   OH223076   4.327   1.066   1.911  0.2839 -0.0548  0.0008
  554TIP3    H123077   4.319   1.023   1.827  1.4244 -0.4142  0.0650
  554TIP3    H223078   4.249   1.121   1.918  0.3335  0.2210 -1.4278
  555TIP3   OH223079   1.629   6.270   4.362 -0.1025 -0.2548 -0.2613
  555TIP3    H123080   1.698   6.267   4.428  1.0511  1.3662 -1.3604
  555TIP3    H223081   1.675   6.261   4.279 -1.1386  1.4071 -1.0479
  556TIP3   OH223082   1.129   6.075  16.175  0.2507  0.4565  0.2561
  556TIP3    H123083   1.066   6.003  16.169  1.0886 -0.2256 -0.4976
  556TIP3    H223084   1.088   6.147  16.126  1.4003 -0.9849 -2.9278
  557TIP3   OH223085   2.665   6.009   5.885 -0.2592  0.6263  0.3648
  557TIP3    H123086   2.670   5.914   5.880 -0.3177  0.6635 -0.5307
  557TIP3    H223087   2.572   6.029   5.879 -0.1834  0.7788 -0.3907
  558TIP3   OH223088   2.216   6.435  11.048  0.2157 -0.4832  0.1948
  558TIP3    H123089   2.140   6.454  11.103  0.8084  1.4945  0.3749
  558TIP3    H223090   2.213   6.340  11.035 -3.1476 -0.2539 -1.1033
  559TIP3   OH223091   5.725   1.409   1.656 -0.0851  0.1138  0.1548
  559TIP3    H123092   5.728   1.328   1.606  0.1377  1.0274 -1.3554
  559TIP3    H223093   5.686   1.385   1.740 -2.2190 -1.0780 -1.1455
  560TIP3   OH223094   0.436   6.572   1.751  0.6786 -0.3827  0.8001
  560TIP3    H123095   0.445   6.597   1.659  0.8105  0.4434  1.0347
  560TIP3    H223096   0.525   6.554   1.780  0.6565 -0.4625  0.8193
  561TIP3   OH223097   2.785   2.546   1.326  0.4490 -0.4052  0.0815
  561TIP3    H123098   2.727   2.622   1.321 -0.2807 -0.8037  1.9946
  561TIP3    H223099   2.873   2.583   1.320  0.0996  0.6180  0.9651
  562TIP3   OH223100   3.531   4.530   1.921 -0.6472  0.1984  0.0929
  562TIP3    H123101   3.499   4.444   1.896 -0.7131 -0.2488  1.6706
  562TIP3    H223102   3.472   4.591   1.877 -0.1463 -0.5214 -1.6425
  563TIP3   OH223103   0.889   6.372  13.598  0.2433  0.5750 -0.9319
  563TIP3    H123104   0.984   6.385  13.597  0.6896 -1.8900  1.6679
  563TIP3    H223105   0.860   6.420  13.676 -0.1602 -1.1732  0.0242
  564TIP3   OH223106   6.490   5.615  16.844 -0.1262  0.3880 -0.0092
  564TIP3    H123107   6.421   5.645  16.904  0.5925  0.6424  0.6980
  564TIP3    H223108   6.488   5.678  16.772  0.6029  1.4772  0.9087
  565TIP3   OH223109   0.728   0.471  16.099 -0.2660  0.2858 -0.4686
  565TIP3    H123110   0.715   0.410  16.027  1.6789  0.1606 -0.7417
  565TIP3    H223111   0.795   0.532  16.067  0.7772  0.0986  1.2962
  566TIP3   OH223112   6.335   3.579   2.094  0.0683  1.0480 -0.2871
  566TIP3    H123113   6.302   3.553   2.180  0.4145 -0.2903 -0.5371
  566TIP3    H223114   6.423   3.539   2.090 -0.7350 -0.6187 -2.0415
  567TIP3   OH223115   0.188   3.465  14.441  0.0368  0.0204  0.4706
  567TIP3    H123116   0.218   3.389  14.392 -1.4342 -0.2087 -0.1120
  567TIP3    H223117   0.212   3.540  14.386 -2.5007 -0.2899 -1.1335
  568TIP3   OH223118   1.604   5.430   3.277  0.6011  0.2072 -0.1943
  568TIP3    H123119   1.632   5.517   3.307  0.9292 -0.5822  1.8239
  568TIP3    H223120   1.508   5.434   3.282  0.4305  1.5037 -3.1804
  569TIP3   OH223121   0.738   3.655  11.576 -0.2434  0.1474  0.4963
  569TIP3    H123122   0.660   3.618  11.617 -0.7943  0.3628 -0.3489
  569TIP3    H223123   0.809   3.633  11.636 -0.4916 -2.5689 -0.1188
  570TIP3   OH223124   3.803   4.217   3.084 -0.0816  0.7511  0.0400
  570TIP3    H123125   3.756   4.293   3.048  1.4236  1.3589 -0.6709
  570TIP3    H223126   3.767   4.143   3.035 -0.3001  1.2074 -0.5125
  571TIP3   OH223127   2.384   3.759   2.416  0.0177 -0.1181 -0.0983
  571TIP3    H123128   2.293   3.751   2.446 -0.7093 -0.6168 -2.3303
  571TIP3    H223129   2.430   3.797   2.490 -2.2634  1.3240  0.6331
  572TIP3   OH223130   3.941   0.754   5.857  0.1760 -0.1630  0.8290
  572TIP3    H123131   3.871   0.702   5.897  0.3074  0.1946  1.5426
  572TIP3    H223132   4.020   0.703   5.874  0.7117  1.6482  4.1317
  573TIP3   OH223133   5.250   2.049  16.630  0.5866 -0.2632  0.0849
  573TIP3    H123134   5.283   1.986  16.693 -1.0146 -0.4010  0.7914
  573TIP3    H223135   5.255   2.134  16.675  2.2177  0.0691 -0.6704
  574TIP3   OH223136   3.866   1.695  17.034  0.5400  0.8879 -0.2686
  574TIP3    H123137   3.958   1.686  17.010  0.1762  1.8921 -2.1204
  574TIP3    H223138   3.862   1.668  17.126  2.0641 -2.8336 -1.1892
  575TIP3   OH223139   6.202   3.803   1.631  0.0144 -0.6286 -0.0425
  575TIP3    H123140   6.230   3.886   1.593  0.1914 -0.5836  0.1788
  575TIP3    H223141   6.242   3.802   1.719 -1.2293 -0.2711  0.5349
  576TIP3   OH223142   0.243   1.824  14.068  0.2338 -0.5790 -0.2941
  576TIP3    H123143   0.298   1.771  14.126  0.2948 -1.4897 -1.1718
  576TIP3    H223144   0.153   1.802  14.094  0.2421 -1.8178 -1.2548
  577TIP3   OH223145   5.771   1.572   5.438  0.4175  0.3270 -0.1883
  577TIP3    H123146   5.754   1.480   5.416 -1.0676  0.2919  1.0353
  577TIP3    H223147   5.708   1.621   5.385 -1.1103  0.4199  1.6796
  578TIP3   OH223148   2.529   0.640  11.580 -0.3478  0.0560  0.0941
  578TIP3    H123149   2.439   0.636  11.546 -0.7400  0.1610  1.0884
  578TIP3    H223150   2.574   0.568  11.536 -0.7977  0.3049 -0.7725
  579TIP3   OH223151   1.757   6.654   5.471 -0.9649  0.6511  0.4422
  579TIP3    H123152   1.735   6.563   5.492  1.3401 -0.1886 -0.6571
  579TIP3    H223153   1.766   6.656   5.376  0.6858  1.6170  0.5858
  580TIP3   OH223154   0.130   5.873  15.219  0.1908 -0.2040 -0.3535
  580TIP3    H123155   0.150   5.852  15.310  0.7856 -0.4701 -0.5441
  580TIP3    H223156   0.215   5.870  15.175 -0.1223 -0.2407 -0.9518
  581TIP3   OH223157   0.465   2.768   4.830  0.8937 -0.1949  0.1963
  581TIP3    H123158   0.430   2.687   4.793 -0.3821  0.3675  0.1790
  581TIP3    H223159   0.560   2.754   4.831  0.7407 -1.3611 -0.5826
  582TIP3   OH223160   4.616   6.327   1.162  0.2425  0.0799  0.3187
  582TIP3    H123161   4.699   6.286   1.137  0.7098  1.5258 -0.6132
  582TIP3    H223162   4.638   6.383   1.236  0.1230  0.5418  0.0077
  583TIP3   OH223163   0.836   5.637   6.399 -0.0605  0.2562 -0.2524
  583TIP3    H123164   0.804   5.577   6.466 -1.0383  1.9266  0.8297
  583TIP3    H223165   0.923   5.605   6.376 -0.8078 -1.9052 -0.1518
  584TIP3   OH223166   0.334   1.578   0.315 -0.2227  0.0762 -0.0271
  584TIP3    H123167   0.397   1.554   0.382 -2.2093  0.1825  1.9495
  584TIP3    H223168   0.305   1.666   0.339  0.3902  0.8741 -2.0953
  585TIP3   OH223169   0.970   5.914  14.228 -0.2885  0.0682  0.2838
  585TIP3    H123170   0.904   5.951  14.169 -1.6061 -0.6196  1.2963
  585TIP3    H223171   1.007   5.990  14.274 -0.2916  0.4645 -0.3710
  586TIP3   OH223172   2.310   2.153   2.879 -0.0661 -0.3343 -0.2107
  586TIP3    H123173   2.279   2.114   2.797  1.9702  0.1542 -1.2582
  586TIP3    H223174   2.293   2.247   2.869 -1.3489 -0.4733  0.6391
  587TIP3   OH223175   1.615   4.985  11.024  0.1965  0.3117 -0.1961
  587TIP3    H123176   1.592   5.045  11.095 -0.2350 -0.9271  0.7260
  587TIP3    H223177   1.549   5.000  10.957 -0.8296 -0.2283  0.6870
  588TIP3   OH223178   1.790   3.369   2.424 -0.2994  0.3426  1.0987
  588TIP3    H123179   1.715   3.416   2.460  0.5082  1.0297  1.9299
  588TIP3    H223180   1.858   3.436   2.414 -0.4112  0.1087 -1.4919
  589TIP3   OH223181   1.916   5.908   3.422 -0.5380  0.2317  0.2563
  589TIP3    H123182   1.831   5.882   3.458 -1.5458  1.4796 -1.1271
  589TIP3    H223183   1.942   5.984   3.473  0.3510 -0.9009  1.4967
  590TIP3   OH223184   4.059   4.139  11.229 -0.0977  0.1478  0.3041
  590TIP3    H123185   4.066   4.201  11.156 -2.7274 -1.5004 -1.3973
  590TIP3    H223186   4.138   4.085  11.222  0.4041  0.9576 -0.4076
  591TIP3   OH223187   2.400   0.330   3.590  0.1681 -0.8248 -0.6907
  591TIP3    H123188   2.311   0.297   3.582 -0.6299  1.3641 -1.4747
  591TIP3    H223189   2.416   0.336   3.684 -0.6631 -0.8882 -0.5438
  592TIP3   OH223190   4.029   4.357  12.230 -0.0998 -0.0482 -0.2080
  592TIP3    H123191   3.963   4.397  12.286  0.6460 -1.1418  1.5242
  592TIP3    H223192   4.068   4.429  12.182 -0.2177  1.0379  1.2953
  593TIP3   OH223193   1.040   5.983  11.139  0.3058 -0.8734  0.4473
  593TIP3    H123194   1.039   6.032  11.056  0.8856 -2.2935 -0.4259
  593TIP3    H223195   0.997   5.900  11.118  0.1635 -1.1092  1.6521
  594TIP3   OH223196   2.667   1.092   2.582  0.3487 -0.0097 -0.8531
  594TIP3    H123197   2.761   1.084   2.596 -0.1077 -0.2129  2.3830
  594TIP3    H223198   2.647   1.029   2.512  2.2413 -1.7224  0.1163
  595TIP3   OH223199   0.209   0.992  12.499 -0.0826 -0.1054  0.3198
  595TIP3    H123200   0.297   1.011  12.530 -0.4203 -0.0589  1.2558
  595TIP3    H223201   0.169   0.941  12.569  0.2515 -2.8829 -1.4066
  596TIP3   OH223202   5.938   1.141   1.112  0.7883 -0.0692 -0.1913
  596TIP3    H123203   5.864   1.198   1.130  0.3383 -0.8334  0.4325
  596TIP3    H223204   6.014   1.188   1.146  0.4429  0.2233  0.1726
  597TIP3   OH223205   0.012   3.061   3.428 -0.3584  0.4247  0.3485
  597TIP3    H123206  -0.010   3.150   3.400 -0.6269  0.1770 -0.2395
  597TIP3    H223207   0.107   3.056   3.419 -0.5494 -0.0333 -1.7045
  598TIP3   OH223208   6.410   2.030  11.421 -0.2535  1.0460  0.2453
  598TIP3    H123209   6.403   2.098  11.488 -1.3515  1.5985 -0.3997
  598TIP3    H223210   6.421   2.078  11.339 -0.0165  0.4109 -0.0974
  599TIP3   OH223211   3.915   2.147   3.622  0.0001 -0.0855  0.2319
  599TIP3    H123212   3.986   2.105   3.671 -0.8134 -1.5282  0.1714
  599TIP3    H223213   3.853   2.077   3.603 -1.3474  1.1293  0.0802
  600TIP3   OH223214   3.629   4.813  13.198  0.3796 -0.2615  0.0443
  600TIP3    H123215   3.592   4.775  13.277 -0.6633  0.2662 -0.1754
  600TIP3    H223216   3.575   4.778  13.127 -0.9206  1.9555 -0.1207
  601TIP3   OH223217   2.873   4.757   5.782  0.3205 -0.0189  0.2115
  601TIP3    H123218   2.940   4.689   5.785  0.1111 -0.2489 -0.2687
  601TIP3    H223219   2.918   4.835   5.749  0.2232 -0.3220 -0.6323
  602TIP3   OH223220   0.003   1.018   5.137  0.2519  0.5161 -0.7219
  602TIP3    H123221  -0.058   0.947   5.159  1.8269 -0.9480 -0.9513
  602TIP3    H223222  -0.033   1.057   5.057 -0.6892  0.0450 -0.5331
  603TIP3   OH223223   5.836   1.380   4.692  0.2383  0.7507 -0.0719
  603TIP3    H123224   5.911   1.372   4.633 -0.4839 -1.0134 -0.7849
  603TIP3    H223225   5.767   1.418   4.638  0.2640  1.2734  0.2633
  604TIP3   OH223226   0.694   4.016  16.598  0.1993 -0.4281 -0.3320
  604TIP3    H123227   0.652   4.099  16.576  0.0032 -0.7851 -1.3162
  604TIP3    H223228   0.773   4.040  16.645 -0.6596  0.2773  0.7881
  605TIP3   OH223229   3.444   4.802   2.027 -0.2212 -0.2143 -0.0708
  605TIP3    H123230   3.510   4.817   1.960 -0.0272  1.2460  0.4225
  605TIP3    H223231   3.467   4.717   2.065  0.5819 -0.3283 -0.7950
  606TIP3   OH223232   0.219   2.619  16.036 -0.5027 -0.2328 -0.2499
  606TIP3    H123233   0.139   2.638  16.084 -1.0852 -0.8378 -0.9601
  606TIP3    H223234   0.210   2.667  15.954 -0.6431 -1.1492 -0.7872
  607TIP3   OH223235   0.382   1.989  14.742 -0.3682 -0.0362 -0.0643
  607TIP3    H123236   0.448   1.920  14.755  0.8687  1.3215  1.0097
  607TIP3    H223237   0.384   2.005  14.648  1.0770  0.1957 -0.0186
  608TIP3   OH223238   6.097   2.276   5.391 -0.1936  1.0086  0.7811
  608TIP3    H123239   6.122   2.245   5.477  1.7389  0.1549 -0.0635
  608TIP3    H223240   6.167   2.247   5.333 -0.9212  2.4794 -0.9084
  609TIP3   OH223241   6.653   5.711   6.048 -0.2768 -0.5279  0.1268
  609TIP3    H123242   6.606   5.792   6.029 -2.2782 -2.0059 -1.4460
  609TIP3    H223243   6.634   5.693   6.140 -0.6776  0.2277  0.1964
  610TIP3   OH223244   2.886   5.342   5.341 -0.1809 -0.0026 -0.4792
  610TIP3    H123245   2.934   5.377   5.266  0.6848  0.2424  0.1906
  610TIP3    H223246   2.938   5.366   5.417 -1.0603 -0.2461  0.2124
  611TIP3   OH223247   3.958   4.253  15.275  0.5338  0.6401  0.5653
  611TIP3    H123248   3.949   4.305  15.196  0.6391 -0.8669 -0.4607
  611TIP3    H223249   4.052   4.243  15.288  0.5140 -1.2882 -0.6042
  612TIP3   OH223250   1.056   1.969   0.516 -0.0419  0.3514  0.5391
  612TIP3    H123251   1.108   1.981   0.595 -0.3466 -1.5840  1.0562
  612TIP3    H223252   0.971   1.939   0.547 -0.6691  1.0748 -0.4420
  613TIP3   OH223253   3.669   2.473   6.268  0.2033 -0.2866 -0.0523
  613TIP3    H123254   3.638   2.563   6.272 -0.9557 -0.6252 -1.2229
  613TIP3    H223255   3.709   2.457   6.354 -0.3755  1.0496  0.4708
  614TIP3   OH223256   1.254   3.671  13.373  0.1739 -0.9329  0.0644
  614TIP3    H123257   1.317   3.720  13.320 -0.1774  0.5175  0.9623
  614TIP3    H223258   1.288   3.582  13.374  1.7066 -0.3671 -0.2517
  615TIP3   OH223259   5.274   4.139  13.209 -0.2602 -0.4182 -0.3599
  615TIP3    H123260   5.336   4.081  13.165  0.0410 -0.1113 -0.3417
  615TIP3    H223261   5.313   4.155  13.295 -0.2168  0.0264 -0.4639
  616TIP3   OH223262   0.854   4.544  15.996 -0.0032  0.1628 -0.7399
  616TIP3    H123263   0.908   4.496  16.059 -0.4966 -0.8658 -1.0810
  616TIP3    H223264   0.766   4.506  16.006 -0.2142  0.3968 -1.6289
  617TIP3   OH223265   2.311   4.084   0.083  0.3276 -0.6990 -0.2225
  617TIP3    H123266   2.289   4.170   0.047  1.4090 -0.0502  0.6216
  617TIP3    H223267   2.374   4.048   0.021  2.5738  0.6297  1.1792
  618TIP3   OH223268   2.199   2.107  15.215  0.6035  0.0405 -0.1275
  618TIP3    H123269   2.160   2.194  15.223 -0.6092 -0.4846 -0.2197
  618TIP3    H223270   2.152   2.054  15.279  0.5052 -0.8250 -0.9110
  619TIP3   OH223271   4.946   1.921   0.666  0.0797  0.1850 -0.4594
  619TIP3    H123272   4.853   1.946   0.662  0.5813  2.2919 -0.0054
  619TIP3    H223273   4.983   1.951   0.583  0.3531 -0.6471 -0.6387
  620TIP3   OH223274   4.647   4.773   5.275 -0.2415 -0.3802 -1.0298
  620TIP3    H123275   4.673   4.827   5.200  0.0569  1.1543  0.1485
  620TIP3    H223276   4.557   4.747   5.254 -1.0340  2.0232 -0.8807
  621TIP3   OH223277   3.400   1.466   5.854 -0.5822 -0.4379 -0.1892
  621TIP3    H123278   3.385   1.412   5.931 -0.1320  0.0285  0.2276
  621TIP3    H223279   3.400   1.404   5.781 -0.0260 -1.0034  0.2870
  622TIP3   OH223280   3.993   0.489   5.604 -0.3698  0.3982  0.4204
  622TIP3    H123281   4.057   0.560   5.613 -0.3778  0.4633 -0.0135
  622TIP3    H223282   4.023   0.422   5.665  2.1272 -1.0583 -2.2819
  623TIP3   OH223283   3.466   0.954   4.974  0.3159 -0.5411  0.4722
  623TIP3    H123284   3.405   1.016   4.934  1.8837  2.3420  2.3863
  623TIP3    H223285   3.423   0.927   5.056 -0.3747 -2.0733 -0.3659
  624TIP3   OH223286   2.940   6.757  14.172  0.1199 -0.2563  0.8560
  624TIP3    H123287   2.851   6.765  14.208 -0.5487  0.8284 -0.9514
  624TIP3    H223288   2.963   6.665  14.185 -1.9143 -0.9221 -0.0574
  625TIP3   OH223289   4.887   4.056  14.614 -0.3399 -0.6062 -0.0026
  625TIP3    H123290   4.874   4.136  14.564 -0.8458 -0.8295 -0.2352
  625TIP3    H223291   4.802   4.012  14.611 -0.1674 -0.9723  0.4328
  626TIP3   OH223292   2.735   6.421   2.530  0.2793  0.3211 -0.2901
  626TIP3    H123293   2.698   6.460   2.451 -1.1201  1.1787  0.7696
  626TIP3    H223294   2.744   6.328   2.510  0.0890  0.5643 -1.5053
  627TIP3   OH223295   1.667   3.558   1.846 -0.2158  0.0046  0.0819
  627TIP3    H123296   1.583   3.572   1.889 -0.0062 -0.5256  0.6761
  627TIP3    H223297   1.677   3.462   1.843  1.0454  0.0698  1.3830
  628TIP3   OH223298   2.287   3.006  13.788  0.8725 -0.2866  0.1620
  628TIP3    H123299   2.342   2.927  13.784 -0.9119 -1.5725  0.4031
  628TIP3    H223300   2.277   3.024  13.881  1.3825  0.3147  0.1039
  629TIP3   OH223301   4.162   2.906   5.219  0.2268 -0.0552 -0.0847
  629TIP3    H123302   4.098   2.897   5.148  0.5790  0.7748 -0.5129
  629TIP3    H223303   4.232   2.845   5.195 -0.2341 -0.7122  0.2092
  630TIP3   OH223304   0.679   4.370  12.057  0.0578 -0.1978  0.0165
  630TIP3    H123305   0.623   4.357  11.980  0.2658  2.8238 -0.7217
  630TIP3    H223306   0.768   4.368  12.023  0.3140 -1.9341  0.7106
  631TIP3   OH223307   3.704   0.469  13.177 -0.6906 -0.3971  0.1355
  631TIP3    H123308   3.773   0.403  13.188  0.0598  0.5600  1.3689
  631TIP3    H223309   3.703   0.516  13.261 -2.0514  0.3603 -0.2947
  632TIP3   OH223310   5.830   3.902   3.087 -0.1352 -0.3536 -0.1347
  632TIP3    H123311   5.816   3.928   2.996  0.2117  1.0602  0.1997
  632TIP3    H223312   5.870   3.815   3.082  0.3482 -0.0667 -1.3364
  633TIP3   OH223313   0.506   3.222  15.023  0.2055  0.3398 -0.5807
  633TIP3    H123314   0.429   3.169  15.044 -0.5670  1.1281 -1.4120
  633TIP3    H223315   0.496   3.302  15.074 -0.0201  0.8558 -1.4203
  634TIP3   OH223316   5.405   5.329  12.175  0.3708  0.2426 -0.0467
  634TIP3    H123317   5.391   5.306  12.083  0.3732 -0.8133  0.2059
  634TIP3    H223318   5.417   5.245  12.219  1.6840  0.8149  0.7051
  635TIP3   OH223319   2.480   6.011  16.195  0.2259  0.0276 -0.2682
  635TIP3    H123320   2.509   5.930  16.236 -0.7370  0.3102  1.0272
  635TIP3    H223321   2.496   6.078  16.261 -1.3153  0.5006 -0.3451
  636TIP3   OH223322   5.308   5.724  16.247 -0.3205  0.3810  0.1822
  636TIP3    H123323   5.336   5.724  16.155  1.7021  0.9878  0.7618
  636TIP3    H223324   5.309   5.632  16.273 -0.3310  0.2625 -0.2313
  637TIP3   OH223325   2.151   1.247  14.865 -0.3023  0.2359  0.5741
  637TIP3    H123326   2.078   1.193  14.833 -0.5458  0.4445  0.7704
  637TIP3    H223327   2.229   1.199  14.838 -0.5233 -0.7690  1.6672
  638TIP3   OH223328   0.807   1.418   4.143 -0.0642 -0.0108 -0.2446
  638TIP3    H123329   0.737   1.361   4.174 -0.9304  0.8360 -0.6269
  638TIP3    H223330   0.888   1.371   4.166 -0.6524  0.3719  2.9323
  639TIP3   OH223331   2.929   2.659   1.613  0.2894 -0.1055 -0.4351
  639TIP3    H123332   2.931   2.613   1.529  0.9910 -0.8565 -0.0147
  639TIP3    H223333   2.937   2.751   1.590  1.9865 -0.4016 -1.1161
  640TIP3   OH223334   6.446   5.236  15.175 -0.1734 -0.2429  0.0256
  640TIP3    H123335   6.503   5.166  15.204 -0.6785 -0.6406  0.0762
  640TIP3    H223336   6.504   5.300  15.135  0.1772 -1.2410 -1.0850
  641TIP3   OH223337   6.282   5.621  12.967 -0.4181 -0.2722  0.6878
  641TIP3    H123338   6.265   5.529  12.948  2.5218 -0.5207 -0.9654
  641TIP3    H223339   6.245   5.668  12.892  0.0052 -0.2667  0.4835
  642TIP3   OH223340   0.871   3.287   6.372  0.1138 -0.0095  0.6812
  642TIP3    H123341   0.959   3.266   6.404 -0.1324 -0.2073  1.2351
  642TIP3    H223342   0.837   3.204   6.339  0.0409  0.0156  0.6923
  643TIP3   OH223343   4.323   5.833  11.632  0.0959 -0.1034  0.3915
  643TIP3    H123344   4.380   5.875  11.567 -0.7199 -0.2054 -0.3939
  643TIP3    H223345   4.378   5.764  11.671  0.3194 -0.6060 -0.7904
  644TIP3   OH223346   1.837   0.178  14.937 -0.1234  0.2078 -0.2652
  644TIP3    H123347   1.892   0.100  14.929 -1.0944 -0.5070  0.0083
  644TIP3    H223348   1.896   0.245  14.972  0.2578 -0.9028  1.2841
  645TIP3   OH223349   4.047   4.070  14.281 -0.3432  0.3371 -0.4314
  645TIP3    H123350   4.015   4.087  14.370 -2.1640  1.2844 -1.2598
  645TIP3    H223351   3.997   3.994  14.252  0.3095 -0.0186 -0.6417
  646TIP3   OH223352   1.688   2.082  15.443 -0.3804 -0.0871 -0.5844
  646TIP3    H123353   1.761   2.043  15.395 -1.8129 -0.6798 -2.3761
  646TIP3    H223354   1.615   2.080  15.380 -2.2736 -0.7019  1.5554
  647TIP3   OH223355   5.156   6.576  12.759  0.0533 -0.0228  0.1429
  647TIP3    H123356   5.244   6.555  12.791 -0.7738 -0.1246  2.4247
  647TIP3    H223357   5.142   6.516  12.686  0.8773 -1.8064  1.4216
  648TIP3   OH223358   2.156   6.340   3.904  0.2991  0.1119 -0.7303
  648TIP3    H123359   2.159   6.359   3.811  1.3462 -0.4065 -0.7976
  648TIP3    H223360   2.179   6.248   3.912  0.2149  0.1469  0.0395
  649TIP3   OH223361   3.527   0.766   2.519  0.3865 -0.4208 -0.4790
  649TIP3    H123362   3.482   0.712   2.583 -1.0133 -0.6535 -1.6444
  649TIP3    H223363   3.602   0.802   2.566 -0.5286 -0.7276  1.2237
  650TIP3   OH223364   2.745   3.171  16.956 -0.4888  0.2263 -0.0382
  650TIP3    H123365   2.708   3.118  17.027  1.0831  1.5658  1.8722
  650TIP3    H223366   2.697   3.254  16.962 -0.8404  0.0929 -1.0222
  651TIP3   OH223367   4.130   3.008  14.592 -0.3209  0.2183 -0.0692
  651TIP3    H123368   4.047   3.030  14.550  0.2052  0.4326 -1.0122
  651TIP3    H223369   4.116   3.027  14.685 -0.8216  1.7888 -0.4493
  652TIP3   OH223370   4.328   6.277   0.351  0.1644  0.4979  0.3131
  652TIP3    H123371   4.332   6.373   0.359  1.7963  0.4985 -0.3046
  652TIP3    H223372   4.372   6.245   0.429 -0.4186  0.2437  0.5385
  653TIP3   OH223373   1.925   1.760   3.029  0.4797 -0.1092  0.2509
  653TIP3    H123374   1.994   1.804   2.980 -0.5834 -0.1388 -1.2872
  653TIP3    H223375   1.845   1.808   3.006 -0.0984 -0.3423  1.6865
  654TIP3   OH223376   4.280   2.806   1.579 -0.0600  1.1110  0.0335
  654TIP3    H123377   4.351   2.787   1.519 -1.1356 -1.1119 -0.5754
  654TIP3    H223378   4.207   2.752   1.548 -0.8179  0.3839  2.9289
  655TIP3   OH223379   3.695   2.540   4.079  0.0807  1.0402  0.2689
  655TIP3    H123380   3.702   2.634   4.095  0.3199  1.0724 -0.0241
  655TIP3    H223381   3.786   2.510   4.069  0.0759  0.5750  1.5399
  656TIP3   OH223382   0.319   2.448  14.753  0.2337  0.2166  0.1333
  656TIP3    H123383   0.359   2.392  14.819  0.1765 -1.6742 -1.3818
  656TIP3    H223384   0.391   2.470  14.694 -0.3095 -0.6133 -0.8529
  657TIP3   OH223385   2.566   0.173  14.745 -0.3003  0.3643 -0.1376
  657TIP3    H123386   2.597   0.082  14.741 -0.9323  0.0093  2.0625
  657TIP3    H223387   2.638   0.224  14.708 -0.2649 -1.0872 -2.1638
  658TIP3   OH223388   1.055   0.374   4.928  0.1538 -0.0406  0.1029
  658TIP3    H123389   1.034   0.315   5.000 -1.2568 -0.6193 -0.7471
  658TIP3    H223390   0.970   0.406   4.898  0.8277  1.4488 -0.2643
  659TIP3   OH223391   2.738   4.670   3.296  0.0710  0.1020 -0.2944
  659TIP3    H123392   2.711   4.732   3.364 -0.4359  0.0833 -0.4731
  659TIP3    H223393   2.826   4.644   3.321  0.8890  2.0527 -1.0496
  660TIP3   OH223394   0.578   3.036   0.661 -0.1770  0.2948  0.1532
  660TIP3    H123395   0.586   3.095   0.587  0.4392 -1.2436 -1.0354
  660TIP3    H223396   0.636   3.073   0.728  0.4871  0.8190 -0.7104
  661TIP3   OH223397   0.751   6.116   5.634  0.0266  0.0278  1.1083
  661TIP3    H123398   0.816   6.167   5.682 -0.0536 -0.1597  1.4174
  661TIP3    H223399   0.797   6.036   5.608  0.1636  0.2776  0.5898
  662TIP3   OH223400   5.989   2.190  10.962 -0.4291  0.4819  0.3102
  662TIP3    H123401   5.993   2.228  11.050 -0.3883 -2.2403  1.5044
  662TIP3    H223402   6.072   2.143  10.952 -0.3494  0.9141 -1.2806
  663TIP3   OH223403   6.053   4.195  11.491  0.3374 -0.1931  0.6445
  663TIP3    H123404   6.074   4.102  11.497 -1.4581 -0.6480  0.3282
  663TIP3    H223405   5.959   4.199  11.508  0.3396  1.5284  0.3355
  664TIP3   OH223406   4.727   4.748   1.405 -0.5807  0.0266  0.0661
  664TIP3    H123407   4.791   4.812   1.435 -1.0365  0.8479 -0.7031
  664TIP3    H223408   4.649   4.799   1.385 -1.6382 -1.0095  1.3978
  665TIP3   OH223409   5.071   3.622   3.746 -0.0672  0.5383  0.0356
  665TIP3    H123410   5.099   3.572   3.822 -0.2134  1.0953  0.4542
  665TIP3    H223411   4.982   3.649   3.766  0.2803  1.6071  0.1304
  666TIP3   OH223412   1.178   0.239   4.701 -0.2885  0.5664 -0.0288
  666TIP3    H123413   1.115   0.261   4.770  0.5718 -1.5656  1.4692
  666TIP3    H223414   1.124   0.199   4.632 -0.5530 -1.6623  1.4380
  667TIP3   OH223415   4.774   5.545   5.819  0.1269 -0.0889 -0.5853
  667TIP3    H123416   4.700   5.518   5.875  0.4946  0.6746  0.2776
  667TIP3    H223417   4.828   5.600   5.876  1.2910 -0.5278 -1.2568
  668TIP3   OH223418   2.166   1.106   3.982 -0.1176  0.0681 -0.4552
  668TIP3    H123419   2.214   1.107   3.899 -0.0681  0.6060 -0.4192
  668TIP3    H223420   2.231   1.127   4.048  0.0870 -1.4673 -0.1412
  669TIP3   OH223421   3.375   0.922   5.277  0.0456 -0.1814  0.1676
  669TIP3    H123422   3.384   0.832   5.309  0.2988 -0.1898  0.0761
  669TIP3    H223423   3.325   0.967   5.346  1.9231  0.1903  1.3325
  670TIP3   OH223424   3.558   1.509   2.744 -0.1810  0.0999  0.2408
  670TIP3    H123425   3.542   1.557   2.662  0.3074 -0.3998 -0.1534
  670TIP3    H223426   3.539   1.572   2.813  3.1971  1.8278 -0.2767
  671TIP3   OH223427   4.610   4.434  14.612 -0.4833 -0.1445 -0.1472
  671TIP3    H123428   4.538   4.459  14.554 -0.5613  1.3411  0.5647
  671TIP3    H223429   4.635   4.515  14.656  0.4727 -0.9852  0.9083
  672TIP3   OH223430   0.452   5.043   5.842  0.0919 -0.4914 -0.7113
  672TIP3    H123431   0.393   5.081   5.907  0.1229 -0.9963 -0.3916
  672TIP3    H223432   0.530   5.019   5.891  0.3248 -0.3929 -1.0289
  673TIP3   OH223433   3.196   1.051  14.082 -0.1738 -0.1898 -0.0617
  673TIP3    H123434   3.111   1.070  14.123 -1.1050 -1.6772 -1.2431
  673TIP3    H223435   3.179   0.975  14.026  1.8055 -0.1221 -0.7884
  674TIP3   OH223436   3.376   0.333  16.316  0.3818  0.0648  0.0357
  674TIP3    H123437   3.469   0.314  16.304 -0.0791 -1.1643 -1.9093
  674TIP3    H223438   3.348   0.277  16.388  0.5640 -1.6912 -1.2069
  675TIP3   OH223439   3.307   1.101   3.660  0.0903  0.0807  0.2735
  675TIP3    H123440   3.258   1.071   3.583  2.6088 -1.0476 -0.9362
  675TIP3    H223441   3.294   1.196   3.661 -0.6965 -0.0007 -1.0097
  676TIP3   OH223442   6.326   4.371   5.631 -0.0785  0.5310 -0.4561
  676TIP3    H123443   6.312   4.432   5.704  0.5561 -0.6701  0.6896
  676TIP3    H223444   6.347   4.427   5.556 -0.2019  1.7500  0.4072
  677TIP3   OH223445   1.959   3.002   4.027 -0.0531  0.0467  0.2513
  677TIP3    H123446   1.872   3.042   4.026  0.3764  1.0360 -2.6711
  677TIP3    H223447   1.945   2.915   3.990  0.2412  0.3221 -0.5135
  678TIP3   OH223448   2.071   4.081  15.874  0.0369 -0.2815 -0.0186
  678TIP3    H123449   2.115   4.117  15.951 -0.1283  0.6159 -0.3470
  678TIP3    H223450   2.014   4.151  15.843 -0.3715 -0.8604 -0.5906
  679TIP3   OH223451   0.942   6.085   4.745  0.0914  0.4903  0.2516
  679TIP3    H123452   1.022   6.121   4.706  0.2360 -1.3080 -1.2011
  679TIP3    H223453   0.959   6.086   4.840  1.7959  0.2575 -0.0393
  680TIP3   OH223454   1.400   0.991  13.795 -0.4896 -0.1620  0.1380
  680TIP3    H123455   1.390   0.899  13.819  1.1123 -0.1433  0.9147
  680TIP3    H223456   1.361   0.997  13.708 -2.6828 -1.0813  1.0114
  681TIP3   OH223457   2.780   2.773   3.606 -0.6454 -0.1968 -0.6760
  681TIP3    H123458   2.839   2.804   3.538 -1.8025  0.4730 -1.3996
  681TIP3    H223459   2.747   2.689   3.574 -0.7016 -0.1819 -0.6584
  682TIP3   OH223460   6.165   2.874   1.244 -0.2546 -0.3680 -0.2738
  682TIP3    H123461   6.144   2.790   1.284 -0.1634 -0.4191 -0.3319
  682TIP3    H223462   6.256   2.890   1.269 -0.5698  0.1727  0.5383
  683TIP3   OH223463   1.081   2.198   5.714 -0.0461 -0.4299 -0.2495
  683TIP3    H123464   1.176   2.207   5.718 -0.0351 -0.5489 -0.2578
  683TIP3    H223465   1.064   2.149   5.633 -0.1744  0.4815 -0.7840
  684TIP3   OH223466   0.197   4.666  11.634  0.0107  0.1356  0.1832
  684TIP3    H123467   0.129   4.726  11.603  1.4011  1.5161 -0.2960
  684TIP3    H223468   0.165   4.579  11.610 -0.7918  0.8856 -1.5947
  685TIP3   OH223469   6.465   1.314   0.905  0.2894  0.1594  0.0125
  685TIP3    H123470   6.516   1.250   0.954  0.9306  0.4084 -0.3231
  685TIP3    H223471   6.451   1.274   0.819  0.4916  0.3629 -0.1184
  686TIP3   OH223472   2.258   0.089  16.496  0.2171 -0.2883  0.0751
  686TIP3    H123473   2.298   0.003  16.497  0.0794 -0.3472  0.3816
  686TIP3    H223474   2.332   0.150  16.486  0.4642 -0.3429  1.5557
  687TIP3   OH223475   1.546   6.089  16.499 -0.3117 -0.3935 -0.0066
  687TIP3    H123476   1.580   6.148  16.567  1.5061 -2.3082  0.8006
  687TIP3    H223477   1.591   6.118  16.419  1.1074 -1.0961  0.5182
  688TIP3   OH223478   6.258   3.677  13.510  0.3091 -0.3547  0.0651
  688TIP3    H123479   6.253   3.712  13.421 -1.0953 -1.4160 -0.2975
  688TIP3    H223480   6.348   3.647  13.519  0.5874  0.1992 -0.8297
  689TIP3   OH223481   6.388   1.175   1.613  0.2541 -0.6192  0.0685
  689TIP3    H123482   6.466   1.229   1.622  0.6858 -1.3321  0.7429
  689TIP3    H223483   6.394   1.112   1.685  0.5466 -2.5033 -1.5346
  690TIP3   OH223484   1.241   6.035   3.110  0.7564  0.0436  0.1369
  690TIP3    H123485   1.303   6.108   3.104  0.7307  0.0205 -0.5059
  690TIP3    H223486   1.268   5.975   3.040  1.1246 -0.8366  1.0267
  691TIP3   OH223487   1.680   6.402  11.419 -0.1237 -0.2239  0.3441
  691TIP3    H123488   1.716   6.475  11.368  0.2594 -1.6373 -1.4639
  691TIP3    H223489   1.595   6.385  11.379  0.1130 -1.2468  0.2749
  692TIP3   OH223490   2.121   3.219  14.293 -0.2808  0.0086 -0.4284
  692TIP3    H123491   2.127   3.269  14.375 -0.1157 -1.7770  0.6672
  692TIP3    H223492   2.037   3.173  14.299  0.2314 -0.9797 -0.7590
  693TIP3   OH223493   0.705   2.940   3.796  0.1757  0.1113  0.3652
  693TIP3    H123494   0.632   2.887   3.762  1.4768 -0.6377 -1.3018
  693TIP3    H223495   0.723   3.003   3.726 -0.2792  1.7583  1.6723
  694TIP3   OH223496   1.894   2.481   1.195  0.3823 -0.1950  0.0751
  694TIP3    H123497   1.865   2.571   1.210 -1.5074 -0.7175 -0.2175
  694TIP3    H223498   1.824   2.443   1.142 -0.1091 -2.5514  2.2873
  695TIP3   OH223499   2.162   3.415   2.288 -0.2237 -0.1588  0.2944
  695TIP3    H123500   2.226   3.433   2.219 -0.4905  1.0396  0.3494
  695TIP3    H223501   2.089   3.373   2.244 -1.4390  2.7833 -0.5865
  696TIP3   OH223502   0.109   5.581  10.731 -0.0472 -0.7539 -0.0821
  696TIP3    H123503   0.036   5.642  10.743  0.7306 -0.2816  2.6388
  696TIP3    H223504   0.069   5.495  10.740 -0.5366 -0.5513 -0.2727
  697TIP3   OH223505   0.597   6.135  13.573  0.1654  0.5162  0.2571
  697TIP3    H123506   0.596   6.213  13.518  1.7445 -1.0553 -2.1027
  697TIP3    H223507   0.551   6.069  13.521  1.0436 -0.8038  1.1322
  698TIP3   OH223508   5.720   5.898   3.108 -0.0965  0.2948  0.5562
  698TIP3    H123509   5.759   5.828   3.055  1.7123  3.5721 -2.6385
  698TIP3    H223510   5.788   5.920   3.172  0.1070  0.5141  0.2631
  699TIP3   OH223511   5.774   5.028   2.822  0.1518  0.4381 -0.3648
  699TIP3    H123512   5.814   4.952   2.863  0.2961  0.7272  0.0252
  699TIP3    H223513   5.846   5.074   2.780 -0.0509 -0.0647 -1.2770
  700TIP3   OH223514   0.066   3.774   4.820  0.0603  0.6039 -0.1518
  700TIP3    H123515  -0.007   3.744   4.874 -0.6362  2.5004  0.0083
  700TIP3    H223516   0.132   3.704   4.827  0.2131  1.0153  3.5991
  701TIP3   OH223517   3.627   0.818  14.449  0.1475 -0.5700 -0.0448
  701TIP3    H123518   3.720   0.838  14.434 -0.1274  0.9955  0.2618
  701TIP3    H223519   3.586   0.833  14.364 -0.2890  1.5687  0.5293
  702TIP3   OH223520   2.510   6.334  12.771  0.0674 -0.2407  0.4069
  702TIP3    H123521   2.559   6.349  12.851  1.2332 -1.4192 -0.0714
  702TIP3    H223522   2.514   6.418  12.724  1.8185 -0.3991  0.2691
  703TIP3   OH223523   5.670   2.219   4.973  0.2478  0.2400  0.4132
  703TIP3    H123524   5.595   2.188   4.922 -0.0956 -1.5372  1.9658
  703TIP3    H223525   5.639   2.219   5.064  1.6507  0.9850  0.9064
  704TIP3   OH223526   4.461   3.757   5.079  0.3905  0.0945 -0.3239
  704TIP3    H123527   4.526   3.689   5.095  0.0674 -0.3952 -1.0682
  704TIP3    H223528   4.506   3.839   5.101  0.5323 -0.4119  1.3373
  705TIP3   OH223529   2.362   6.375   0.200 -0.0213 -0.1563  0.2079
  705TIP3    H123530   2.297   6.411   0.140  0.1345 -1.3389 -0.6744
  705TIP3    H223531   2.323   6.294   0.232  1.1264 -1.0145 -0.5361
  706TIP3   OH223532   2.777   6.771  11.316 -0.3187 -0.1842 -0.0788
  706TIP3    H123533   2.809   6.785  11.226  1.0730 -1.6800  0.1616
  706TIP3    H223534   2.789   6.855  11.359  1.6362 -0.2301 -0.5119
  707TIP3   OH223535   4.376   6.455  15.168  0.6132  0.1932 -0.1983
  707TIP3    H123536   4.387   6.381  15.109  1.0947  0.5193 -0.5197
  707TIP3    H223537   4.432   6.524  15.132  0.2170  0.6971  0.1312
  708TIP3   OH223538   4.325   3.835  16.622 -0.0304 -0.1969  0.1707
  708TIP3    H123539   4.249   3.890  16.640  0.5844  0.2695  1.4585
  708TIP3    H223540   4.400   3.895  16.623  0.4265 -0.7487 -0.3823
  709TIP3   OH223541   0.534   6.450  11.707  0.0487  0.5003  0.3290
  709TIP3    H123542   0.587   6.453  11.787  0.5172  0.3232  0.0251
  709TIP3    H223543   0.572   6.516  11.650 -0.2349  0.5700  0.2213
  710TIP3   OH223544   1.143   1.036  14.515 -0.1926  0.1594  0.0230
  710TIP3    H123545   1.194   1.042  14.595  1.2277 -2.1672 -0.6569
  710TIP3    H223546   1.188   1.093  14.453 -0.8545  1.3618  0.6326
  711TIP3   OH223547   4.895   5.509  15.910 -0.5743 -0.0282  0.4301
  711TIP3    H123548   4.867   5.597  15.936 -1.1947  0.6994 -2.4268
  711TIP3    H223549   4.973   5.492  15.963  0.1040  2.6530  0.3743
  712TIP3   OH223550   4.553   5.890   4.441 -0.0376 -0.4560 -0.1358
  712TIP3    H123551   4.628   5.940   4.471 -0.3941  0.0729 -0.1259
  712TIP3    H223552   4.587   5.835   4.371  0.2450  0.1670 -0.4897
  713TIP3   OH223553   0.646   1.402  16.835  0.0966  0.4665  0.1801
  713TIP3    H123554   0.624   1.383  16.926 -1.1073  2.0284  0.2316
  713TIP3    H223555   0.660   1.497  16.833  1.0604  0.3140 -1.0715
  714TIP3   OH223556   6.427   6.528   0.307 -0.2034 -0.4504 -0.5387
  714TIP3    H123557   6.488   6.602   0.308  0.7251 -1.2125 -0.2930
  714TIP3    H223558   6.455   6.475   0.233  1.1793 -2.2410  1.2273
  715TIP3   OH223559   4.324   3.314   0.401 -0.0770  0.0777 -0.6800
  715TIP3    H123560   4.319   3.242   0.463 -1.5135  0.6922 -0.0511
  715TIP3    H223561   4.400   3.294   0.346  0.2235 -1.3061  0.2242
  716TIP3   OH223562   0.779   4.975  14.673  0.0305 -0.2737  0.0426
  716TIP3    H123563   0.707   5.020  14.717 -0.8740 -0.3691 -1.3020
  716TIP3    H223564   0.843   5.043  14.654  0.7303 -0.3411  2.0710
  717TIP3   OH223565   6.065   3.001   3.174  0.2564  0.1270  0.0825
  717TIP3    H123566   6.027   2.988   3.261 -2.1632  3.4233 -0.3548
  717TIP3    H223567   6.159   2.997   3.189 -0.1148 -0.2710  2.6987
  718TIP3   OH223568   3.155   3.469   5.734  0.8242 -0.1663 -0.0191
  718TIP3    H123569   3.192   3.381   5.722  1.1400 -0.1775  0.9932
  718TIP3    H223570   3.082   3.456   5.794 -0.2915 -0.0034 -1.3137
  719TIP3   OH223571   5.855   1.413  16.186  0.6068  0.3938 -0.5131
  719TIP3    H123572   5.857   1.321  16.209  0.3931  0.2357 -1.1183
  719TIP3    H223573   5.860   1.459  16.269 -0.8454 -0.1718 -0.1072
  720TIP3   OH223574   4.960   5.630  14.118  0.1220 -0.2767 -0.1581
  720TIP3    H123575   4.905   5.679  14.180 -0.2711  0.2716 -0.9276
  720TIP3    H223576   4.946   5.674  14.034  1.6675 -0.1886 -0.3845
  721TIP3   OH223577   3.945   3.204  15.026 -0.2577  0.0424 -0.1972
  721TIP3    H123578   3.850   3.215  15.032 -0.4892 -0.5409 -2.4361
  721TIP3    H223579   3.966   3.145  15.099 -1.5992  0.1872  0.3377
  722TIP3   OH223580   2.690   2.168   3.600  0.0782  0.2172 -0.3075
  722TIP3    H123581   2.681   2.121   3.683 -1.7285  1.9019  0.4982
  722TIP3    H223582   2.600   2.185   3.572  0.6875  1.9008 -1.2912
  723TIP3   OH223583   6.202   1.500  16.064 -0.8739  0.4677  0.7514
  723TIP3    H123584   6.235   1.495  15.974 -0.6006 -0.7424  0.9165
  723TIP3    H223585   6.110   1.527  16.054 -1.2389 -0.9949  0.0287
  724TIP3   OH223586   0.308   1.416  14.066  0.5544  0.3851  0.0984
  724TIP3    H123587   0.387   1.451  14.025  0.7014  0.2388  0.2564
  724TIP3    H223588   0.276   1.350  14.005  1.3555 -0.5749  0.7024
  725TIP3   OH223589   1.560   3.064  11.080 -0.2021 -0.1018 -0.9681
  725TIP3    H123590   1.597   3.145  11.044  0.2469 -0.5407 -1.5126
  725TIP3    H223591   1.509   3.026  11.008 -0.9469  0.0202 -0.5141
  726TIP3   OH223592   6.054   6.385   0.457  0.3912  0.3105  0.1739
  726TIP3    H123593   6.086   6.295   0.464  1.0073  0.5666  0.7275
  726TIP3    H223594   6.132   6.439   0.472 -0.1185  0.9373  0.6023
  727TIP3   OH223595   0.366   5.213   1.901  0.3526  0.5193 -0.2597
  727TIP3    H123596   0.420   5.285   1.932  0.3879 -0.7556  2.8457
  727TIP3    H223597   0.427   5.139   1.893 -0.3098 -0.0784  0.1209
  728TIP3   OH223598   4.090   0.290  16.993 -0.0963 -0.8218 -0.8006
  728TIP3    H123599   4.074   0.218  17.054  0.9589  0.1338  0.6593
  728TIP3    H223600   4.152   0.346  17.040 -0.0659  0.4601 -2.3624
  729TIP3   OH223601   0.571   2.398   5.080  0.3831  0.5554  0.3210
  729TIP3    H123602   0.563   2.432   5.170 -0.2173  1.1645  0.0395
  729TIP3    H223603   0.639   2.330   5.087 -1.7097 -1.4598  1.8191
  730TIP3   OH223604   2.326   3.860   5.036 -0.1225 -0.2458 -0.3860
  730TIP3    H123605   2.417   3.889   5.028  0.4017 -1.0150  2.4116
  730TIP3    H223606   2.309   3.813   4.954  1.6783  0.6831 -1.3272
  731TIP3   OH223607   6.008   4.741  16.139 -0.4466 -0.0226 -0.0153
  731TIP3    H123608   6.024   4.832  16.115  0.2796 -0.4493 -1.2392
  731TIP3    H223609   5.997   4.696  16.055 -0.3709 -1.1369  0.5582
  732TIP3   OH223610   4.891   4.668  13.752 -0.3819 -0.5951 -0.2187
  732TIP3    H123611   4.966   4.615  13.778 -1.2338 -1.9894 -0.5668
  732TIP3    H223612   4.825   4.650  13.818 -0.8806 -0.4286 -0.6665
  733TIP3   OH223613   5.331   3.788   1.566 -0.2085  0.0660 -0.0590
  733TIP3    H123614   5.257   3.751   1.614 -0.1684  0.5682  0.4005
  733TIP3    H223615   5.297   3.807   1.479 -0.3019 -0.7881 -0.2039
  734TIP3   OH223616   5.534   5.022   3.970  0.1839  0.1240  0.3085
  734TIP3    H123617   5.562   4.947   3.918 -0.4615  0.1012  0.0006
  734TIP3    H223618   5.439   5.018   3.970  0.1619  0.4974  0.9447
  735TIP3   OH223619   2.950   0.644   0.636 -0.0945 -0.3645 -0.0069
  735TIP3    H123620   2.888   0.663   0.566 -0.7636 -3.3317 -0.2674
  735TIP3    H223621   3.035   0.671   0.601 -0.5658 -0.8469 -1.5630
  736TIP3   OH223622   4.547   6.391  13.759 -0.1610 -0.1347 -0.8492
  736TIP3    H123623   4.532   6.345  13.676  2.5350 -1.1903 -0.7879
  736TIP3    H223624   4.633   6.431  13.749  0.8369 -1.4523  1.9707
  737TIP3   OH223625   5.014   5.497   3.461 -0.3462 -0.8290 -0.0834
  737TIP3    H123626   5.088   5.439   3.478  0.1632 -0.0715  0.3116
  737TIP3    H223627   4.953   5.444   3.410  0.6065 -1.3689 -0.6768
  738TIP3   OH223628   0.044   1.146   0.802  0.2007  0.1977  0.0569
  738TIP3    H123629   0.077   1.078   0.743 -0.9983 -0.0469 -0.3471
  738TIP3    H223630   0.122   1.181   0.845  0.8167 -1.5940  0.4413
  739TIP3   OH223631   0.796   3.739  16.914 -0.9643 -0.3377  0.4521
  739TIP3    H123632   0.807   3.768  16.824 -0.2094 -1.3442  0.2092
  739TIP3    H223633   0.877   3.764  16.958 -0.7402 -1.1334  0.4983
  740TIP3   OH223634   0.135   6.331   3.101  0.0044 -0.3957 -0.0280
  740TIP3    H123635   0.075   6.356   3.171  1.0746  0.9109  0.4409
  740TIP3    H223636   0.222   6.348   3.137  0.5817 -0.2092 -1.4855
  741TIP3   OH223637   0.949   5.867  11.864  0.1962  0.8455  0.4267
  741TIP3    H123638   1.027   5.899  11.909  0.6258  0.7424 -0.2444
  741TIP3    H223639   0.977   5.849  11.775 -0.2827 -0.3880  0.4998
  742TIP3   OH223640   4.693   5.267  13.339  0.1450  0.1023  0.5307
  742TIP3    H123641   4.767   5.300  13.390 -0.4200 -0.2719  1.6098
  742TIP3    H223642   4.711   5.173  13.330 -0.7483 -0.2075  1.7753
  743TIP3   OH223643   0.531   6.239   2.054  0.0086  0.6392 -0.3170
  743TIP3    H123644   0.618   6.214   2.022 -0.0692 -1.2566  0.8674
  743TIP3    H223645   0.493   6.157   2.085 -2.1373  1.4913 -0.6537
  744TIP3   OH223646   0.407   2.910  12.951  0.0983 -0.2920 -0.1665
  744TIP3    H123647   0.484   2.854  12.956 -0.3508 -1.0674 -1.6605
  744TIP3    H223648   0.416   2.956  12.868 -0.5014  0.4210  0.1597
  745TIP3   OH223649   1.347   3.149  13.354  0.5387  0.3706 -0.5929
  745TIP3    H123650   1.254   3.163  13.374  1.0687  2.3003  0.5444
  745TIP3    H223651   1.365   3.061  13.388 -0.7137  0.2338 -0.2521
  746TIP3   OH223652   3.359   6.552   6.057  0.3898 -0.3038 -0.9322
  746TIP3    H123653   3.296   6.604   6.107  1.4072 -0.3633  0.4442
  746TIP3    H223654   3.352   6.464   6.094  1.8772 -0.1194 -0.1906
  747TIP3   OH223655   3.669   0.918  11.560  0.4006  0.0695  0.0842
  747TIP3    H123656   3.758   0.949  11.550 -0.0469  2.1401  2.2579
  747TIP3    H223657   3.674   0.851  11.629  0.0865  1.1078  1.1259
  748TIP3   OH223658   1.808   0.554  16.524 -0.2085 -0.0592  0.2194
  748TIP3    H123659   1.787   0.479  16.580 -0.2261 -0.4151 -0.2567
  748TIP3    H223660   1.903   0.551  16.516 -0.2690 -0.4853 -0.4141
  749TIP3   OH223661   3.745   0.083   1.125 -0.1471 -0.0424 -0.3391
  749TIP3    H123662   3.801   0.123   1.191 -0.1418  0.7920 -0.8489
  749TIP3    H223663   3.807   0.042   1.063 -0.0491  1.8486 -1.5211
  750TIP3   OH223664   2.070   5.435  15.882  0.4731  0.1964  0.0755
  750TIP3    H123665   1.990   5.399  15.844  0.5682 -0.4285  0.4519
  750TIP3    H223666   2.041   5.476  15.964  0.3222  1.2307 -0.4881
  751TIP3   OH223667   2.693   3.088   5.939 -0.3764  0.0959 -0.5406
  751TIP3    H123668   2.679   3.141   5.862  0.7887  0.0634 -0.7967
  751TIP3    H223669   2.636   3.125   6.006  0.0974  1.3767 -0.8448
  752TIP3   OH223670   1.638   0.829   0.152 -0.1906 -0.2617 -0.1859
  752TIP3    H123671   1.609   0.865   0.068 -1.7415 -2.0517 -0.4471
  752TIP3    H223672   1.695   0.757   0.128  1.6555  0.9813  0.3385
  753TIP3   OH223673   2.638   2.601  14.337 -0.2896 -0.4763  0.4842
  753TIP3    H123674   2.604   2.584  14.425  0.3592 -1.1174  0.6198
  753TIP3    H223675   2.733   2.611  14.350 -0.1366 -1.0216 -0.2054
  754TIP3   OH223676   6.773   2.510  15.105  0.0438  0.3544 -0.4057
  754TIP3    H123677   6.792   2.590  15.055 -0.5128 -0.8329 -2.6086
  754TIP3    H223678   6.721   2.540  15.180 -0.7688  1.9875 -1.5817
  755TIP3   OH223679   6.752   4.274   3.614 -0.0193  0.3514  0.2384
  755TIP3    H123680   6.723   4.363   3.595  1.0201  0.4786 -0.7656
  755TIP3    H223681   6.719   4.257   3.703 -1.9652  0.9891 -0.3219
  756TIP3   OH223682   3.779   0.072  14.419  0.3152 -0.0941 -0.0168
  756TIP3    H123683   3.826   0.155  14.416 -1.6509  1.0069 -3.4863
  756TIP3    H223684   3.734   0.072  14.503  0.2176  2.4315 -0.0309
  757TIP3   OH223685   3.343   0.000   5.277  0.2141  0.2265 -0.6633
  757TIP3    H123686   3.312   0.033   5.193  1.2103  1.3774 -0.5927
  757TIP3    H223687   3.378  -0.086   5.258 -1.9087 -0.6129 -0.9621
  758TIP3   OH223688   3.148   0.582   1.441  0.3560 -0.1006  0.1235
  758TIP3    H123689   3.133   0.676   1.435 -0.1695  0.0163  2.7019
  758TIP3    H223690   3.190   0.559   1.358 -0.0189  2.2932 -0.7707
  759TIP3   OH223691   6.072   4.090  13.333  0.6001  0.0561 -0.2825
  759TIP3    H123692   6.052   4.102  13.240 -0.6566 -1.0147 -0.1623
  759TIP3    H223693   6.052   3.999  13.351 -0.7469  0.6516  1.4164
  760TIP3   OH223694   1.361   1.372  12.774 -0.7241 -0.4886  0.0879
  760TIP3    H123695   1.422   1.330  12.834 -0.0834  0.7998  0.3488
  760TIP3    H223696   1.408   1.379  12.691 -0.4942  0.5122  0.2909
  761TIP3   OH223697   0.349   2.147   4.647  0.1397  0.0628  0.4454
  761TIP3    H123698   0.359   2.213   4.579  0.3352 -0.6995 -0.2680
  761TIP3    H223699   0.296   2.191   4.715  0.9749  1.2251  0.3641
  762TIP3   OH223700   0.383   1.998  15.597  0.1604  0.0211 -0.3061
  762TIP3    H123701   0.446   2.067  15.579  0.0026  0.1723 -0.2778
  762TIP3    H223702   0.355   1.968  15.510  1.1309 -0.8311 -0.3193
  763TIP3   OH223703   4.592   2.726  14.432  0.6179 -0.2255 -0.3965
  763TIP3    H123704   4.633   2.664  14.492  1.1160  0.9991  0.5523
  763TIP3    H223705   4.530   2.673  14.381  2.2622 -1.7975 -0.7932
  764TIP3   OH223706   2.581   1.434   4.458  0.1385  0.2636 -0.0518
  764TIP3    H123707   2.674   1.431   4.476  0.1496  0.6375 -0.0461
  764TIP3    H223708   2.574   1.422   4.363  0.1446 -0.5582  0.0483
  765TIP3   OH223709   0.115   1.038   2.840 -0.0716  0.5093  0.6319
  765TIP3    H123710   0.109   1.069   2.749  0.5514 -1.9864 -0.3214
  765TIP3    H223711   0.035   1.070   2.881 -0.6841  1.1504 -0.9934
  766TIP3   OH223712   5.010   0.928  12.557 -0.4369 -0.3848 -0.0200
  766TIP3    H123713   5.082   0.904  12.616  0.0182 -1.8849 -1.1558
  766TIP3    H223714   4.973   0.844  12.530 -2.4644  0.3559  0.3426
  767TIP3   OH223715   6.515   0.861   3.707  0.5814  0.3317 -0.0118
  767TIP3    H123716   6.448   0.875   3.773  0.0903 -1.0406 -0.2088
  767TIP3    H223717   6.597   0.887   3.749  0.1058  0.7185  0.6782
  768TIP3   OH223718   4.644   6.388   6.294 -0.4033 -0.2014 -0.1954
  768TIP3    H123719   4.725   6.351   6.329 -0.7943 -2.1771 -1.3478
  768TIP3    H223720   4.579   6.370   6.361 -0.4736 -1.1026 -0.5047
  769TIP3   OH223721   2.960   5.482  11.414  0.4067  0.4812 -0.6188
  769TIP3    H123722   2.872   5.445  11.422  0.4629  0.0888 -1.8059
  769TIP3    H223723   2.961   5.555  11.477 -0.4010 -0.1841  0.1865
  770TIP3   OH223724   5.440   5.938  16.603  0.7461 -0.1478 -0.1458
  770TIP3    H123725   5.512   5.966  16.660  0.4655  1.3836 -0.5013
  770TIP3    H223726   5.423   5.847  16.628  2.2639 -0.2719  0.4962
  771TIP3   OH223727   1.504   1.657  17.092  0.3804  0.4592 -0.0571
  771TIP3    H123728   1.574   1.607  17.135 -0.0101  0.6250  0.7768
  771TIP3    H223729   1.531   1.662  17.001 -0.1631 -2.2784 -0.3903
  772TIP3   OH223730   3.964   4.194  12.025  0.3592 -0.2738 -0.1228
  772TIP3    H123731   3.965   4.260  12.093 -1.1417  0.5542 -0.8827
  772TIP3    H223732   3.891   4.137  12.048 -0.4376  0.2672 -1.2608
  773TIP3   OH223733   1.696   5.972  17.222 -0.1769  0.0879 -0.5780
  773TIP3    H123734   1.635   5.987  17.150 -1.0209  2.7147  0.5993
  773TIP3    H223735   1.781   5.997  17.186 -0.6561  1.8045 -0.5672
  774TIP3   OH223736   6.365   1.459   0.566  1.0907 -0.0591 -0.0624
  774TIP3    H123737   6.339   1.372   0.595 -2.1777  1.4567  1.7942
  774TIP3    H223738   6.389   1.505   0.646 -0.3867  1.7459 -0.6145
  775TIP3   OH223739   1.779   2.191   1.642 -0.0786 -0.3603  0.6453
  775TIP3    H123740   1.719   2.195   1.717  0.3506  1.5477  0.9186
  775TIP3    H223741   1.865   2.211   1.679  0.2648 -0.2386 -0.2138
  776TIP3   OH223742   4.731   0.294  12.908 -0.2108  0.8648  0.7808
  776TIP3    H123743   4.768   0.258  12.827  0.8582  0.4017  1.4572
  776TIP3    H223744   4.716   0.387  12.888 -0.6942  0.5904 -0.1893
  777TIP3   OH223745   4.463   2.463  11.987 -0.6723  0.1029 -0.3745
  777TIP3    H123746   4.485   2.534  11.927  0.0088  1.3310  1.3072
  777TIP3    H223747   4.546   2.437  12.025 -0.8952 -1.7349 -1.1037
  778TIP3   OH223748   4.079   3.879   3.997  0.1657  0.1923  0.0027
  778TIP3    H123749   4.116   3.844   4.079  1.4340  0.3805 -0.4742
  778TIP3    H223750   4.013   3.942   4.025 -0.2923 -0.6705  0.8794
  779TIP3   OH223751   2.103   1.467  14.633 -0.4347  0.0622  0.8148
  779TIP3    H123752   2.117   1.538  14.695 -3.0991 -0.5474  2.2116
  779TIP3    H223753   2.157   1.395  14.665  0.9369  0.8834  0.3765
  780TIP3   OH223754   3.938   3.411   4.144  0.0984 -0.3211 -0.2709
  780TIP3    H123755   3.871   3.422   4.212  0.4738  0.8614 -0.0670
  780TIP3    H223756   3.906   3.341   4.089 -1.0951 -0.0604  0.0847
  781TIP3   OH223757   2.831   2.230  11.297  0.3025 -0.3862  0.6950
  781TIP3    H123758   2.895   2.163  11.273 -2.5690 -2.6589 -0.9022
  781TIP3    H223759   2.755   2.180  11.328 -0.5575  2.2482  3.0005
  782TIP3   OH223760   0.473   2.180   0.597 -0.0467 -0.6055 -0.2694
  782TIP3    H123761   0.386   2.197   0.561 -0.4975 -1.3973  0.4277
  782TIP3    H223762   0.480   2.084   0.598  0.9354 -0.5362 -0.5742
  783TIP3   OH223763   1.658   1.357  11.750  0.3647  0.3585 -0.3476
  783TIP3    H123764   1.674   1.331  11.841 -1.0219 -0.1467 -0.2300
  783TIP3    H223765   1.689   1.284  11.698  1.9944  1.0278 -0.3402
  784TIP3   OH223766   6.002   6.526   3.987 -0.5156 -0.0800 -0.7553
  784TIP3    H123767   5.962   6.441   4.003  0.9975 -0.4349  1.3902
  784TIP3    H223768   5.953   6.586   4.044  1.5854 -0.4297  1.4976
  785TIP3   OH223769   4.626   3.996  12.626  0.3995 -0.5746  0.4839
  785TIP3    H123770   4.591   3.970  12.541  1.7653 -2.2182  0.3940
  785TIP3    H223771   4.651   4.088  12.615 -2.5373  0.2556  0.1626
  786TIP3   OH223772   0.226   1.960   3.230  0.2872 -0.7539  0.1128
  786TIP3    H123773   0.138   1.948   3.265 -0.0244 -1.7049 -0.9810
  786TIP3    H223774   0.266   1.873   3.232  0.7385 -0.5765 -0.5981
  787TIP3   OH223775   5.026   2.830   3.690  0.2365  0.4559  0.1347
  787TIP3    H123776   5.083   2.777   3.635 -1.5751 -0.3910 -0.9871
  787TIP3    H223777   5.012   2.777   3.769  1.7665  1.1017  0.8685
  788TIP3   OH223778   0.955   5.645   0.129  0.1957  0.1334  0.1316
  788TIP3    H123779   1.015   5.575   0.104  0.5095 -0.2846  1.9440
  788TIP3    H223780   0.868   5.607   0.122  0.4569 -1.2577  3.3389
  789TIP3   OH223781   4.898   2.116  13.082  0.0051  0.5247 -0.1327
  789TIP3    H123782   4.869   2.026  13.099  1.7165  0.2970  1.7101
  789TIP3    H223783   4.835   2.150  13.018 -1.7635 -1.3576  0.5784
  790TIP3   OH223784   1.592   5.287  12.973  0.6793  0.1870 -0.4364
  790TIP3    H123785   1.645   5.246  12.905  0.1839  4.2111 -3.4608
  790TIP3    H223786   1.639   5.367  12.996 -0.1123 -0.1577  2.6976
  791TIP3   OH223787   2.773   2.672  14.729  0.8227  0.0243 -0.2422
  791TIP3    H123788   2.686   2.646  14.699  0.2523 -1.2236  2.4059
  791TIP3    H223789   2.799   2.742  14.668 -2.2595  0.8353 -0.7047
  792TIP3   OH223790   0.476   5.293   4.820 -0.0980  0.2875  0.4644
  792TIP3    H123791   0.389   5.277   4.855 -0.2039  1.2091  0.6411
  792TIP3    H223792   0.496   5.383   4.845  0.3063  0.5769 -0.8296
  793TIP3   OH223793   2.957   0.977  16.439 -0.8450  0.5007 -0.1258
  793TIP3    H123794   2.996   1.056  16.403  0.5987  0.5873  1.5760
  793TIP3    H223795   2.922   0.931  16.363  0.8243  1.3850 -1.4530
  794TIP3   OH223796   2.780   5.695   5.287  0.4013 -0.2873 -0.3058
  794TIP3    H123797   2.726   5.628   5.245 -1.2889  1.1949 -0.6086
  794TIP3    H223798   2.859   5.700   5.234  1.1704 -2.9810  0.5374
  795TIP3   OH223799   3.882   1.338  13.745  0.1321  0.5722  0.8714
  795TIP3    H123800   3.818   1.369  13.809  0.1889  1.1442  0.6483
  795TIP3    H223801   3.847   1.253  13.716 -0.4663  0.8306  0.8354
  796TIP3   OH223802   5.950   3.403  15.784  0.6520  0.1843  0.2018
  796TIP3    H123803   5.934   3.343  15.856  1.1122  0.1819  0.3034
  796TIP3    H223804   5.893   3.371  15.713 -0.8493  1.0335  1.0124
  797TIP3   OH223805   0.567   6.374   3.932 -0.0382  0.3671  0.2786
  797TIP3    H123806   0.614   6.338   3.857  0.8389  1.1161  0.4563
  797TIP3    H223807   0.518   6.300   3.967 -0.0500 -0.1061 -0.7225
  798TIP3   OH223808   1.528   1.930   2.106  0.5265 -0.0793  0.5961
  798TIP3    H123809   1.519   1.835   2.108  0.4363 -0.0560  3.2062
  798TIP3    H223810   1.438   1.962   2.098  0.7916 -0.1889 -4.4141
  799TIP3   OH223811   6.127   1.220   5.284 -0.7253 -0.0334 -0.3034
  799TIP3    H123812   6.190   1.290   5.301 -2.0184  0.8629  0.9147
  799TIP3    H223813   6.078   1.250   5.207 -0.4511 -0.1808 -0.5360
  800TIP3   OH223814   5.302   1.427   2.760 -0.4866  0.2455  0.0352
  800TIP3    H123815   5.325   1.513   2.726  0.8266 -0.1268 -0.0201
  800TIP3    H223816   5.220   1.441   2.807 -0.4136  1.4714 -0.1996
  801TIP3   OH223817   2.585   4.889   1.628 -0.2461 -0.2834 -0.1705
  801TIP3    H123818   2.646   4.924   1.693  0.0653 -0.7291 -0.2264
  801TIP3    H223819   2.502   4.883   1.675 -0.0289 -0.5716  0.1736
  802TIP3   OH223820   4.949   6.352  11.954 -0.3852 -0.1615 -0.2670
  802TIP3    H123821   5.037   6.376  11.982 -0.7023  0.0887  0.5194
  802TIP3    H223822   4.962   6.275  11.898  0.3096 -0.2568  0.0176
  803TIP3   OH223823   4.145   5.690   0.909 -0.2065 -0.1251 -0.4010
  803TIP3    H123824   4.103   5.775   0.896 -0.8616 -0.5342 -0.9526
  803TIP3    H223825   4.073   5.628   0.911  0.3895 -0.8681 -1.6600
  804TIP3   OH223826   3.055   5.324  16.276  0.2229 -0.3534 -0.2467
  804TIP3    H123827   3.055   5.345  16.370 -1.9371 -3.1570  0.4744
  804TIP3    H223828   2.990   5.383  16.238 -0.6320 -0.8169  0.4680
  805TIP3   OH223829   1.711   6.509   4.189 -0.4221 -0.1358 -0.0076
  805TIP3    H123830   1.789   6.494   4.135 -0.8023 -3.5099  0.2785
  805TIP3    H223831   1.743   6.504   4.279 -0.4505  1.5491  0.0956
  806TIP3   OH223832   5.505   1.172   5.183  0.1958 -0.2857  0.5657
  806TIP3    H123833   5.456   1.094   5.158 -0.6786  0.0657  1.1656
  806TIP3    H223834   5.597   1.148   5.171 -0.0551 -1.5112  1.0515
  807TIP3   OH223835   4.530   1.514  12.791  0.1758  0.5808 -0.1407
  807TIP3    H123836   4.530   1.534  12.885 -0.5588  0.5613 -0.1296
  807TIP3    H223837   4.445   1.545  12.760  0.8289  1.5136 -1.0077
  808TIP3   OH223838   6.447   6.428  16.964 -0.8135  0.0579  0.8502
  808TIP3    H123839   6.446   6.346  16.914 -1.5461 -0.2670  1.3960
  808TIP3    H223840   6.526   6.423  17.017 -1.2481 -0.6440  1.4466
  809TIP3   OH223841   2.836   2.258  12.689 -0.1906 -0.4418 -0.0512
  809TIP3    H123842   2.807   2.169  12.673  0.2786 -0.3350 -1.5334
  809TIP3    H223843   2.860   2.292  12.603 -1.4124  1.4802  0.3362
  810TIP3   OH223844   6.144   3.930   2.835  0.1196 -0.0633  0.3442
  810TIP3    H123845   6.114   3.845   2.803 -0.3170 -0.1800  1.0523
  810TIP3    H223846   6.224   3.949   2.784 -1.0133  0.1435 -1.3926
  811TIP3   OH223847   1.972   6.295  11.618  0.5992 -0.5037 -0.0356
  811TIP3    H123848   2.004   6.274  11.530  0.0639 -0.4881 -0.2398
  811TIP3    H223849   1.881   6.323  11.604  0.9876  0.9797  0.3483
  812TIP3   OH223850   1.777   4.718  16.488 -0.4928  0.4043  0.4156
  812TIP3    H123851   1.858   4.769  16.480 -0.7387  0.8415  0.6902
  812TIP3    H223852   1.709   4.783  16.505 -0.7669 -0.0292  1.0337
  813TIP3   OH223853   0.788   2.209   2.602 -0.0230  0.1778  0.0156
  813TIP3    H123854   0.792   2.297   2.640  0.8732  0.3136 -0.3645
  813TIP3    H223855   0.877   2.194   2.569 -0.4065 -0.5206 -0.7038
  814TIP3   OH223856   2.837   1.676   2.865  0.4681  0.1924  1.1706
  814TIP3    H123857   2.882   1.670   2.949  1.2400 -0.4343  0.7152
  814TIP3    H223858   2.906   1.669   2.799 -0.1322  0.6626  0.4843
  815TIP3   OH223859   1.653   0.051   1.985  0.0428  0.3123  0.0055
  815TIP3    H123860   1.644   0.125   2.045 -0.4469  0.5632 -0.3751
  815TIP3    H223861   1.608  -0.022   2.029  0.1744  0.3449  0.1950
  816TIP3   OH223862   4.871   5.261   4.282 -0.1456 -0.3056 -0.1821
  816TIP3    H123863   4.800   5.320   4.305 -0.3442 -1.1614  1.4435
  816TIP3    H223864   4.944   5.320   4.260 -1.4115  0.5747 -2.1686
  817TIP3   OH223865   1.669   1.543   0.739 -0.2541 -0.2975 -0.5427
  817TIP3    H123866   1.656   1.521   0.646 -0.5414  2.3770 -1.1644
  817TIP3    H223867   1.581   1.537   0.777 -0.5727  1.1211 -1.0267
  818TIP3   OH223868   3.256   3.717  12.842  0.4352 -0.1723  0.4811
  818TIP3    H123869   3.281   3.660  12.914  0.8731  0.2063  0.6266
  818TIP3    H223870   3.174   3.758  12.872 -0.1955 -1.1553  0.1372
  819TIP3   OH223871   5.537   4.873  11.424  0.0714  0.0226  0.4259
  819TIP3    H123872   5.504   4.819  11.353 -2.1800 -2.2283  3.0810
  819TIP3    H223873   5.516   4.963  11.398  0.6361 -0.5945 -2.3722
  820TIP3   OH223874   5.608   5.156  12.801 -0.4502 -0.1304  0.0813
  820TIP3    H123875   5.597   5.123  12.712  0.9586  1.1890 -0.5993
  820TIP3    H223876   5.677   5.222  12.794 -0.6191  0.2877  2.0777
  821TIP3   OH223877   2.919   2.574  15.713 -0.2339 -0.1951 -0.2869
  821TIP3    H123878   2.925   2.487  15.754  0.8761 -0.8340 -1.7528
  821TIP3    H223879   2.880   2.557  15.627 -0.1548  0.7849 -0.5199
  822TIP3   OH223880   2.428   1.187  15.249  0.3723  0.0378 -0.2847
  822TIP3    H123881   2.394   1.253  15.189  0.6044  0.1287 -0.3161
  822TIP3    H223882   2.499   1.230  15.295  0.8870 -0.3615 -0.7008
  823TIP3   OH223883   2.528   3.361   2.586  0.0559 -0.0725  0.1884
  823TIP3    H123884   2.621   3.378   2.604 -0.2185  1.3015  0.3867
  823TIP3    H223885   2.510   3.413   2.508 -0.4469 -0.6748 -0.0954
  824TIP3   OH223886   4.081   4.395   3.782  0.6391 -0.3435 -0.0935
  824TIP3    H123887   4.056   4.324   3.841 -1.4461  1.2095  0.9717
  824TIP3    H223888   4.169   4.420   3.809  0.8577 -1.6399  0.3827
  825TIP3   OH223889   3.038   0.354  16.337  0.0452 -0.4588  0.3409
  825TIP3    H123890   3.076   0.362  16.250 -0.5245 -0.0179  0.1308
  825TIP3    H223891   3.083   0.279  16.377  0.2075 -0.7462 -0.3818
  826TIP3   OH223892   5.705   4.826  12.285 -0.0051  1.3694  0.1569
  826TIP3    H123893   5.680   4.898  12.343 -1.2022  0.4270  0.8279
  826TIP3    H223894   5.787   4.855  12.245 -0.0218  2.7326  1.0762
  827TIP3   OH223895   2.512   4.288  12.602  0.2210  0.6588  0.8451
  827TIP3    H123896   2.505   4.244  12.517  0.9139 -0.0983  1.1722
  827TIP3    H223897   2.435   4.344  12.607 -0.1320  0.2522 -0.0300
  828TIP3   OH223898   4.843   5.387  14.427  0.8873 -0.1095 -0.6483
  828TIP3    H123899   4.841   5.462  14.486 -0.4967 -1.0662  0.5714
  828TIP3    H223900   4.932   5.386  14.392  1.5120  0.9489  0.8360
  829TIP3   OH223901   5.483   6.251   1.182  0.4138  0.7874  0.1990
  829TIP3    H123902   5.517   6.224   1.096 -1.9751  1.3401 -0.9728
  829TIP3    H223903   5.520   6.187   1.243  0.0768 -1.2196 -1.6057
  830TIP3   OH223904   5.821   0.652   3.735  0.1017 -0.8874  0.1010
  830TIP3    H123905   5.737   0.610   3.756 -1.8535  1.4256 -2.7289
  830TIP3    H223906   5.834   0.715   3.805 -1.0472 -0.5443  0.0144
  831TIP3   OH223907   6.419   1.961   3.612 -0.1547  0.3268  0.2588
  831TIP3    H123908   6.426   2.003   3.526  0.6283  0.4038  0.3572
  831TIP3    H223909   6.459   1.875   3.600 -0.1849  0.2788  0.5119
  832TIP3   OH223910   3.385   2.189  11.426  0.5277 -0.0798  0.0646
  832TIP3    H123911   3.448   2.194  11.498 -0.9641  1.9023  1.2889
  832TIP3    H223912   3.358   2.097  11.425  2.2688 -0.6304  0.5137
  833TIP3   OH223913   2.460   5.419  14.678 -0.0076 -0.5927  0.3408
  833TIP3    H123914   2.547   5.460  14.671 -0.9893  1.4029 -0.7366
  833TIP3    H223915   2.424   5.425  14.590 -0.5976 -2.9263  0.4118
  834TIP3   OH223916   5.424   0.233   4.809  0.0842 -0.2744 -0.1818
  834TIP3    H123917   5.331   0.249   4.796  0.0100 -1.2680 -0.9295
  834TIP3    H223918   5.460   0.318   4.833 -0.9120  0.2373 -0.4875
  835TIP3   OH223919   3.327   6.084  16.675 -0.6207 -0.5912 -0.0865
  835TIP3    H123920   3.244   6.057  16.636 -0.7839 -0.1563 -0.0456
  835TIP3    H223921   3.306   6.165  16.723 -0.2658 -0.7121  0.2796
  836TIP3   OH223922   4.287   6.441  11.352 -0.5742 -0.2147  0.7950
  836TIP3    H123923   4.261   6.531  11.331  1.7860  0.0446 -1.2068
  836TIP3    H223924   4.289   6.396  11.268  0.5141 -1.5136  1.4910
  837TIP3   OH223925   2.891   3.029   2.127  0.0430 -0.6474  0.3113
  837TIP3    H123926   2.843   2.980   2.193  1.1624 -0.0072  1.6260
  837TIP3    H223927   2.947   2.964   2.085 -2.0188 -1.4255 -1.3223
  838TIP3   OH223928   6.407   3.941   4.565 -0.0788 -1.0949  0.2676
  838TIP3    H123929   6.501   3.933   4.552 -0.0303 -0.9282  0.5210
  838TIP3    H223930   6.394   3.920   4.658  0.0369  1.7349  0.9727
  839TIP3   OH223931   1.945   0.866  14.622 -0.6453  0.1449 -0.1264
  839TIP3    H123932   1.982   0.785  14.587 -0.6985  0.2176 -0.3528
  839TIP3    H223933   1.851   0.858  14.608 -0.6740  0.1416  0.0695
  840TIP3   OH223934   6.218   2.509  13.710 -0.8310  0.0065  0.4343
  840TIP3    H123935   6.245   2.594  13.746  0.5868 -0.3029  0.1329
  840TIP3    H223936   6.163   2.531  13.635  0.9159  0.6659 -0.6616
  841TIP3   OH223937   0.194   1.037  15.502 -0.0958 -0.3930  0.1581
  841TIP3    H123938   0.202   0.951  15.461  1.9364  0.2727 -0.9208
  841TIP3    H223939   0.266   1.088  15.463 -0.4369  1.3640  1.8023
  842TIP3   OH223940   0.686   6.766   3.406 -0.1894 -0.1349 -0.3394
  842TIP3    H123941   0.696   6.811   3.490 -0.8886  1.8515 -1.2873
  842TIP3    H223942   0.630   6.691   3.426 -1.0906  0.8168  0.8076
  843TIP3   OH223943   5.064   1.663   1.570 -0.0563  0.2351  0.7644
  843TIP3    H123944   5.013   1.723   1.516 -0.0040  2.4135  3.0114
  843TIP3    H223945   4.999   1.617   1.623  0.0201 -0.3748  0.3289
  844TIP3   OH223946   5.959   2.192  10.574  0.1482  0.5226 -0.4795
  844TIP3    H123947   5.927   2.149  10.495  0.9121  1.2175 -1.1753
  844TIP3    H223948   5.896   2.263  10.590 -1.1556 -0.8842  0.7153
  845TIP3   OH223949   1.571   5.789   5.097  0.1967 -0.7285 -0.4806
  845TIP3    H123950   1.571   5.714   5.156  0.2603  0.4881  1.0871
  845TIP3    H223951   1.596   5.752   5.012 -0.4770 -2.5886  0.1064
  846TIP3   OH223952   4.816   4.093  12.040  0.4430 -0.0233 -0.1683
  846TIP3    H123953   4.775   4.008  12.057  3.0735 -1.5194 -1.0080
  846TIP3    H223954   4.808   4.105  11.946 -0.5994  1.0447  0.0469
  847TIP3   OH223955   0.662   5.460  11.050  0.5303 -0.1537 -0.3022
  847TIP3    H123956   0.713   5.463  10.969  0.1921  0.1567 -0.5069
  847TIP3    H223957   0.580   5.416  11.025  0.3307  0.1481 -0.1820
  848TIP3   OH223958   2.905   4.965   4.987 -0.1712  0.5724 -0.0230
  848TIP3    H123959   2.844   4.911   4.936 -0.0374  1.7512 -1.4764
  848TIP3    H223960   2.849   5.015   5.047 -0.4480  0.1413  0.0805
  849TIP3   OH223961   1.208   5.311  16.820  0.8153 -0.0038  0.0128
  849TIP3    H123962   1.115   5.332  16.814  1.2793  2.3948  0.7348
  849TIP3    H223963   1.244   5.335  16.735  0.3525 -3.4912 -1.2666
  850TIP3   OH223964   0.576   6.578  12.611 -0.1059  0.0309  0.0359
  850TIP3    H123965   0.569   6.483  12.603 -1.1983  0.0103  1.1366
  850TIP3    H223966   0.532   6.612  12.532 -0.6844 -0.3575  0.1876
  851TIP3   OH223967   1.031   5.045  14.827 -0.0678  0.0027  0.4363
  851TIP3    H123968   1.044   5.093  14.909  0.7280  0.4145  0.0800
  851TIP3    H223969   1.045   5.110  14.759 -0.7737 -0.3312 -0.0329
  852TIP3   OH223970   2.781   6.278  12.222 -0.6156  0.3953 -0.2093
  852TIP3    H123971   2.783   6.198  12.171 -1.4345 -1.4231  2.4929
  852TIP3    H223972   2.736   6.341  12.166  2.3017 -0.2141 -3.4078
  853TIP3   OH223973   4.127   0.304  11.895  0.0939 -0.4823  0.0231
  853TIP3    H123974   4.079   0.310  11.812 -0.4245  0.6641  0.3871
  853TIP3    H223975   4.174   0.221  11.890 -0.6191 -0.8348 -1.0513
  854TIP3   OH223976   3.930   5.762   2.871  0.4423 -0.3198  0.2625
  854TIP3    H123977   3.941   5.851   2.838 -0.0412 -0.6800 -0.8834
  854TIP3    H223978   3.956   5.705   2.798 -1.8646 -1.1320  0.0412
  855TIP3   OH223979   2.133   2.902   5.362 -0.3972 -0.1759  0.3093
  855TIP3    H123980   2.112   2.887   5.454 -0.0054 -0.0294  0.4235
  855TIP3    H223981   2.123   2.816   5.321 -1.3809 -0.0709  0.3261
  856TIP3   OH223982   1.278   0.441   5.315  0.3579  0.2575 -0.3816
  856TIP3    H123983   1.268   0.356   5.357 -1.1961  0.9034  0.6295
  856TIP3    H223984   1.295   0.422   5.223 -2.3260 -1.1262 -0.6379
  857TIP3   OH223985   0.443   3.847   3.566  0.0278  0.8732  0.5711
  857TIP3    H123986   0.364   3.897   3.544 -0.5132 -0.3662 -0.4177
  857TIP3    H223987   0.468   3.878   3.653 -2.6531 -0.0297  1.7407
  858TIP3   OH223988   4.554   6.095  13.887 -0.4434 -0.1637 -0.1844
  858TIP3    H123989   4.468   6.076  13.850 -0.0031 -0.6522 -0.9647
  858TIP3    H223990   4.555   6.191  13.897 -0.7337 -0.0741 -1.0121
  859TIP3   OH223991   3.506   3.609   3.461 -0.1565  0.1307 -0.5059
  859TIP3    H123992   3.471   3.522   3.443  0.7496 -0.1531 -0.9410
  859TIP3    H223993   3.525   3.609   3.555  1.4902 -0.7764 -0.8078
  860TIP3   OH223994   6.707   3.857  15.406 -0.3517 -0.3770 -0.6466
  860TIP3    H123995   6.652   3.929  15.374  1.8402  0.8405 -1.7284
  860TIP3    H223996   6.644   3.793  15.439 -2.3813  1.9113  0.1535
  861TIP3   OH223997   6.573   3.446   2.050  0.4395 -0.3280  0.3006
  861TIP3    H123998   6.620   3.506   1.991  0.3372 -2.2473 -1.7997
  861TIP3    H223999   6.613   3.361   2.034 -0.2393 -1.0577  2.3676
  862TIP3   OH224000   2.461   3.439   5.967  0.3813  0.1798  0.0329
  862TIP3    H124001   2.461   3.357   6.017 -0.2878 -0.3527 -0.8206
  862TIP3    H224002   2.369   3.454   5.947  0.4524  1.4068  0.6004
  863TIP3   OH224003   1.233   6.570   2.663  0.0807 -0.7476  0.0282
  863TIP3    H124004   1.241   6.531   2.576  1.3119  0.4863 -0.4266
  863TIP3    H224005   1.142   6.600   2.668 -0.0459 -0.9968 -0.7564
  864TIP3   OH224006   0.948   1.230  12.777  0.3356 -0.2257  0.4927
  864TIP3    H124007   0.856   1.245  12.757  0.1593  1.1871  2.2659
  864TIP3    H224008   0.950   1.142  12.814 -0.1705 -0.5653 -0.2659
  865TIP3   OH224009   3.459   2.491   1.071 -0.4761 -0.0075 -0.0513
  865TIP3    H124010   3.509   2.449   1.142 -1.1644  0.8504  0.9638
  865TIP3    H224011   3.525   2.542   1.023 -0.1394  0.0720  0.4844
  866TIP3   OH224012   4.395   5.993   1.224  0.2625  0.1706 -0.5224
  866TIP3    H124013   4.449   5.955   1.154  1.8576  0.4518  0.5259
  866TIP3    H224014   4.322   5.932   1.233  0.6620 -0.4983 -1.6267
  867TIP3   OH224015   5.625   5.819   1.904  0.5609  0.5726  0.0872
  867TIP3    H124016   5.552   5.758   1.909 -0.8964  1.8696 -3.5482
  867TIP3    H224017   5.696   5.776   1.951 -0.8532 -3.2443 -1.0894
  868TIP3   OH224018   3.009   0.554   3.108  0.1028 -0.0183  0.0911
  868TIP3    H124019   2.935   0.598   3.149  1.0220  0.0540  1.6895
  868TIP3    H224020   3.039   0.616   3.041 -0.5179  0.4524  0.2431
  869TIP3   OH224021   5.084   5.833  15.159  0.5376  0.1752  0.0970
  869TIP3    H124022   5.110   5.875  15.241  0.2374 -0.8705  0.7349
  869TIP3    H224023   5.086   5.739  15.178 -0.1087 -0.0548 -0.9139
  870TIP3   OH224024   6.481   2.744  10.821 -0.0208  0.0330  0.0057
  870TIP3    H124025   6.454   2.805  10.752 -0.0275  0.0867  0.0559
  870TIP3    H224026   6.436   2.662  10.800  2.1856 -0.7984 -1.6852
  871TIP3   OH224027   6.433   1.714  16.426 -0.3391 -0.1922 -0.1999
  871TIP3    H124028   6.380   1.658  16.369 -0.2169  0.0716 -0.5713
  871TIP3    H224029   6.391   1.800  16.422  0.2646  0.0820 -0.6937
  872TIP3   OH224030   4.255   1.133   4.907 -0.0922  0.0055 -0.0961
  872TIP3    H124031   4.246   1.127   4.812  0.5655 -1.0801 -0.0939
  872TIP3    H224032   4.272   1.226   4.923  1.2785 -0.0290 -1.1767
  873TIP3   OH224033   3.248   2.479   6.175  0.1044 -0.1844 -0.0398
  873TIP3    H124034   3.297   2.424   6.113 -0.6243  0.2085 -0.9658
  873TIP3    H224035   3.284   2.567   6.162 -0.0345 -0.1035  0.1253
  874TIP3   OH224036   2.722   1.428  11.971  0.3772 -0.2424 -0.3277
  874TIP3    H124037   2.789   1.379  11.924  0.4748  0.1832 -0.6278
  874TIP3    H224038   2.709   1.379  12.053  0.6194 -0.6545 -0.5381
  875TIP3   OH224039   4.604   0.716  12.650 -0.0403 -0.7220  0.7698
  875TIP3    H124040   4.652   0.785  12.605 -0.2476 -1.1176 -0.0561
  875TIP3    H224041   4.512   0.741  12.641 -0.0997 -0.9626  0.7196
  876TIP3   OH224042   6.757   3.300   1.636  0.5885  1.0648  0.2132
  876TIP3    H124043   6.811   3.377   1.621  0.2241  1.0289 -1.3793
  876TIP3    H224044   6.770   3.246   1.558 -1.0472  0.6618  0.2043
  877TIP3   OH224045   5.013   3.935  11.676 -0.0083 -0.4947  0.1064
  877TIP3    H124046   5.054   3.955  11.760 -0.1687 -1.1340  0.3437
  877TIP3    H224047   4.923   3.911  11.699 -1.1289  2.8275 -0.5799
  878TIP3   OH224048   4.080   3.190  14.242  0.3865  0.1540 -0.1531
  878TIP3    H124049   4.028   3.193  14.323  1.0605  0.0437  0.2910
  878TIP3    H224050   4.017   3.169  14.174 -0.5206  2.0450  0.0599
  879TIP3   OH224051   1.891   5.303  13.557  0.4156  0.3696 -0.4101
  879TIP3    H124052   1.944   5.225  13.542  0.2756 -0.0681  1.2379
  879TIP3    H224053   1.955   5.374  13.567  0.8171 -0.3202  2.5744
  880TIP3   OH224054   2.093   6.514   3.637  0.1354 -0.2766  0.2880
  880TIP3    H124055   2.009   6.494   3.677 -0.4085 -0.8693 -1.1116
  880TIP3    H224056   2.071   6.545   3.549  1.3645 -0.2894 -0.0420
  881TIP3   OH224057   6.476   1.616   2.126 -0.5998 -0.0376 -0.0364
  881TIP3    H124058   6.420   1.597   2.201 -2.3094  1.0378 -0.9835
  881TIP3    H224059   6.416   1.611   2.051  1.2605 -1.9994 -1.4361
  882TIP3   OH224060   0.499   6.214  15.761  0.0183  0.1293 -0.3879
  882TIP3    H124061   0.456   6.244  15.841  0.1636  0.4270 -0.4209
  882TIP3    H224062   0.593   6.215  15.782 -0.0345 -1.3582 -0.0302
  883TIP3   OH224063   5.266   2.559  12.493 -0.4428  0.4196 -0.5783
  883TIP3    H124064   5.361   2.546  12.493 -0.3879  0.7210 -2.0893
  883TIP3    H224065   5.254   2.651  12.469 -1.1315  0.3123 -0.6521
  884TIP3   OH224066   0.498   1.131  14.548  0.4832 -0.1690 -0.6912
  884TIP3    H124067   0.425   1.157  14.603  0.4628 -0.4229 -0.6007
  884TIP3    H224068   0.457   1.090  14.471  0.5507 -0.9087 -0.3370
  885TIP3   OH224069   5.619   2.382  13.738 -0.2528  0.3215 -0.3742
  885TIP3    H124070   5.610   2.286  13.735  1.0379  0.2377 -1.7632
  885TIP3    H224071   5.649   2.400  13.827 -1.5118 -0.4754  0.2237
  886TIP3   OH224072   4.006   3.920  16.180 -0.5246 -0.9598  0.3067
  886TIP3    H124073   3.915   3.942  16.202 -0.6333 -0.9487 -0.1448
  886TIP3    H224074   3.999   3.848  16.117 -0.2317 -0.7404  0.0173
  887TIP3   OH224075   5.695   6.360   2.115  0.0191  0.5190 -0.0759
  887TIP3    H124076   5.708   6.266   2.112  0.3180  0.5870 -0.8307
  887TIP3    H224077   5.631   6.378   2.047 -1.6978  0.5880  1.5245
  888TIP3   OH224078   4.809   4.432   4.020 -0.8237 -0.6052 -0.3714
  888TIP3    H124079   4.738   4.369   4.009  0.4065 -1.7776 -1.7561
  888TIP3    H224080   4.885   4.390   3.980  0.6684  0.6232  1.0750
  889TIP3   OH224081   2.867   2.652   5.676  0.3535 -0.4620  0.4057
  889TIP3    H124082   2.821   2.714   5.733 -2.4261 -0.7743 -1.3859
  889TIP3    H224083   2.845   2.566   5.712 -2.4012 -0.7289 -1.6848
  890TIP3   OH224084   5.850   0.801   4.079 -0.9821 -0.1884 -0.3201
  890TIP3    H124085   5.828   0.850   4.158 -1.2668 -0.4873 -0.2155
  890TIP3    H224086   5.774   0.746   4.062  0.1699 -2.1863  0.7850
  891TIP3   OH224087   4.478   5.617  11.702  0.1597 -0.4248 -0.2188
  891TIP3    H124088   4.511   5.597  11.615 -0.2602 -0.3294 -0.3986
  891TIP3    H224089   4.492   5.536  11.752 -2.2516 -1.4641 -1.1636
  892TIP3   OH224090   1.420   2.497   4.139 -0.0465  0.0993  0.1949
  892TIP3    H124091   1.380   2.526   4.221 -1.2513  0.0052 -0.3440
  892TIP3    H224092   1.407   2.570   4.078  1.7272  0.5769  0.3428
  893TIP3   OH224093   4.202   6.180  16.221  1.0310 -0.7505  0.1082
  893TIP3    H124094   4.286   6.169  16.177  1.3029  0.0330  0.4207
  893TIP3    H224095   4.173   6.091  16.240  1.7751 -1.0282 -0.0367
  894TIP3   OH224096   1.374   3.407  11.456  0.3241  0.0873  0.4574
  894TIP3    H124097   1.319   3.344  11.500  0.6935 -0.1814  0.5388
  894TIP3    H224098   1.389   3.370  11.369 -0.5864  0.7208  0.0201
  895TIP3   OH224099   2.796   5.460   4.204 -0.1288  0.1674  0.8153
  895TIP3    H124100   2.800   5.392   4.272  0.5832  0.8447  1.4622
  895TIP3    H224101   2.710   5.500   4.215 -0.3123 -0.2307  0.8269
  896TIP3   OH224102   4.428   0.113   5.177  0.0719  0.3179  0.0312
  896TIP3    H124103   4.353   0.170   5.196  1.4891  1.8565  1.1798
  896TIP3    H224104   4.463   0.090   5.263  0.9641 -0.3300 -0.4947
  897TIP3   OH224105   1.265   2.591   5.291  0.8195  0.9646 -0.2959
  897TIP3    H124106   1.170   2.579   5.283  1.0469 -0.7577 -0.5527
  897TIP3    H224107   1.275   2.684   5.310 -0.8170  1.6120 -2.3081
  898TIP3   OH224108   2.812   1.584  15.450 -0.1381  0.6279  0.3957
  898TIP3    H124109   2.767   1.633  15.381 -0.5630 -0.5069 -0.1420
  898TIP3    H224110   2.900   1.571  15.417 -0.3748 -0.0161  0.0017
  899TIP3   OH224111   3.029   6.592  16.092  0.2941 -0.0317  0.2346
  899TIP3    H124112   3.046   6.674  16.138  2.6414  0.2946 -1.1349
  899TIP3    H224113   3.041   6.614  16.000 -0.9395 -1.4988 -0.2988
  900TIP3   OH224114   4.549   5.991   2.655  0.0361 -0.0133 -0.2423
  900TIP3    H124115   4.598   6.061   2.698  0.4806 -0.3437 -0.2035
  900TIP3    H224116   4.531   5.928   2.725  0.7799 -0.5616 -0.5375
  901TIP3   OH224117   0.060   1.667  15.764  0.2146 -0.6914  0.0292
  901TIP3    H124118   0.150   1.634  15.768 -0.0677 -1.4072  0.6982
  901TIP3    H224119   0.069   1.761  15.748  1.0764 -0.7814 -0.0207
  902TIP3   OH224120   0.654   6.054   0.691  0.6263 -0.2045  0.2280
  902TIP3    H124121   0.717   6.011   0.748  1.4888 -0.0111 -0.5630
  902TIP3    H224122   0.702   6.068   0.609 -0.3415  0.2435 -0.2673
  903TIP3   OH224123   5.795   6.480  14.591 -0.3167  0.6439 -0.2074
  903TIP3    H124124   5.866   6.512  14.535  0.1856 -0.8338 -0.4494
  903TIP3    H224125   5.830   6.485  14.680  0.1753 -0.2947 -0.3470
  904TIP3   OH224126   4.505   0.809  15.935  1.0651 -0.1577 -0.1058
  904TIP3    H124127   4.423   0.779  15.896  1.1835 -1.1298  0.3801
  904TIP3    H224128   4.499   0.905  15.933  0.3789 -0.2149 -1.0274
  905TIP3   OH224129   4.076   5.320  14.308  0.6250 -0.1753  0.1701
  905TIP3    H124130   4.096   5.404  14.350  0.1335 -0.2864  0.6316
  905TIP3    H224131   4.057   5.261  14.381 -0.1367 -0.4006 -0.2142
  906TIP3   OH224132   1.270   4.938  14.863 -0.4037  0.5637  0.4700
  906TIP3    H124133   1.182   4.952  14.828 -0.5507  1.1230  1.0590
  906TIP3    H224134   1.276   4.997  14.938  0.3828  0.3403  0.5892
  907TIP3   OH224135   2.468   4.838  13.015  0.0157 -0.0919 -0.3759
  907TIP3    H124136   2.516   4.756  13.022 -2.0236 -1.4770 -2.0274
  907TIP3    H224137   2.393   4.827  13.074 -0.9940  0.0465 -1.6204
  908TIP3   OH224138   5.500   0.820  12.690 -0.5421 -0.0515  0.0594
  908TIP3    H124139   5.512   0.915  12.687 -0.6806 -0.0497 -0.6034
  908TIP3    H224140   5.436   0.802  12.620 -0.8590 -0.5778  0.4776
  909TIP3   OH224141   1.911   5.066   0.812  0.1261 -0.4359  1.0810
  909TIP3    H124142   1.869   5.031   0.890  0.2346 -1.6338  0.6020
  909TIP3    H224143   2.000   5.034   0.815  0.0753 -0.6574  0.3568
  910TIP3   OH224144   3.502   0.180   1.086  0.2252 -0.4629 -0.0571
  910TIP3    H124145   3.522   0.273   1.098  0.2471 -0.2969 -1.3481
  910TIP3    H224146   3.586   0.136   1.092  0.2473 -0.3832  0.2776
  911TIP3   OH224147   0.019   0.942  11.303  0.0132 -0.3132 -0.1539
  911TIP3    H124148   0.070   1.016  11.271 -0.1724 -0.2568 -0.3197
  911TIP3    H224149   0.023   0.950  11.398 -0.8835  0.5189 -0.1782
  912TIP3   OH224150   1.372   2.018   4.486 -0.0228  0.3453  0.1027
  912TIP3    H124151   1.276   2.019   4.483 -0.0490 -0.6106  0.5424
  912TIP3    H224152   1.398   2.105   4.455 -1.0391  0.7076  0.2605
  913TIP3   OH224153   1.974   6.462   4.098 -0.4312 -0.0522 -0.1142
  913TIP3    H124154   2.040   6.415   4.048 -0.7770 -1.7978  1.0317
  913TIP3    H224155   2.023   6.522   4.154  0.1552 -0.8412  0.2224
  914TIP3   OH224156   4.591   5.878  14.771 -0.4123 -0.7150  0.1565
  914TIP3    H124157   4.655   5.811  14.795  1.6431  0.9527 -0.5960
  914TIP3    H224158   4.625   5.917  14.692 -1.1862  1.7866  1.0193
  915TIP3   OH224159   4.961   2.065   0.965  0.0550 -0.0553  0.1583
  915TIP3    H124160   4.886   2.112   0.929 -0.8086 -0.4770  1.3626
  915TIP3    H224161   5.010   2.131   1.014  1.3456  0.5673 -1.8776
  916TIP3   OH224162   6.782   0.497  16.462 -0.2368 -0.3293 -0.3957
  916TIP3    H124163   6.758   0.404  16.469  1.4680 -0.7804 -0.4149
  916TIP3    H224164   6.877   0.498  16.465 -0.2326  1.4347 -0.4255
  917TIP3   OH224165   2.629   1.537  13.691 -0.5334 -0.6037  0.4000
  917TIP3    H124166   2.581   1.618  13.706  0.9357  0.6239 -1.3680
  917TIP3    H224167   2.676   1.521  13.773  1.0792  1.6739 -0.0404
  918TIP3   OH224168   1.165   6.505   0.258 -0.0582  0.1265  0.1210
  918TIP3    H124169   1.085   6.552   0.283  1.1274  1.0072  2.4703
  918TIP3    H224170   1.221   6.572   0.219  1.8971  0.9504  4.0740
  919TIP3   OH224171   6.081   3.881   2.388  0.9051 -0.1069  0.0840
  919TIP3    H124172   6.086   3.800   2.337 -1.9285 -0.5750  0.4294
  919TIP3    H224173   6.108   3.855   2.476  0.1792 -0.6781  0.1521
  920TIP3   OH224174   4.291   2.416   2.570  0.1975  0.5639  0.3255
  920TIP3    H124175   4.289   2.358   2.646 -1.1619  0.1667  0.0050
  920TIP3    H224176   4.250   2.498   2.600 -0.1274  0.4881  0.1033
  921TIP3   OH224177   2.074   0.059   3.087  0.3794  0.3920 -0.0377
  921TIP3    H124178   2.165   0.083   3.103  0.4681 -0.5003  0.8409
  921TIP3    H224179   2.079  -0.014   3.025  0.2162  0.9581 -0.7275
  922TIP3   OH224180   3.706   1.563  16.764 -0.1115 -0.1944  0.3102
  922TIP3    H124181   3.742   1.612  16.838  2.1091  0.2632 -1.0417
  922TIP3    H224182   3.782   1.528  16.719 -1.6210 -4.1582  0.6893
  923TIP3   OH224183   4.313   0.169   3.440  0.3013  0.2666 -0.1696
  923TIP3    H124184   4.379   0.100   3.443  0.1049  0.0834  0.0005
  923TIP3    H224185   4.345   0.236   3.499  1.7599  1.4742 -2.2675
  924TIP3   OH224186   3.708   5.234   0.646 -0.1876  0.3724 -0.0204
  924TIP3    H124187   3.731   5.160   0.702 -1.3979 -1.5594 -1.9985
  924TIP3    H224188   3.673   5.300   0.706  2.8526  0.2351  2.0323
  925TIP3   OH224189   4.326   3.553  12.592  0.7126  0.2063  0.0128
  925TIP3    H124190   4.236   3.536  12.621  0.8719  0.2519  0.5307
  925TIP3    H224191   4.344   3.483  12.528 -0.4363  1.4346 -1.7004
  926TIP3   OH224192   6.108   2.790  16.920 -0.1263 -0.2666 -0.1193
  926TIP3    H124193   6.098   2.695  16.919 -0.0785 -0.2659 -0.6399
  926TIP3    H224194   6.189   2.806  16.871 -2.0929  0.2693 -3.2986
  927TIP3   OH224195   3.575   5.566   1.323  0.6955  0.0484  0.2003
  927TIP3    H124196   3.654   5.522   1.353 -0.3585 -1.7588  0.3718
  927TIP3    H224197   3.559   5.529   1.236 -0.8965 -0.8652  0.8679
  928TIP3   OH224198   2.286   3.228   4.685  0.4289 -0.5146  0.2337
  928TIP3    H124199   2.277   3.281   4.606 -2.7047  0.1860  0.9807
  928TIP3    H224200   2.318   3.289   4.751 -0.2083 -0.2977  0.3400
  929TIP3   OH224201   1.385   2.572  16.613  0.8993  0.1505  0.4848
  929TIP3    H124202   1.394   2.663  16.641  2.1694  0.0893  0.3372
  929TIP3    H224203   1.448   2.563  16.541 -1.7519  0.1155 -1.9385
  930TIP3   OH224204   4.218   1.227   4.215 -0.5627  0.3442 -0.1051
  930TIP3    H124205   4.177   1.222   4.302 -2.1891  1.4368 -0.7911
  930TIP3    H224206   4.311   1.213   4.232 -1.2077 -2.4702  1.4740
  931TIP3   OH224207   3.864   5.219  13.107  0.2403  0.2410 -0.2767
  931TIP3    H124208   3.927   5.148  13.113 -0.1818  0.0090  1.6988
  931TIP3    H224209   3.779   5.176  13.100  0.1420  0.5638 -1.2507
  932TIP3   OH224210   4.907   4.833  16.013 -0.3383  0.1182  0.3359
  932TIP3    H124211   4.837   4.829  16.078 -0.5429 -1.8699  0.0219
  932TIP3    H224212   4.986   4.810  16.062 -0.4359 -1.0181 -0.0332
  933TIP3   OH224213   3.535   6.001   2.219 -0.2397  0.1130 -0.4239
  933TIP3    H124214   3.515   6.005   2.312  3.8040  0.1363  0.5338
  933TIP3    H224215   3.552   5.909   2.201  0.8328  0.3522 -0.6882
  934TIP3   OH224216   6.279   6.747  10.970  0.1288 -0.1850 -0.0582
  934TIP3    H124217   6.252   6.811  10.903  0.9862  0.1159 -0.1275
  934TIP3    H224218   6.241   6.664  10.941  1.3455 -0.2722 -1.5022
  935TIP3   OH224219   5.027   5.644   3.195 -0.0458 -0.0766 -0.1272
  935TIP3    H124220   5.008   5.635   3.102  0.6492 -1.3724 -0.1461
  935TIP3    H224221   5.011   5.557   3.232  2.2293 -0.2635  0.5115
  936TIP3   OH224222   4.700   0.375   2.058 -0.6300  0.8550  0.1799
  936TIP3    H124223   4.768   0.437   2.086  1.8714 -1.1137 -1.2824
  936TIP3    H224224   4.679   0.401   1.968  1.0589 -0.8304 -0.7568
  937TIP3   OH224225   5.917   3.933   0.851  0.3378  0.1947 -0.2073
  937TIP3    H124226   5.898   3.909   0.761  1.2617 -1.7264  0.0896
  937TIP3    H224227   5.888   3.858   0.903  0.6655  0.8882  1.0104
  938TIP3   OH224228   1.312   4.284  14.091 -0.2158  0.5705  0.2572
  938TIP3    H124229   1.294   4.335  14.012 -0.5079  3.1217  1.9235
  938TIP3    H224230   1.377   4.335  14.139  1.0856 -1.6836  0.9842
  939TIP3   OH224231   2.273   6.399   5.585  0.0082 -0.1653  0.0725
  939TIP3    H124232   2.185   6.436   5.576  0.1953 -0.1511 -1.7469
  939TIP3    H224233   2.259   6.305   5.579  0.1340 -0.1577 -0.3204
  940TIP3   OH224234   2.592   1.222  14.193  0.1042  0.0956 -0.0039
  940TIP3    H124235   2.579   1.317  14.196  0.3408  0.1367 -0.2467
  940TIP3    H224236   2.552   1.195  14.110  0.8974  0.1244 -0.4110
  941TIP3   OH224237   3.231   1.769  16.143 -0.0891 -0.0091 -0.1892
  941TIP3    H124238   3.306   1.826  16.128  0.1204  0.0242  0.9506
  941TIP3    H224239   3.252   1.689  16.094  2.2583 -1.2896  2.7029
  942TIP3   OH224240   2.605   4.217  15.463 -0.7737  0.5620  0.6217
  942TIP3    H124241   2.663   4.160  15.513 -1.4028  0.0786  0.7983
  942TIP3    H224242   2.527   4.165  15.447 -0.3683  0.5029 -1.3459
  943TIP3   OH224243   1.681   1.586   3.036 -0.3190 -0.1248 -0.3537
  943TIP3    H124244   1.608   1.529   3.060  0.1272 -0.1112  1.1034
  943TIP3    H224245   1.748   1.527   3.003  0.1331 -0.4640  1.1289
  944TIP3   OH224246   1.551   2.539  16.367 -0.3637 -0.7178  0.2023
  944TIP3    H124247   1.584   2.482  16.298 -1.2587 -0.7878 -0.1651
  944TIP3    H224248   1.619   2.606  16.377 -0.9140  0.1679 -1.7848
  945TIP3   OH224249   1.490   2.639  14.560 -0.1356  0.1367 -0.1154
  945TIP3    H124250   1.407   2.650  14.514  1.0517  3.2703 -1.6170
  945TIP3    H224251   1.492   2.711  14.624  0.9696 -0.4950  0.5829
  946TIP3   OH224252   4.948   1.566   4.462  0.0743 -0.5704  0.1457
  946TIP3    H124253   4.903   1.644   4.493 -1.2477 -0.5604 -1.6935
  946TIP3    H224254   4.958   1.511   4.539  0.4412  1.1184  1.3301
  947TIP3   OH224255   4.686   6.779  15.751 -0.4140 -0.0379 -0.0354
  947TIP3    H124256   4.668   6.701  15.697 -0.0962 -1.1616  1.4568
  947TIP3    H224257   4.712   6.846  15.687  0.4785 -1.4956 -1.2525
  948TIP3   OH224258   4.418   6.660   2.219  0.5246 -0.3681 -0.1302
  948TIP3    H124259   4.460   6.719   2.156  1.9226  0.1102  1.2203
  948TIP3    H224260   4.353   6.611   2.167  0.2307  1.4481 -1.5127
  949TIP3   OH224261   1.980   1.055  11.517 -0.2750  0.0823  0.0772
  949TIP3    H124262   2.059   1.109  11.517  0.2178 -0.6260 -0.3545
  949TIP3    H224263   2.008   0.970  11.551 -0.6835 -0.3951 -0.7441
  950TIP3   OH224264   2.970   3.485   3.685 -0.3927  0.0229 -0.0103
  950TIP3    H124265   2.940   3.409   3.736 -1.5054 -0.3072 -1.1297
  950TIP3    H224266   2.901   3.499   3.621 -0.5825  2.5079  0.6988
  951TIP3   OH224267   0.238   4.436   4.076  0.5268 -0.2534 -0.0442
  951TIP3    H124268   0.276   4.467   4.159  2.0481  0.9101 -1.1385
  951TIP3    H224269   0.225   4.516   4.025 -1.1882 -0.8808 -0.6275
  952TIP3   OH224270   3.550   2.023  16.921 -0.3550 -0.1487 -0.0196
  952TIP3    H124271   3.555   2.005  17.015  0.2092  0.1655  0.0080
  952TIP3    H224272   3.591   1.948  16.880 -2.0622 -1.0821 -0.0949
  953TIP3   OH224273   1.254   6.658   3.226  0.0870 -0.0167  0.0342
  953TIP3    H124274   1.326   6.720   3.215  1.6266 -1.8453 -0.3928
  953TIP3    H224275   1.274   6.611   3.307 -0.6057 -0.5644 -0.1039
  954TIP3   OH224276   0.150   6.442  12.937  0.1749  0.0646 -0.2498
  954TIP3    H124277   0.097   6.521  12.929  0.2266  0.0579 -0.6656
  954TIP3    H224278   0.237   6.468  12.906  0.3803  0.0456  0.3176
  955TIP3   OH224279   6.521   5.848  17.031 -0.0192  0.2423 -0.2355
  955TIP3    H124280   6.563   5.798  16.962  0.6662  1.0279 -0.4010
  955TIP3    H224281   6.590   5.860  17.097 -0.3875  0.3275  0.1366
  956TIP3   OH224282   0.558   0.555  14.763 -0.0383 -0.5422 -0.4844
  956TIP3    H124283   0.535   0.543  14.671 -0.2108 -1.3524 -0.3434
  956TIP3    H224284   0.486   0.514  14.811  0.0779 -0.1757  0.0066
  957TIP3   OH224285   1.256   0.482  14.748  0.0494  0.2994 -0.0659
  957TIP3    H124286   1.323   0.540  14.714 -0.3354  0.6274 -0.2689
  957TIP3    H224287   1.199   0.464  14.673  0.1474 -0.3079  0.0032
  958TIP3   OH224288   6.151   6.266  10.927 -0.1448  0.5601 -0.5237
  958TIP3    H124289   6.116   6.354  10.912  2.1276  1.7955  0.9801
  958TIP3    H224290   6.223   6.258  10.865  0.6868  0.4149  0.4396
  959TIP3   OH224291   0.045   6.419  12.359  0.0997 -0.0451 -0.4600
  959TIP3    H124292   0.065   6.358  12.287  0.6656  0.5355 -0.7999
  959TIP3    H224293  -0.045   6.447  12.343  0.6249  1.0173 -1.6393
  960TIP3   OH224294   6.230   6.589   5.731  0.2744  1.1602 -0.1354
  960TIP3    H124295   6.238   6.530   5.657  1.6851  1.5529 -0.3123
  960TIP3    H224296   6.157   6.554   5.783 -0.2712  0.4969 -1.3352
  961TIP3   OH224297   3.015   3.184   5.458 -0.7600  0.8751  0.1883
  961TIP3    H124298   3.038   3.121   5.390 -0.4500  0.4912  0.6445
  961TIP3    H224299   2.984   3.130   5.531  1.2272  1.1408  1.2594
  962TIP3   OH224300   4.948   5.577   0.051 -0.3747  0.2496 -0.5398
  962TIP3    H124301   4.884   5.573   0.122  0.0343 -0.1333 -0.1958
  962TIP3    H224302   4.979   5.487   0.041  0.5797  0.5519 -0.2890
  963TIP3   OH224303   2.847   0.764  16.132 -0.7966 -0.4446 -0.3139
  963TIP3    H124304   2.785   0.822  16.175  1.3799 -0.1322  2.5139
  963TIP3    H224305   2.840   0.681  16.180  0.9092 -0.4194  0.0179
  964TIP3   OH224306   3.712   5.470  16.489  0.0672 -0.2240  0.0286
  964TIP3    H124307   3.723   5.529  16.563 -1.1572  0.3698 -0.2433
  964TIP3    H224308   3.730   5.524  16.412  2.2188 -1.0646 -0.0862
  965TIP3   OH224309   2.290   6.358  15.624  0.1248 -0.4702  0.0278
  965TIP3    H124310   2.198   6.346  15.602  1.0120 -1.8149 -3.2765
  965TIP3    H224311   2.296   6.449  15.654 -2.2195 -0.3294  0.1355
  966TIP3   OH224312   2.565   5.268   1.718 -0.0294  0.1828  0.6508
  966TIP3    H124313   2.487   5.249   1.665  0.7946 -0.4716 -0.3405
  966TIP3    H224314   2.568   5.196   1.782  0.4072 -0.4366 -0.0557
  967TIP3   OH224315   2.178   3.736  13.066  0.2243  0.0136  0.0912
  967TIP3    H124316   2.185   3.655  13.117  2.1774  1.1891  1.7417
  967TIP3    H224317   2.111   3.787  13.112  1.1643  0.5880  0.8497
  968TIP3   OH224318   5.451   0.570   3.166  0.1018 -0.3514  0.5399
  968TIP3    H124319   5.377   0.510   3.156 -0.2470  0.2227 -0.3502
  968TIP3    H224320   5.457   0.616   3.083  0.6140  0.5785  1.0767
  969TIP3   OH224321   5.538   1.354   1.331  0.5801  0.4436  0.4288
  969TIP3    H124322   5.529   1.271   1.283 -2.0754  0.9587  0.0005
  969TIP3    H224323   5.466   1.354   1.394 -0.1701  2.9343 -0.3772
  970TIP3   OH224324   0.690   5.640   0.646  0.6327 -0.1605  0.1284
  970TIP3    H124325   0.630   5.637   0.571  0.2068 -0.7505  0.4933
  970TIP3    H224326   0.651   5.704   0.705  0.3598 -0.5491  0.3686
  971TIP3   OH224327   3.875   4.191   1.839  0.0723 -0.5007  0.2382
  971TIP3    H124328   3.832   4.116   1.880  2.0362 -0.7175  1.9588
  971TIP3    H224329   3.909   4.157   1.756  1.1216 -1.5878  1.0970
  972TIP3   OH224330   4.513   6.671  12.798  0.0555  0.0656 -0.1292
  972TIP3    H124331   4.444   6.720  12.845  1.8599  1.5573  1.0489
  972TIP3    H224332   4.518   6.588  12.844 -0.7939  0.0332 -0.0725
  973TIP3   OH224333   5.693   5.106  11.634 -0.5762 -0.3928  0.5598
  973TIP3    H124334   5.739   5.089  11.552 -0.7776 -1.2459  0.6167
  973TIP3    H224335   5.761   5.101  11.702 -1.0944 -3.9638  0.8966
  974TIP3   OH224336   6.466   2.044  14.758  0.3013  0.0645 -0.3892
  974TIP3    H124337   6.419   2.039  14.675 -2.1084 -1.1952  0.9732
  974TIP3    H224338   6.487   1.953  14.779  1.3112  0.4193  0.1504
  975TIP3   OH224339   1.292   2.111   5.349  0.6162  0.0065 -0.0857
  975TIP3    H124340   1.350   2.088   5.276  1.0498 -0.2489  0.3351
  975TIP3    H224341   1.336   2.183   5.392 -0.1153  0.7970 -0.6406
  976TIP3   OH224342   2.540   5.613   3.658  0.5188  0.1568  0.1145
  976TIP3    H124343   2.574   5.542   3.713 -0.2922  1.0478  1.8121
  976TIP3    H224344   2.618   5.649   3.616  0.9056 -1.8906 -0.9714
  977TIP3   OH224345   0.219   1.751   0.478  0.1177  0.3536  0.0699
  977TIP3    H124346   0.218   1.838   0.518  0.4196  0.5100 -0.2671
  977TIP3    H224347   0.171   1.696   0.540 -0.7403  0.9213 -0.0779
  978TIP3   OH224348   3.272   2.168   0.316  0.2525 -0.7595  0.0583
  978TIP3    H124349   3.200   2.122   0.358  0.3478 -2.3712 -1.5080
  978TIP3    H224350   3.351   2.121   0.342  0.4460 -0.8943 -0.7389
  979TIP3   OH224351   5.782   3.595  15.258  0.3530  0.0063  0.1543
  979TIP3    H124352   5.727   3.588  15.180  0.8677  0.0197 -0.2093
  979TIP3    H224353   5.853   3.654  15.233  0.8753 -0.4994  0.4263
  980TIP3   OH224354   3.557   4.087   2.455  0.0605 -0.4944 -0.3738
  980TIP3    H124355   3.481   4.144   2.464 -0.2331 -0.9493  0.1136
  980TIP3    H224356   3.628   4.133   2.501 -0.0614 -0.3117 -0.3731
  981TIP3   OH224357   0.188   0.594   5.397 -0.4349 -0.1307 -0.2955
  981TIP3    H124358   0.230   0.675   5.370 -0.7012  0.4034  0.8834
  981TIP3    H224359   0.122   0.578   5.329  0.8784 -0.3813 -1.5432
  982TIP3   OH224360   4.575   1.660   3.846  0.1609 -0.1385  0.0275
  982TIP3    H124361   4.543   1.637   3.759  1.9632 -0.4316 -0.5736
  982TIP3    H224362   4.591   1.754   3.842 -1.0036  0.0887  0.4653
  983TIP3   OH224363   2.157   5.079   3.083 -0.9886 -0.1846 -0.3829
  983TIP3    H124364   2.092   5.150   3.075  0.3224  0.9915 -0.7938
  983TIP3    H224365   2.207   5.084   3.002  0.2520 -0.4374  0.3650
  984TIP3   OH224366   6.585   1.312   2.767  0.3345 -0.3860 -0.1278
  984TIP3    H124367   6.531   1.307   2.847  2.0052 -1.6578  0.9406
  984TIP3    H224368   6.620   1.401   2.768  0.3972 -0.4146  0.5989
  985TIP3   OH224369   0.802   1.863   2.780 -0.3554  0.2288  0.7378
  985TIP3    H124370   0.773   1.802   2.849  0.9801 -1.4618 -0.1411
  985TIP3    H224371   0.895   1.876   2.797 -0.0496 -0.0727 -0.6246
  986TIP3   OH224372   1.202   6.407  15.928  0.5740  0.1140 -0.2100
  986TIP3    H124373   1.161   6.339  15.875  0.6925 -1.1019  1.2137
  986TIP3    H224374   1.158   6.487  15.903 -0.0791 -0.6005 -1.3960
  987TIP3   OH224375   6.346   5.728  15.713  0.4342 -0.1705 -0.3844
  987TIP3    H124376   6.391   5.707  15.795 -1.1622 -1.8261  0.1050
  987TIP3    H224377   6.310   5.816  15.728  3.0152  0.9711 -0.6192
  988TIP3   OH224378   3.944   2.472  12.500  0.7096  0.4309 -0.3430
  988TIP3    H124379   3.977   2.549  12.548  0.4364  0.3858 -0.0794
  988TIP3    H224380   3.887   2.509  12.432  0.9071  0.4823 -0.4811
  989TIP3   OH224381   4.119   5.319  16.384 -0.2532 -0.3835  0.9379
  989TIP3    H124382   4.183   5.264  16.429  1.0560  1.2834  1.1524
  989TIP3    H224383   4.089   5.381  16.451 -1.0129 -0.2066  0.4491
  990TIP3   OH224384   0.650   4.392  15.063  0.1080 -0.2198  0.3758
  990TIP3    H124385   0.630   4.298  15.070  3.0382 -0.9688 -0.4095
  990TIP3    H224386   0.711   4.408  15.136  1.9412  0.3613 -1.2498
  991TIP3   OH224387   3.405   5.726   1.175 -0.3779  0.1866 -0.5781
  991TIP3    H124388   3.447   5.662   1.117 -1.2908  0.3344 -1.4108
  991TIP3    H224389   3.404   5.683   1.261 -0.9063 -0.8803 -1.1069
  992TIP3   OH224390   4.773   3.910  14.127 -0.1143  0.5344 -0.0108
  992TIP3    H124391   4.679   3.916  14.107  0.0792  1.2809 -0.7209
  992TIP3    H224392   4.779   3.929  14.221 -0.8870 -1.6097  0.5145
  993TIP3   OH224393   5.840   6.439  10.886  0.1453  0.3690  0.0119
  993TIP3    H124394   5.913   6.500  10.877  0.5186  0.2065  1.7899
  993TIP3    H224395   5.763   6.490  10.861  0.6786  0.9792 -0.4054
  994TIP3   OH224396   4.940   1.846  14.771 -0.1196  0.7878 -0.3642
  994TIP3    H124397   4.953   1.751  14.760  0.0021  0.7954 -0.2769
  994TIP3    H224398   4.958   1.862  14.863  0.5917  1.0169 -0.5381
  995TIP3   OH224399   6.551   0.232  15.176  0.1524 -0.7233  0.0926
  995TIP3    H124400   6.503   0.226  15.259 -0.5470 -0.9026 -0.3146
  995TIP3    H224401   6.607   0.155  15.175  0.9490 -0.1766  0.8702
  996TIP3   OH224402   1.055   4.843  12.686 -0.0173  0.1274 -0.0445
  996TIP3    H124403   1.115   4.773  12.711  1.0726  0.3188 -2.0843
  996TIP3    H224404   1.053   4.901  12.763 -0.5380 -1.8481  1.4625
  997TIP3   OH224405   0.653   2.026  11.737 -0.0223  0.1393  0.0615
  997TIP3    H124406   0.696   2.105  11.706  1.7675 -1.1893 -0.9001
  997TIP3    H224407   0.714   1.955  11.719 -1.4877 -1.4670  1.1109
  998TIP3   OH224408   5.477   4.598   3.895 -0.1495 -0.0959 -0.0313
  998TIP3    H124409   5.433   4.580   3.812  1.7493  0.6646 -1.2435
  998TIP3    H224410   5.565   4.561   3.884  0.7505  1.7123  0.8807
  999TIP3   OH224411   3.159   5.498   5.171  0.1882 -0.2723 -0.4359
  999TIP3    H124412   3.142   5.412   5.134 -0.0573  0.1832 -1.4138
  999TIP3    H224413   3.092   5.555   5.132  0.5783  0.4364 -0.0925
 1000TIP3   OH224414   0.194   5.086  14.974  0.6667 -0.0866  0.5623
 1000TIP3    H124415   0.143   5.143  15.031  0.5806  0.0906  0.3039
 1000TIP3    H224416   0.190   5.127  14.888 -0.3580 -1.0900  0.1198
 1001TIP3   OH224417   0.087   0.600  13.260 -0.0749  0.6132  0.1191
 1001TIP3    H124418   0.080   0.678  13.205  1.4772  2.7887  2.8225
 1001TIP3    H224419   0.006   0.599  13.311 -0.1136  0.4480  0.0551
 1002TIP3   OH224420   0.726   3.063  12.426 -0.3355 -0.1371  0.6068
 1002TIP3    H124421   0.772   3.048  12.343  0.0844  0.2272  0.7728
 1002TIP3    H224422   0.639   3.027  12.412 -0.4883  0.5455 -0.2313
 1003TIP3   OH224423   6.334   4.488  16.882  0.1927 -0.7104  0.1677
 1003TIP3    H124424   6.367   4.470  16.970  0.1073  0.7529  0.5164
 1003TIP3    H224425   6.327   4.583  16.878 -2.0827 -0.8837 -0.5883
 1004TIP3   OH224426   2.729   6.293   0.572  0.2395 -0.2316 -0.4746
 1004TIP3    H124427   2.764   6.382   0.575 -1.8669  0.5835  1.1635
 1004TIP3    H224428   2.657   6.297   0.509 -1.8100 -0.0184  1.8430
 1005TIP3   OH224429   3.200   0.126  17.136  0.4317 -0.2095 -0.3352
 1005TIP3    H124430   3.245   0.155  17.056  1.4740  2.3549  1.1131
 1005TIP3    H224431   3.246   0.171  17.207 -2.4439  0.0159  1.4608
 1006TIP3   OH224432   1.939   4.356   4.591 -0.2112 -0.2801  0.2137
 1006TIP3    H124433   1.921   4.367   4.497 -0.4111 -0.4594  0.2302
 1006TIP3    H224434   1.856   4.377   4.634 -0.0571  0.0169  0.3630
 1007TIP3   OH224435   2.655   6.665  14.797 -0.2570  0.0084 -0.1112
 1007TIP3    H124436   2.733   6.693  14.748 -0.6954  2.3265  0.4489
 1007TIP3    H224437   2.590   6.647  14.729 -0.0258  0.5822 -0.4922
 1008TIP3   OH224438   3.150   2.788  14.659  0.0952 -0.1629  0.0045
 1008TIP3    H124439   3.224   2.832  14.617 -0.2657  0.6059  0.1737
 1008TIP3    H224440   3.184   2.701  14.681  0.1883 -0.6938 -2.1625
 1009TIP3   OH224441   5.360   0.463  10.258 -0.4583 -0.1306 -0.8093
 1009TIP3    H124442   5.280   0.428  10.295 -0.4381  0.3553 -0.3077
 1009TIP3    H224443   5.424   0.393  10.269 -0.3097  0.2042  0.5744
 1010TIP3   OH224444   5.244   3.278   3.783 -0.2422  0.0603  0.1529
 1010TIP3    H124445   5.303   3.207   3.758 -1.7137 -1.1637  0.0931
 1010TIP3    H224446   5.302   3.351   3.806  1.3120 -1.5019  1.2809
 1011TIP3   OH224447   2.629   6.528  13.621  0.1074  0.4715 -0.3168
 1011TIP3    H124448   2.684   6.575  13.559  0.4131  0.5104 -0.0220
 1011TIP3    H224449   2.684   6.456  13.653 -0.9022 -1.0871 -1.9885
 1012TIP3   OH224450   0.182   2.021   1.388 -0.2096 -0.8544 -0.7196
 1012TIP3    H124451   0.141   2.084   1.329 -2.0854 -2.9045 -1.6925
 1012TIP3    H224452   0.275   2.022   1.364 -0.3869  0.7940 -1.3768
 1013TIP3   OH224453   6.658   6.236  14.510 -0.1129  0.0694  0.4110
 1013TIP3    H124454   6.640   6.268  14.422  0.4749  1.6147  0.8485
 1013TIP3    H224455   6.741   6.189  14.502 -1.5126 -2.3556 -0.4556
 1014TIP3   OH224456   0.522   5.011   4.776 -0.2734  0.2498  0.9272
 1014TIP3    H124457   0.595   4.966   4.816 -0.3351 -0.1745  0.5647
 1014TIP3    H224458   0.537   5.104   4.794  0.9779  0.2698 -0.1632
 1015TIP3   OH224459   0.583   1.047  10.797 -0.4760  0.0600 -0.6702
 1015TIP3    H124460   0.493   1.073  10.816 -0.2560 -0.4905  1.3131
 1015TIP3    H224461   0.577   0.954  10.772 -0.2808 -0.5299  1.3731
 1016TIP3   OH224462   3.179   3.471  16.968  0.0631 -0.0719  0.0811
 1016TIP3    H124463   3.115   3.473  16.897 -1.2547 -1.0437  1.2116
 1016TIP3    H224464   3.156   3.394  17.019  1.7776 -0.0999  0.8612
 1017TIP3   OH224465   3.256   5.599   5.574  0.1650  0.4191 -0.4804
 1017TIP3    H124466   3.272   5.638   5.659 -0.0455 -1.0890  0.2764
 1017TIP3    H224467   3.328   5.630   5.518  1.9508 -0.8727  1.0306
 1018TIP3   OH224468   2.935   4.781  13.882  0.3330 -0.3393 -0.0162
 1018TIP3    H124469   2.888   4.828  13.813 -0.0624 -0.3731  0.2265
 1018TIP3    H224470   2.866   4.738  13.932  0.7291 -1.6772 -0.6006
 1019TIP3   OH224471   1.449   1.461   3.876  0.0020  0.2063  0.1420
 1019TIP3    H124472   1.470   1.506   3.958 -1.6179 -0.0135  0.7125
 1019TIP3    H224473   1.430   1.532   3.814 -1.4091  0.3544  0.7177
 1020TIP3   OH224474   0.800   1.892   0.565  0.2078 -0.4075  0.1302
 1020TIP3    H124475   0.773   1.875   0.655  0.4058 -2.7428 -0.2219
 1020TIP3    H224476   0.719   1.913   0.519 -0.2356 -1.5862  0.3473
 1021TIP3   OH224477   3.049   5.943  12.482 -0.4464 -0.3657 -0.5509
 1021TIP3    H124478   3.083   5.911  12.399  0.6763  1.1874 -0.7053
 1021TIP3    H224479   3.112   5.913  12.548 -0.7619 -0.6699 -0.3843
 1022TIP3   OH224480   2.682   4.716  12.153 -0.2203  0.0495  0.3905
 1022TIP3    H124481   2.688   4.811  12.144 -0.3542  0.0169 -0.0700
 1022TIP3    H224482   2.750   4.694  12.216  0.0714  0.4090  0.2025
 1023TIP3   OH224483   3.955   5.564   0.181  0.6593  0.1562 -0.0413
 1023TIP3    H124484   3.925   5.478   0.212  2.4923 -0.6455 -0.4323
 1023TIP3    H224485   3.924   5.625   0.248  3.1648 -1.3605  2.6371
 1024TIP3   OH224486   2.620   3.269  11.252  0.4218 -0.3695  0.3160
 1024TIP3    H124487   2.702   3.279  11.203 -0.0454 -2.4342 -0.9282
 1024TIP3    H224488   2.576   3.353  11.243  0.6961 -0.4752 -2.1583
 1025TIP3   OH224489   5.997   2.324   4.066  0.3039 -0.4047  0.0611
 1025TIP3    H124490   6.001   2.409   4.108 -2.3960 -0.0472 -0.3037
 1025TIP3    H224491   6.039   2.337   3.981  2.0029 -0.0693  0.9265
 1026TIP3   OH224492   1.188   5.366   1.137 -0.2050 -0.5677 -0.0529
 1026TIP3    H124493   1.236   5.328   1.211  0.6676 -2.4039 -1.5365
 1026TIP3    H224494   1.119   5.303   1.118 -1.9406  1.0711  0.7294
 1027TIP3   OH224495   2.969   0.283   1.515  1.0131 -0.1178 -0.5605
 1027TIP3    H124496   3.039   0.347   1.504  1.3938 -0.4732 -0.1905
 1027TIP3    H224497   2.893   0.336   1.542  0.6332  0.4909 -2.7384
 1028TIP3   OH224498   2.496   2.605  14.601  0.6474  0.9535 -0.3747
 1028TIP3    H124499   2.423   2.665  14.589  0.1690  0.9911  2.4514
 1028TIP3    H224500   2.456   2.518  14.602  0.3625  1.0613  2.7629
 1029TIP3   OH224501   4.541   5.925   0.980 -0.4102 -0.3027 -0.2706
 1029TIP3    H124502   4.563   5.833   0.965 -1.9008 -0.4134 -2.0365
 1029TIP3    H224503   4.572   5.970   0.901  1.4490  0.9298  1.1366
 1030TIP3   OH224504   3.817   5.382   0.922  0.3645  0.2961 -0.3919
 1030TIP3    H124505   3.881   5.417   0.984  1.2162  1.1555 -1.7499
 1030TIP3    H224506   3.751   5.451   0.915 -0.4305 -0.3462  0.5528
 1031TIP3   OH224507   5.023   0.474  11.304 -0.1927  0.7206  0.0453
 1031TIP3    H124508   5.095   0.457  11.364  0.2920 -1.8911 -1.2234
 1031TIP3    H224509   5.018   0.570  11.299  2.6110  0.9482  0.8079
 1032TIP3   OH224510   0.989   5.958  15.195 -0.5075 -0.3745 -0.1470
 1032TIP3    H124511   0.909   5.990  15.154 -0.7088 -2.1982 -1.2234
 1032TIP3    H224512   0.968   5.868  15.221  0.7031 -0.3626  0.9447
 1033TIP3   OH224513   1.486   4.742   0.931  0.1286 -0.4124  0.2474
 1033TIP3    H124514   1.496   4.774   0.841 -1.9718 -0.4582 -0.0203
 1033TIP3    H224515   1.556   4.785   0.980  1.0003 -0.0307 -1.3197
 1034TIP3   OH224516   0.665   4.931   3.053 -0.4778 -0.5615 -0.0371
 1034TIP3    H124517   0.720   4.894   2.984 -1.7566  0.5031 -1.6827
 1034TIP3    H224518   0.576   4.907   3.027 -0.8809 -1.3342  1.9981
 1035TIP3   OH224519   1.232   5.843  17.225 -0.1054  0.3097  0.5088
 1035TIP3    H124520   1.277   5.769  17.184 -1.5126  0.2442 -0.9500
 1035TIP3    H224521   1.300   5.909  17.238  0.0463  1.0816 -3.6661
 1036TIP3   OH224522   1.480   0.309  15.276 -0.0396 -0.1814 -0.2822
 1036TIP3    H124523   1.419   0.268  15.215  1.0878  0.4695 -1.8903
 1036TIP3    H224524   1.489   0.246  15.347 -2.2786 -0.4516 -0.1927
 1037TIP3   OH224525   4.145   2.922  14.163 -0.0876 -0.3865  0.3881
 1037TIP3    H124526   4.207   2.902  14.233  0.7165 -0.3326 -0.3070
 1037TIP3    H224527   4.189   2.989  14.110 -1.3454  0.7392  0.7423
 1038TIP3   OH224528   6.725   1.920  11.906 -0.0447  0.1927  0.5653
 1038TIP3    H124529   6.709   1.961  11.991  0.2792  0.5507  0.4561
 1038TIP3    H224530   6.724   1.826  11.924 -1.1141  0.2325  0.7646
 1039TIP3   OH224531   5.642   2.395   1.752  1.0475  0.8478 -0.0786
 1039TIP3    H124532   5.579   2.459   1.785 -0.6542 -0.8511  0.0434
 1039TIP3    H224533   5.662   2.425   1.663 -2.5973 -0.4191 -1.4293
 1040TIP3   OH224534   4.634   6.328  16.036  0.4308  0.3764 -0.6952
 1040TIP3    H124535   4.716   6.311  15.991  0.7016  1.3626 -0.5866
 1040TIP3    H224536   4.646   6.415  16.076 -0.2234  0.0228  0.3011
 1041TIP3   OH224537   1.366   5.760   3.597  0.4602  0.7250  0.8322
 1041TIP3    H124538   1.305   5.777   3.526  1.1260  1.3548  0.4074
 1041TIP3    H224539   1.327   5.803   3.673  1.1645  2.4893  0.2042
 1042TIP3   OH224540   6.558   0.047   1.881  0.3166 -0.4123 -0.0478
 1042TIP3    H124541   6.543  -0.047   1.875  2.0633 -0.8270  1.4127
 1042TIP3    H224542   6.537   0.069   1.972  1.2917  0.3160  0.0173
 1043TIP3   OH224543   4.003   3.514  12.656  0.3403 -0.4341 -0.5625
 1043TIP3    H124544   3.962   3.445  12.708 -0.9450  0.0963 -0.8470
 1043TIP3    H224545   3.929   3.558  12.613  1.4376 -1.8014 -4.0110
 1044TIP3   OH224546   6.738   1.584   0.941  0.6703  0.0085  0.2401
 1044TIP3    H124547   6.805   1.631   0.989  1.4461 -0.8709  0.0255
 1044TIP3    H224548   6.680   1.652   0.907  1.6037  0.7820  0.1925
 1045TIP3   OH224549   3.330   4.555   2.631 -0.0625 -0.5774  0.6644
 1045TIP3    H124550   3.402   4.594   2.680 -0.1236  1.4713 -0.8452
 1045TIP3    H224551   3.370   4.518   2.553 -0.5315 -0.1113  0.1962
 1046TIP3   OH224552   0.680   5.074  14.358  0.1401  0.2460 -0.3419
 1046TIP3    H124553   0.726   5.157  14.368  1.2402  0.2059 -4.2964
 1046TIP3    H224554   0.712   5.020  14.431  1.6704  2.2939  0.5413
 1047TIP3   OH224555   0.457   1.901   5.372  0.1696  0.0889 -0.1755
 1047TIP3    H124556   0.413   1.981   5.344  0.4988 -0.2071 -1.5785
 1047TIP3    H224557   0.532   1.932   5.424  0.4950  0.7021 -0.9947
 1048TIP3   OH224558   3.379   5.586   0.403  0.0353  0.0348 -0.2128
 1048TIP3    H124559   3.295   5.574   0.447  1.2650  1.0318  2.5059
 1048TIP3    H224560   3.420   5.500   0.403  1.1951  0.5034  3.1820
 1049TIP3   OH224561   3.841   3.021   1.231 -0.3188 -0.4830  0.2875
 1049TIP3    H124562   3.916   3.080   1.237 -0.3187 -0.4649  0.1293
 1049TIP3    H224563   3.809   3.013   1.320 -1.4153  1.1822  0.0635
 1050TIP3   OH224564   0.538   0.824   5.258  0.1265  0.2376  0.0603
 1050TIP3    H124565   0.549   0.907   5.212  2.8614 -0.1332 -0.0352
 1050TIP3    H224566   0.500   0.847   5.342 -1.0463  1.3459 -0.7486
 1051TIP3   OH224567   5.230   2.823   3.970 -0.4958 -0.1815 -0.1231
 1051TIP3    H124568   5.272   2.785   4.047 -1.0108  0.0305  0.2665
 1051TIP3    H224569   5.300   2.831   3.905 -0.3706 -1.8097 -0.2181
 1052TIP3   OH224570   2.432   6.377   4.106  0.3249  0.3048 -0.3606
 1052TIP3    H124571   2.403   6.441   4.170 -0.0359  0.6039 -0.8182
 1052TIP3    H224572   2.353   6.328   4.083  0.3424  0.5532 -0.9690
 1053TIP3   OH224573   4.583   3.065   2.321 -0.4211  0.2678 -0.3681
 1053TIP3    H124574   4.642   3.000   2.284  0.3664 -0.4797  2.0539
 1053TIP3    H224575   4.496   3.040   2.291  0.2592  0.1155 -2.2393
 1054TIP3   OH224576   3.896   1.443  14.929 -0.0346 -0.4938 -0.3403
 1054TIP3    H124577   3.946   1.402  14.859 -1.7567  0.2575 -2.0768
 1054TIP3    H224578   3.816   1.390  14.936 -1.0607  0.9496 -0.7813
 1055TIP3   OH224579   4.177   6.563  16.747  0.4764  1.1532  0.2703
 1055TIP3    H124580   4.178   6.597  16.658  0.7277 -0.5490 -0.3764
 1055TIP3    H224581   4.268   6.569  16.776  0.6378  0.3639 -0.0873
 1056TIP3   OH224582   3.669   1.434   6.516  0.3899  0.0093 -0.1875
 1056TIP3    H124583   3.641   1.349   6.483  0.6407 -0.6498  1.2340
 1056TIP3    H224584   3.599   1.461   6.575 -0.4806  1.5871 -1.8935
 1057TIP3   OH224585   5.357   4.509  14.667  0.0236  0.6831  0.0088
 1057TIP3    H124586   5.386   4.588  14.621  1.1723  0.6306  0.6044
 1057TIP3    H224587   5.409   4.508  14.748  1.0007 -1.3628 -0.5946
 1058TIP3   OH224588   5.263   6.355  11.660 -0.1882  0.1833 -0.2210
 1058TIP3    H124589   5.309   6.403  11.729  2.1080 -1.2231 -0.6905
 1058TIP3    H224590   5.176   6.338  11.696  0.5584  0.5554  1.8210
 1059TIP3   OH224591   3.929   1.800   3.925 -0.3468 -0.0592 -0.1290
 1059TIP3    H124592   3.844   1.796   3.969 -0.9461 -0.9761 -1.3560
 1059TIP3    H224593   3.992   1.775   3.993 -0.9849  1.0744  0.9197
 1060TIP3   OH224594   2.531   4.384  13.434 -0.3458 -0.3017 -0.1983
 1060TIP3    H124595   2.479   4.322  13.383 -2.5358  1.1109  0.2486
 1060TIP3    H224596   2.508   4.470  13.398  1.8128  0.3626 -0.0834
 1061TIP3   OH224597   1.269   6.703  12.820 -0.1916 -0.0734  0.4037
 1061TIP3    H124598   1.305   6.791  12.829 -0.7401  0.4620 -2.1301
 1061TIP3    H224599   1.335   6.654  12.770 -1.7521  0.1804 -2.0048
 1062TIP3   OH224600   4.403   0.136  14.815  0.0773  0.6712 -0.6780
 1062TIP3    H124601   4.390   0.209  14.877 -5.2510  1.1659 -2.0999
 1062TIP3    H224602   4.404   0.178  14.729 -0.0721 -0.6498 -1.3367
 1063TIP3   OH224603   6.158   5.480   3.464  0.0432  0.1280  0.4651
 1063TIP3    H124604   6.125   5.473   3.554 -1.9844  0.6130 -0.2045
 1063TIP3    H224605   6.189   5.570   3.456 -2.5138  1.0031 -0.1669
 1064TIP3   OH224606   0.632   1.355   2.655  0.0042 -0.0572 -0.4986
 1064TIP3    H124607   0.634   1.396   2.742 -1.1092  2.3786 -1.5743
 1064TIP3    H224608   0.721   1.321   2.644  0.9370  1.8916  0.5707
 1065TIP3   OH224609   4.083   2.723   4.989 -0.3319  0.1576 -0.0246
 1065TIP3    H124610   4.073   2.689   4.900 -0.6054  0.9195 -0.2838
 1065TIP3    H224611   4.175   2.707   5.011 -0.0895  0.6172 -0.7069
 1066TIP3   OH224612   3.792   2.022  16.259  0.5419 -0.1029  0.1283
 1066TIP3    H124613   3.769   1.931  16.239  2.1210 -0.2940 -0.9783
 1066TIP3    H224614   3.722   2.053  16.317 -0.5744 -1.6904 -0.3304
 1067TIP3   OH224615   3.768   3.242   2.354  0.2008 -0.2184 -0.1930
 1067TIP3    H124616   3.831   3.224   2.285  0.9027  0.1684  0.3377
 1067TIP3    H224617   3.817   3.294   2.418 -0.2544 -1.1401  0.9107
 1068TIP3   OH224618   0.658   4.174  15.227 -0.0615 -0.1186  0.0160
 1068TIP3    H124619   0.749   4.145  15.216 -0.0283  0.0624 -0.1836
 1068TIP3    H224620   0.621   4.112  15.290 -0.0327 -0.6880 -0.5196
 1069TIP3   OH224621   5.353   5.717   5.574  0.1385  0.0662  0.0560
 1069TIP3    H124622   5.355   5.632   5.531  0.1703  0.4156 -0.6469
 1069TIP3    H224623   5.429   5.717   5.633 -1.4532 -1.4801  2.1926
 1070TIP3   OH224624   3.269   4.266  14.880  0.0168  0.3813 -0.6199
 1070TIP3    H124625   3.236   4.270  14.970  1.4427  2.1289 -0.1395
 1070TIP3    H224626   3.198   4.299  14.826 -0.9078 -0.8274 -0.1739
 1071TIP3   OH224627   2.293   0.161  14.791 -0.3935  0.0020 -0.8889
 1071TIP3    H124628   2.374   0.150  14.742 -0.6941 -1.4964 -1.0792
 1071TIP3    H224629   2.224   0.133  14.731 -1.0424  1.0289 -0.6483
 1072TIP3   OH224630   1.907   6.715  14.179 -0.2199  0.2584 -0.0183
 1072TIP3    H124631   1.892   6.809  14.173  2.6829  0.6992 -1.1355
 1072TIP3    H224632   1.948   6.703  14.265 -0.1804  0.0687 -0.0634
 1073TIP3   OH224633   4.545   2.885   3.616 -0.6399  0.2551  0.2360
 1073TIP3    H124634   4.507   2.828   3.682 -1.2317 -0.4726 -0.7226
 1073TIP3    H224635   4.485   2.880   3.541  0.1203  0.8988 -0.4379
 1074TIP3   OH224636   3.076   3.781  16.266 -0.0503 -0.1589  0.3864
 1074TIP3    H124637   3.033   3.734  16.337 -0.3168  3.6865  2.9265
 1074TIP3    H224638   3.004   3.827  16.220  0.5489  0.6080  0.1991
 1075TIP3   OH224639   5.535   5.655  12.313 -0.6328  0.0970  0.6019
 1075TIP3    H124640   5.484   5.636  12.234  1.1484  1.0142 -0.8116
 1075TIP3    H224641   5.523   5.578  12.369 -0.8965 -1.1355 -1.1164
 1076TIP3   OH224642   3.306   0.596  16.442 -0.3556 -0.1981 -0.1596
 1076TIP3    H124643   3.301   0.504  16.416  0.0697  0.1909 -1.6308
 1076TIP3    H224644   3.346   0.640  16.368  0.4244  1.0188  0.9559
 1077TIP3   OH224645   0.971   3.634   1.302 -0.2154  0.3085  0.1817
 1077TIP3    H124646   1.021   3.700   1.254  0.0344  0.6860  0.9598
 1077TIP3    H224647   1.037   3.581   1.346 -0.4744  0.5091  0.8196
 1078TIP3   OH224648   4.968   4.816  15.743 -0.4783  0.6066  0.0673
 1078TIP3    H124649   5.053   4.858  15.754 -0.1146 -0.3459  1.0642
 1078TIP3    H224650   4.935   4.805  15.832 -0.5460 -1.2181 -0.1623
 1079TIP3   OH224651   3.636   1.342  12.909 -0.3214  0.5696  0.3053
 1079TIP3    H124652   3.554   1.315  12.950  0.0491  1.4433  1.6631
 1079TIP3    H224653   3.676   1.402  12.972  0.3334  1.8387 -1.2806
 1080TIP3   OH224654   1.356   3.520   1.213 -0.3302  0.3274  0.3558
 1080TIP3    H124655   1.326   3.453   1.152 -1.0064  0.8071  0.1547
 1080TIP3    H224656   1.390   3.590   1.156 -0.8773  0.7368  0.5295
 1081TIP3   OH224657   2.739   4.234   4.033  0.2193  0.4544  0.1102
 1081TIP3    H124658   2.776   4.169   3.973  0.7880 -0.3210  1.2730
 1081TIP3    H224659   2.801   4.236   4.106  0.3917  2.5672 -0.0658
 1082TIP3   OH224660   2.049   1.703   5.820 -0.5083  0.9203  0.2679
 1082TIP3    H124661   2.081   1.633   5.877  0.8339  2.5380  1.5551
 1082TIP3    H224662   1.960   1.677   5.797  0.2517 -1.5892  0.0800
 1083TIP3   OH224663   4.718   3.894   3.078  0.1184 -0.5497 -0.3934
 1083TIP3    H124664   4.739   3.837   3.152  0.8900  1.3374  0.8828
 1083TIP3    H224665   4.634   3.934   3.100  0.8970  0.8929  0.0278
 1084TIP3   OH224666   3.942   3.573   3.040  0.5098 -0.1003  0.0234
 1084TIP3    H124667   3.862   3.540   3.080  0.3496 -0.1756 -0.3604
 1084TIP3    H224668   4.010   3.554   3.105  0.1201  0.5448  0.6154
 1085TIP3   OH224669   4.207   0.234  14.327  0.1651 -0.1762 -0.3297
 1085TIP3    H124670   4.192   0.168  14.260 -1.9858  1.5669 -1.6362
 1085TIP3    H224671   4.285   0.282  14.298  2.4333 -2.7753  1.2146
 1086TIP3   OH224672   5.497   2.714   1.527  0.1841  0.0285  0.0207
 1086TIP3    H124673   5.506   2.658   1.450  0.6243 -0.1476  0.1916
 1086TIP3    H224674   5.506   2.803   1.494 -0.7380  0.0068 -0.2842
 1087TIP3   OH224675   1.939   1.998  14.225 -0.4384 -0.3484  0.2553
 1087TIP3    H124676   1.996   2.057  14.177 -1.1917 -0.0513 -0.2836
 1087TIP3    H224677   1.921   1.927  14.164 -2.9422  0.9773 -0.6159
 1088TIP3   OH224678   1.465   1.888   3.675 -0.1594 -0.4535  0.4947
 1088TIP3    H124679   1.481   1.938   3.595  0.4971 -0.4241  0.6464
 1088TIP3    H224680   1.517   1.933   3.742 -0.6396 -0.5285  0.9213
 1089TIP3   OH224681   5.037   6.636  16.510 -0.0150  0.4013 -0.5336
 1089TIP3    H124682   4.964   6.681  16.552 -1.4829 -1.8370 -0.6021
 1089TIP3    H224683   5.016   6.640  16.416 -0.5475 -1.0493 -0.4872
 1090TIP3   OH224684   5.391   4.079   2.250  0.7503 -0.1033  0.1401
 1090TIP3    H124685   5.360   4.160   2.290  1.3348  0.0917  0.1952
 1090TIP3    H224686   5.357   4.082   2.161  0.1642 -0.1381  0.3577
 1091TIP3   OH224687   3.919   4.628  15.594  0.5348  0.1159  0.8096
 1091TIP3    H124688   3.829   4.652  15.571  0.5840 -0.2796  0.1792
 1091TIP3    H224689   3.909   4.554  15.654  0.4472 -0.8195 -0.3222
 1092TIP3   OH224690   1.859   5.728  12.664 -0.2704 -0.1844 -0.2269
 1092TIP3    H124691   1.936   5.784  12.658  0.5786 -1.0846  1.8719
 1092TIP3    H224692   1.785   5.787  12.656  0.6235  0.8726 -0.8386
 1093TIP3   OH224693   3.484   2.347  11.912  0.5429  0.3416 -0.2550
 1093TIP3    H124694   3.517   2.434  11.892 -0.8696  1.0454  0.3959
 1093TIP3    H224695   3.440   2.357  11.996  1.9510 -1.4141  0.7210
 1094TIP3   OH224696   4.539   4.633  13.072 -0.1655  0.0808 -0.2829
 1094TIP3    H124697   4.623   4.590  13.083 -0.4638 -0.4755 -0.1823
 1094TIP3    H224698   4.481   4.566  13.036 -1.3909 -0.4563  2.4729
 1095TIP3   OH224699   2.961   4.154   2.581 -0.0728  0.2993 -0.0009
 1095TIP3    H124700   2.943   4.142   2.488 -0.4956  0.0955  0.1097
 1095TIP3    H224701   2.901   4.223   2.609  0.5874  0.9095 -0.0520
 1096TIP3   OH224702   4.341   5.258   2.495 -0.7849  0.3357  0.1211
 1096TIP3    H124703   4.412   5.298   2.544  0.7368  0.4595 -2.0890
 1096TIP3    H224704   4.325   5.319   2.422 -0.0450 -1.8513 -1.9432
 1097TIP3   OH224705   4.508   1.084   2.937 -0.0107 -0.1675 -0.2300
 1097TIP3    H124706   4.417   1.053   2.943  0.1254 -0.1494  2.6309
 1097TIP3    H224707   4.516   1.116   2.847 -2.1433 -2.2968 -1.2617
 1098TIP3   OH224708   0.451   2.686   1.272  0.3659  0.2003  0.3752
 1098TIP3    H124709   0.499   2.763   1.242  1.4944 -0.5426  0.2326
 1098TIP3    H224710   0.495   2.661   1.354  2.0627 -2.1506 -1.1847
 1099TIP3   OH224711   0.817   4.148   0.074 -0.2095 -0.1666 -0.5437
 1099TIP3    H124712   0.807   4.217   0.008  2.0593  1.0548  0.3412
 1099TIP3    H224713   0.732   4.144   0.118 -1.1688  0.2547 -2.3020
 1100TIP3   OH224714   0.611   3.115  14.263  0.4896 -0.3082  0.5098
 1100TIP3    H124715   0.689   3.066  14.236  1.6589  0.0997  3.0348
 1100TIP3    H224716   0.635   3.207  14.254  0.0525 -0.1769  0.6376
 1101TIP3   OH224717   4.822   2.326   5.280  0.0587 -0.1971  0.0200
 1101TIP3    H124718   4.771   2.297   5.356 -0.9903 -0.4091 -0.7502
 1101TIP3    H224719   4.893   2.379   5.317 -1.0221  0.5407  1.0782
 1102TIP3   OH224720   2.157   2.249   3.503 -0.3070 -0.2670  0.0609
 1102TIP3    H124721   2.186   2.163   3.535 -0.5542 -0.8626 -1.2954
 1102TIP3    H224722   2.117   2.291   3.579  1.1520 -0.7530  1.1177
 1103TIP3   OH224723   4.336   5.637   6.516  0.1160  0.6020  0.0867
 1103TIP3    H124724   4.326   5.723   6.475 -0.4246 -0.0335 -1.1560
 1103TIP3    H224725   4.256   5.624   6.565 -1.1729 -0.4825 -2.2297
 1104TIP3   OH224726   2.525   1.283  13.113 -0.4469 -0.5172 -0.2352
 1104TIP3    H124727   2.485   1.314  13.032  2.2951  0.3324 -1.2969
 1104TIP3    H224728   2.485   1.337  13.182 -2.1411 -0.6524 -1.0825
 1105TIP3   OH224729   1.647   0.198   0.418  0.1989  0.0803 -0.0612
 1105TIP3    H124730   1.572   0.206   0.359 -0.8111  0.7903  1.2796
 1105TIP3    H224731   1.656   0.104   0.434  1.6107 -0.2699 -2.7376
 1106TIP3   OH224732   5.408   1.678   2.695  0.1325  0.7360 -0.5573
 1106TIP3    H124733   5.501   1.682   2.718 -0.3479  1.2734  1.4109
 1106TIP3    H224734   5.391   1.762   2.652  0.7894  0.2006 -1.8751
 1107TIP3   OH224735   3.751   4.840   4.849  0.1908  0.5054 -0.2637
 1107TIP3    H124736   3.659   4.864   4.836 -0.2815 -1.5505 -0.8864
 1107TIP3    H224737   3.792   4.920   4.882 -1.5696  1.7873 -1.0911
 1108TIP3   OH224738   0.708   6.608   4.568 -0.3733  0.1624  0.1189
 1108TIP3    H124739   0.724   6.578   4.657  1.1230  0.6798  0.0343
 1108TIP3    H224740   0.612   6.609   4.560 -0.5050 -3.0953  0.6035
 1109TIP3   OH224741   5.920   0.280   3.760  0.4743  0.0379  0.2476
 1109TIP3    H124742   5.952   0.329   3.835  1.1336  2.1831 -1.3757
 1109TIP3    H224743   5.858   0.217   3.797 -0.1153  1.8427  2.4481
 1110TIP3   OH224744   4.423   6.290  11.549  0.2460  0.2125  0.0949
 1110TIP3    H124745   4.358   6.338  11.498  1.1917  1.2197 -0.1690
 1110TIP3    H224746   4.507   6.320  11.515  0.9160  1.4142  2.7193
 1111TIP3   OH224747   6.732   2.684   3.884 -0.1830 -0.6773  0.4002
 1111TIP3    H124748   6.780   2.702   3.803  0.5493  0.2341  1.0285
 1111TIP3    H224749   6.666   2.619   3.859  0.7235 -1.1855 -0.6961
 1112TIP3   OH224750   0.943   5.512   1.598 -0.1375  0.5820  0.1018
 1112TIP3    H124751   0.891   5.567   1.540 -2.2438  0.4229  1.7937
 1112TIP3    H224752   0.972   5.571   1.668 -0.5898 -0.0012  0.7782
 1113TIP3   OH224753   3.074   6.525  14.269  0.0755 -0.1703  0.0139
 1113TIP3    H124754   3.072   6.502  14.176 -0.5671 -0.6276  0.1334
 1113TIP3    H224755   3.139   6.466  14.307 -0.4240 -0.7096  0.0379
 1114TIP3   OH224756   2.292   3.937  10.679  0.4134  0.0625  0.0654
 1114TIP3    H124757   2.209   3.897  10.655 -0.4891  2.6820 -1.3226
 1114TIP3    H224758   2.346   3.929  10.601  0.9397 -0.2051  0.4460
 1115TIP3   OH224759   6.000   2.046  15.266  0.1906 -0.0738 -0.0706
 1115TIP3    H124760   6.002   2.012  15.356  1.4685 -1.9115 -0.7671
 1115TIP3    H224761   6.054   2.124  15.268 -1.4493  1.0723  1.1952
 1116TIP3   OH224762   3.290   4.211  15.916  0.2234  0.2405 -0.1705
 1116TIP3    H124763   3.283   4.192  15.822 -1.7791  2.9007 -0.5960
 1116TIP3    H224764   3.211   4.172  15.954  0.8120 -0.4430  0.3646
 1117TIP3   OH224765   6.477   2.319  15.916 -0.3551  0.2097  0.5016
 1117TIP3    H124766   6.434   2.268  15.985  0.9796  0.2567  1.3721
 1117TIP3    H224767   6.556   2.354  15.957  0.1383  0.7404 -0.8788
 1118TIP3   OH224768   5.235   5.392   1.242  0.6261  0.4992 -0.0951
 1118TIP3    H124769   5.215   5.484   1.261 -0.8288  0.5209 -1.6480
 1118TIP3    H224770   5.213   5.381   1.150 -0.8573 -1.8633  0.5028
 1119TIP3   OH224771   3.887   3.323   4.954 -0.1269 -0.0013 -0.0712
 1119TIP3    H124772   3.953   3.265   4.990 -1.7718 -0.8571  1.6493
 1119TIP3    H224773   3.849   3.367   5.030 -0.5984  1.4988 -1.1458
 1120TIP3   OH224774   4.772   6.756  14.433 -0.1903 -0.2045  0.3069
 1120TIP3    H124775   4.757   6.785  14.523 -1.4228  0.9636 -0.2543
 1120TIP3    H224776   4.690   6.776  14.387 -0.0659 -2.0376 -0.7633
 1121TIP3   OH224777   0.115   1.345   3.883  0.5331 -0.3261 -0.3713
 1121TIP3    H124778   0.027   1.314   3.860  0.1978  1.3732 -1.4845
 1121TIP3    H224779   0.107   1.441   3.885  2.2625 -0.1726 -0.0724
 1122TIP3   OH224780   0.625   6.447  14.177 -0.1664 -0.0668  0.0618
 1122TIP3    H124781   0.546   6.471  14.128  0.1933  1.5753  0.2460
 1122TIP3    H224782   0.696   6.457  14.114  0.2072  1.2565  0.6790
 1123TIP3   OH224783   3.554   3.243   0.195 -0.8720 -0.2294 -0.0187
 1123TIP3    H124784   3.506   3.200   0.265 -1.4694 -0.2455 -0.4340
 1123TIP3    H224785   3.508   3.326   0.181  0.1243  0.4487  0.6153
 1124TIP3   OH224786   5.008   3.911  16.647 -0.3690  0.5378  0.1368
 1124TIP3    H124787   4.971   3.845  16.705 -0.6783 -0.3708 -1.0807
 1124TIP3    H224788   5.095   3.878  16.625 -1.1687 -0.3594 -1.8437
 1125TIP3   OH224789   5.146   5.525   0.938 -0.3590  0.6413 -0.2264
 1125TIP3    H124790   5.103   5.555   1.018 -0.1756  1.4448 -0.4234
 1125TIP3    H224791   5.079   5.473   0.893  0.5593 -2.6700  2.0203
 1126TIP3   OH224792   1.572   3.927   4.826  0.3354  0.7274  0.7176
 1126TIP3    H124793   1.607   3.907   4.740 -1.6437  2.7874 -0.6472
 1126TIP3    H224794   1.639   3.981   4.868  0.6426  1.0466 -0.1790
 1127TIP3   OH224795   6.213   5.804   5.176 -0.3243 -0.1131  0.0193
 1127TIP3    H124796   6.129   5.786   5.219  0.2660  1.3286  1.8442
 1127TIP3    H224797   6.189   5.828   5.086 -1.7355 -1.1914  0.0888
 1128TIP3   OH224798   1.779   2.576   2.174 -0.4751  0.3624  0.0141
 1128TIP3    H124799   1.696   2.530   2.159 -0.4900  0.8762 -1.5123
 1128TIP3    H224800   1.803   2.553   2.264 -2.2672  0.2110  0.4605
 1129TIP3   OH224801   1.443   3.507   4.301  0.4230 -0.0310  0.1877
 1129TIP3    H124802   1.514   3.472   4.355  0.8989  1.6261  0.6445
 1129TIP3    H224803   1.377   3.536   4.363  0.3726  0.6073 -0.1562
 1130TIP3   OH224804   6.341   4.988   5.142  0.0088  0.4346 -0.3524
 1130TIP3    H124805   6.351   4.908   5.092  0.2041  0.6004 -0.5812
 1130TIP3    H224806   6.414   4.987   5.204  0.5755  0.8984 -0.9965
 1131TIP3   OH224807   0.515   5.327  11.412 -0.9912  0.3800 -0.1940
 1131TIP3    H124808   0.460   5.249  11.405 -0.6008  0.0442  0.4349
 1131TIP3    H224809   0.589   5.310  11.355  0.0734 -0.5486  1.4523
 1132TIP3   OH224810   1.948   1.795   4.990  0.0479 -1.0263  0.3012
 1132TIP3    H124811   1.858   1.775   5.017  0.5731 -0.8921  2.2071
 1132TIP3    H224812   1.997   1.715   5.010  0.6050 -0.6417  0.4792
 1133TIP3   OH224813   0.159   4.981  13.689 -0.2763 -0.5179  0.5778
 1133TIP3    H124814   0.161   4.909  13.626 -0.2793 -1.2244  1.3812
 1133TIP3    H224815   0.248   5.015  13.689 -0.4714  0.0175 -0.4127
 1134TIP3   OH224816   3.831   1.588   0.416 -0.3613 -0.0800 -0.0473
 1134TIP3    H124817   3.740   1.557   0.423 -0.4551  0.2178  0.0489
 1134TIP3    H224818   3.832   1.641   0.336  0.0127 -1.0618 -0.6999
 1135TIP3   OH224819   3.756   4.945  16.673  0.2527 -0.2797 -0.3648
 1135TIP3    H124820   3.817   4.948  16.599  0.1227  0.1629 -0.4610
 1135TIP3    H224821   3.675   4.911  16.635  0.3861 -0.7019 -0.2737
 1136TIP3   OH224822   4.693   5.323   4.978  0.2528  0.7522  0.1928
 1136TIP3    H124823   4.711   5.263   4.906 -1.1903  0.8832 -0.2958
 1136TIP3    H224824   4.637   5.272   5.037 -0.6523  1.4731 -0.0326
 1137TIP3   OH224825   3.925   1.255  15.384 -0.0206 -0.9413  0.1075
 1137TIP3    H124826   3.871   1.205  15.445  1.4397 -1.6928  0.8109
 1137TIP3    H224827   3.999   1.198  15.365  0.6635  0.1754 -0.6254
 1138TIP3   OH224828   0.019   1.135   1.471 -0.2760  0.0249 -0.5090
 1138TIP3    H124829   0.111   1.154   1.453 -0.7494  0.1252 -3.0781
 1138TIP3    H224830   0.019   1.050   1.515  1.1297  0.7921  1.0259
 1139TIP3   OH224831   2.804   3.114  15.217  0.4888  0.1356 -0.4795
 1139TIP3    H124832   2.783   3.172  15.289  0.8811 -0.8130  0.4067
 1139TIP3    H224833   2.724   3.065  15.201  0.3933  0.3650 -0.7141
 1140TIP3   OH224834   2.018   6.524   3.378 -0.3837  0.2766  0.2815
 1140TIP3    H124835   1.948   6.473   3.338 -0.3599  1.0139 -0.7275
 1140TIP3    H224836   2.089   6.520   3.313  0.9379 -1.4249  1.7814
 1141TIP3   OH224837   2.135   0.764   3.437 -0.4264 -0.4625 -0.2674
 1141TIP3    H124838   2.077   0.700   3.478  1.5952 -2.9187 -1.1547
 1141TIP3    H224839   2.203   0.780   3.503  0.7016 -1.4974 -1.1668
 1142TIP3   OH224840   1.560   5.414  15.555 -0.7932  0.3039 -1.0749
 1142TIP3    H124841   1.490   5.455  15.504 -0.4950  1.9252 -0.2305
 1142TIP3    H224842   1.570   5.472  15.631 -1.5180 -2.2590  1.0478
 1143TIP3   OH224843   1.991   0.620   4.127 -0.0255 -0.5757  0.7167
 1143TIP3    H124844   2.072   0.671   4.130 -0.4812  0.0790  2.6702
 1143TIP3    H224845   1.921   0.686   4.127 -0.5817 -1.1526  1.2052
 1144TIP3   OH224846   4.866   2.786  13.930  0.5511  0.0355  0.1096
 1144TIP3    H124847   4.793   2.784  13.991  2.1212 -2.9240  1.9669
 1144TIP3    H224848   4.944   2.773  13.984  2.2588  0.6211 -2.1254
 1145TIP3   OH224849   5.569   0.636  14.548 -0.0417  0.2280  0.3473
 1145TIP3    H124850   5.553   0.669  14.637  0.3101  0.6437  0.2591
 1145TIP3    H224851   5.664   0.635  14.540 -0.0838  0.7627 -0.2355
 1146TIP3   OH224852   4.078   0.685  14.129 -0.0189  0.5370  0.4399
 1146TIP3    H124853   4.132   0.760  14.106 -0.6525  0.6941 -0.5585
 1146TIP3    H224854   4.086   0.626  14.054 -2.6006  1.3378 -0.5144
 1147TIP3   OH224855   1.945   1.491   1.566  0.0688 -0.0166  0.1494
 1147TIP3    H124856   1.871   1.552   1.566 -0.5372 -0.7328  1.6152
 1147TIP3    H224857   2.012   1.535   1.513 -0.0267  2.3244  1.8866
 1148TIP3   OH224858   3.728   5.148   5.865  0.2891 -0.0176 -0.5400
 1148TIP3    H124859   3.676   5.090   5.920  1.2724  0.2627  0.7091
 1148TIP3    H224860   3.665   5.185   5.803 -0.7825 -0.5490  0.2175
 1149TIP3   OH224861   6.261   5.063   1.602  0.5405  0.5255  0.0219
 1149TIP3    H124862   6.282   5.156   1.599 -0.1135  0.7115  0.8632
 1149TIP3    H224863   6.167   5.060   1.623 -0.4029 -0.2606 -3.8068
 1150TIP3   OH224864   1.547   3.623  11.477  0.1740  0.1013  0.3866
 1150TIP3    H124865   1.565   3.646  11.568 -0.7014  0.5647  0.4545
 1150TIP3    H224866   1.484   3.551  11.483  0.4663 -0.1742  0.1514
 1151TIP3   OH224867   0.338   3.171  16.558  0.3742 -0.6883 -0.2112
 1151TIP3    H124868   0.286   3.093  16.542  0.7447 -0.7850 -0.9897
 1151TIP3    H224869   0.369   3.198  16.471 -0.5597  0.8844 -0.0790
 1152TIP3   OH224870   0.101   2.484   2.991  0.6066  0.1920 -0.3665
 1152TIP3    H124871   0.019   2.533   2.990  0.2373 -0.3768  1.0262
 1152TIP3    H224872   0.108   2.447   2.902 -0.7443  0.0855 -0.4378
 1153TIP3   OH224873   1.266   4.944  13.389 -0.1723 -0.2931 -0.2467
 1153TIP3    H124874   1.210   4.882  13.437 -0.0431  0.3676  0.7578
 1153TIP3    H224875   1.345   4.951  13.442 -0.6394  1.5806  0.2266
 1154TIP3   OH224876   0.960   6.183  13.924 -0.3126 -0.3214  0.6858
 1154TIP3    H124877   0.988   6.105  13.971 -2.0418 -0.6632  1.1776
 1154TIP3    H224878   0.951   6.155  13.833 -0.5185 -0.5936  0.7892
 1155TIP3   OH224879   4.020   3.980  16.444 -0.0096  0.4749 -0.2047
 1155TIP3    H124880   4.038   3.964  16.352  0.6880  0.7284 -0.1165
 1155TIP3    H224881   3.944   3.926  16.464  1.5389 -1.7907 -0.2409
 1156TIP3   OH224882   5.408   1.735  13.035  0.3932  0.4234  0.1164
 1156TIP3    H124883   5.466   1.789  12.981 -2.9297  2.1447 -1.9542
 1156TIP3    H224884   5.406   1.650  12.991  1.3271  0.3570  0.1956
 1157TIP3   OH224885   6.620   2.034  12.141 -0.4975  0.3821 -0.4469
 1157TIP3    H124886   6.537   2.028  12.093 -1.0517 -0.6882  0.6270
 1157TIP3    H224887   6.616   1.964  12.206  1.2258  0.3606 -0.3313
 1158TIP3   OH224888   4.720   4.299   3.328  0.5857 -0.1033  0.1505
 1158TIP3    H124889   4.749   4.381   3.369 -1.1618  0.1480  0.9468
 1158TIP3    H224890   4.697   4.324   3.239 -0.9799  0.5295  0.7076
 1159TIP3   OH224891   2.024   6.153  12.590  0.0363 -0.0907 -0.4080
 1159TIP3    H124892   2.106   6.174  12.635 -1.3049 -0.1062  2.1338
 1159TIP3    H224893   2.042   6.172  12.498  2.8661 -0.0363  0.1103
 1160TIP3   OH224894   4.387   2.903   0.721  0.4369  0.1911  0.2100
 1160TIP3    H124895   4.371   2.857   0.638 -0.1614 -1.0834  1.0251
 1160TIP3    H224896   4.470   2.865   0.753 -0.0272 -0.2879  0.8533
 1161TIP3   OH224897   4.430   5.815   2.049 -0.2955  0.3987  0.1856
 1161TIP3    H124898   4.390   5.760   1.981  1.9004 -0.9562 -0.0685
 1161TIP3    H224899   4.521   5.785   2.053  0.6539  3.2651  0.8600
 1162TIP3   OH224900   1.299   5.889   2.470  0.1268  0.0776  0.0295
 1162TIP3    H124901   1.298   5.793   2.462  3.7995  0.1559 -2.2678
 1162TIP3    H224902   1.355   5.906   2.546  0.6892  0.4223 -0.4605
 1163TIP3   OH224903   6.138   2.238   5.904 -0.2954  0.5757 -0.1457
 1163TIP3    H124904   6.084   2.313   5.928 -0.1494  0.5407  0.2995
 1163TIP3    H224905   6.156   2.194   5.987 -0.1984  0.1727 -0.3804
 1164TIP3   OH224906   3.435   2.327   6.046  0.2209 -0.1325 -0.2126
 1164TIP3    H124907   3.489   2.286   6.113 -0.4418 -0.9437 -0.1710
 1164TIP3    H224908   3.464   2.287   5.964 -0.1342 -0.3755 -0.2198
 1165TIP3   OH224909   5.023   2.401  16.316  0.0271 -0.2000 -0.1283
 1165TIP3    H124910   4.984   2.387  16.230 -1.9150 -0.4566  0.7468
 1165TIP3    H224911   5.065   2.487  16.310 -1.3227  0.4316 -0.9175
 1166TIP3   OH224912   4.503   3.358   5.210 -0.3580  0.1674 -0.5523
 1166TIP3    H124913   4.454   3.284   5.176 -1.0222  0.4380 -0.1790
 1166TIP3    H224914   4.444   3.433   5.201 -0.4140  0.3054  0.8666
 1167TIP3   OH224915   5.488   6.467   1.949  0.0434 -0.3666 -0.1622
 1167TIP3    H124916   5.477   6.476   1.854 -0.7762 -0.8316 -0.1211
 1167TIP3    H224917   5.463   6.553   1.984 -0.8595 -0.5664 -0.2890
 1168TIP3   OH224918   6.452   2.831   2.920 -0.1511  0.2750 -0.0685
 1168TIP3    H124919   6.416   2.789   2.998 -0.8039  0.1723 -0.4217
 1168TIP3    H224920   6.376   2.855   2.869  0.2887 -0.2188 -0.9730
 1169TIP3   OH224921   2.778   6.467  11.836 -0.2804 -0.2959  0.1605
 1169TIP3    H124922   2.690   6.431  11.828  0.2663 -1.8039  0.6775
 1169TIP3    H224923   2.836   6.396  11.809  0.7068  1.5332 -2.7858
 1170TIP3   OH224924   1.043   4.451  15.776  0.2099 -0.0785 -0.4362
 1170TIP3    H124925   1.019   4.532  15.821  0.4823 -0.3334  0.1813
 1170TIP3    H224926   1.031   4.383  15.843  0.7818 -0.4444 -0.7069
 1171TIP3   OH224927   5.907   6.334  11.842 -0.3043 -0.3861 -0.5240
 1171TIP3    H124928   5.985   6.302  11.889 -1.8485 -2.0337  1.0055
 1171TIP3    H224929   5.857   6.382  11.908  0.4076  2.5261 -2.0330
 1172TIP3   OH224930   0.296   1.088   3.031  0.3800  0.5322 -0.4425
 1172TIP3    H124931   0.303   0.993   3.044  0.1944  0.5976  0.1158
 1172TIP3    H224932   0.237   1.097   2.956  0.1083  0.2226 -0.2669
 1173TIP3   OH224933   3.275   5.794   5.818  0.1627  0.2794  0.0468
 1173TIP3    H124934   3.206   5.860   5.812  1.4629  1.6683  0.0400
 1173TIP3    H224935   3.356   5.843   5.808  1.1233 -1.4817 -1.1918
 1174TIP3   OH224936   0.659   5.406   1.313 -0.3439  0.3073  0.0611
 1174TIP3    H124937   0.600   5.350   1.362 -0.7454 -0.3264 -1.1284
 1174TIP3    H224938   0.745   5.366   1.324 -0.4687  0.0411  0.0698
 1175TIP3   OH224939   4.713   5.172  16.829 -0.4656 -0.1209  0.1221
 1175TIP3    H124940   4.706   5.093  16.882 -0.3460 -0.4394 -0.3375
 1175TIP3    H224941   4.645   5.230  16.863 -0.0772 -0.1333  0.9450
 1176TIP3   OH224942   2.224   5.877   2.563 -0.2692  0.6070 -0.6833
 1176TIP3    H124943   2.213   5.959   2.613  2.2879  0.9358 -0.5815
 1176TIP3    H224944   2.269   5.904   2.483  0.1959 -0.6429 -0.8492
 1177TIP3   OH224945   1.726   6.247  13.370  0.4240 -0.3704 -0.0806
 1177TIP3    H124946   1.752   6.156  13.382 -1.3104 -0.5308  2.7952
 1177TIP3    H224947   1.654   6.244  13.307  2.1102 -0.6587 -2.0770
 1178TIP3   OH224948   3.510   5.997  12.185 -1.0083  0.2426 -0.6332
 1178TIP3    H124949   3.452   5.929  12.220 -3.3878  1.5295 -1.9623
 1178TIP3    H224950   3.529   5.968  12.096 -0.6253  0.4734 -0.6272
 1179TIP3   OH224951   0.501   4.972   1.216 -0.3518  0.0546  0.1685
 1179TIP3    H124952   0.447   4.931   1.148 -0.3684 -0.6970  0.6221
 1179TIP3    H224953   0.574   4.911   1.229 -0.9027 -0.3395  1.5591
 1180TIP3   OH224954   6.497   6.406   5.784  0.3839  0.1729  0.6199
 1180TIP3    H124955   6.456   6.413   5.698  1.8274  0.8896 -0.0243
 1180TIP3    H224956   6.466   6.483   5.832  0.8645  0.6369  0.1854
 1181TIP3   OH224957   5.769   1.180  14.455  0.3855 -0.4395 -0.1797
 1181TIP3    H124958   5.742   1.105  14.401  0.6701  0.6605 -1.8770
 1181TIP3    H224959   5.838   1.223  14.405 -0.5515  1.6200  0.2224
 1182TIP3   OH224960   5.643   3.006  11.149  0.3947  0.4028 -0.2960
 1182TIP3    H124961   5.656   2.948  11.074  1.3935  1.3928 -0.8936
 1182TIP3    H224962   5.680   2.958  11.224 -0.4273 -0.4990 -0.4603
 1183TIP3   OH224963   3.782   3.078  17.187 -0.3756  0.2471 -0.1955
 1183TIP3    H124964   3.825   3.054  17.105 -2.1394 -0.6913 -0.8785
 1183TIP3    H224965   3.756   3.169  17.175 -2.2956 -0.4240 -1.4624
 1184TIP3   OH224966   3.802   1.736   0.185  0.7527  0.1983  0.3218
 1184TIP3    H124967   3.809   1.826   0.152 -2.3711  0.1279 -0.7184
 1184TIP3    H224968   3.716   1.732   0.226  0.6469 -2.4438 -0.0412
 1185TIP3   OH224969   3.641   6.753   3.074  0.2092 -0.0256  0.3025
 1185TIP3    H124970   3.635   6.712   2.988  1.8287 -0.1208  0.2106
 1185TIP3    H224971   3.588   6.698   3.131 -0.6265 -0.1341 -0.5640
 1186TIP3   OH224972   0.364   2.856   4.585 -0.2064  0.4524 -0.0551
 1186TIP3    H124973   0.395   2.812   4.664  0.1080 -1.3922 -1.1856
 1186TIP3    H224974   0.397   2.946   4.593  0.6311  0.0243  1.4491
 1187TIP3   OH224975   5.180   4.511   5.809  0.6057 -0.9429 -0.5537
 1187TIP3    H124976   5.185   4.430   5.860 -0.4365 -1.1609 -0.7942
 1187TIP3    H224977   5.122   4.568   5.860  0.3898 -0.7817 -0.9770
 1188TIP3   OH224978   2.265   5.619  12.949 -0.7034  0.0689 -0.2450
 1188TIP3    H124979   2.356   5.622  12.922  0.0581 -1.1133  2.0438
 1188TIP3    H224980   2.242   5.526  12.950 -1.1808  0.1861  1.5038
 1189TIP3   OH224981   3.263   1.796   0.953  0.2303 -0.2142 -0.3615
 1189TIP3    H124982   3.200   1.727   0.973 -0.0702  0.2817  0.4291
 1189TIP3    H224983   3.213   1.877   0.958  1.1654  0.2836  1.4511
 1190TIP3   OH224984   5.304   0.396   4.285 -0.2343 -0.3647  0.0915
 1190TIP3    H124985   5.277   0.427   4.371 -2.1025  0.2904 -0.6852
 1190TIP3    H224986   5.335   0.475   4.240 -1.5494 -0.2355 -0.6350
 1191TIP3   OH224987   2.202   6.708   2.245 -0.6706  0.0781 -0.2912
 1191TIP3    H124988   2.118   6.688   2.205 -0.0529  0.6451 -1.9160
 1191TIP3    H224989   2.195   6.673   2.334 -2.7330  0.4195 -0.2848
 1192TIP3   OH224990   4.225   1.884   0.557 -0.1944 -0.4397  0.6543
 1192TIP3    H124991   4.141   1.858   0.594  0.0929 -0.8557  1.0112
 1192TIP3    H224992   4.290   1.856   0.621  0.2878 -0.9960 -0.0789
 1193TIP3   OH224993   2.660   6.385   0.828 -0.1127 -0.0168  0.5528
 1193TIP3    H124994   2.692   6.350   0.745 -0.3542  0.3012  0.3238
 1193TIP3    H224995   2.596   6.452   0.803 -0.3563 -0.0819  0.9978
 1194TIP3   OH224996   6.378   1.672   0.332  0.2637 -0.2124  0.6303
 1194TIP3    H124997   6.375   1.691   0.238  0.8585 -0.7934  0.4864
 1194TIP3    H224998   6.439   1.599   0.340  0.3953 -0.0225  1.4970
 1195TIP3   OH224999   5.822   0.410  10.761 -0.0669 -0.0035  0.0527
 1195TIP3    H125000   5.914   0.402  10.785  0.1886 -0.8805 -1.2005
 1195TIP3    H225001   5.798   0.498  10.790  0.9584 -0.0399  1.0562
 1196TIP3   OH225002   0.275   3.319   3.223 -0.3199  0.7466 -0.3190
 1196TIP3    H125003   0.326   3.389   3.181 -0.5406 -0.2203 -2.2245
 1196TIP3    H225004   0.331   3.242   3.219 -1.2868  0.0731 -0.9542
 1197TIP3   OH225005   2.686   2.689   4.620  0.2057 -0.7926 -0.9043
 1197TIP3    H125006   2.609   2.690   4.564  0.4410  0.9696 -1.2281
 1197TIP3    H225007   2.740   2.761   4.588  1.0895 -0.7824  0.5557
 1198TIP3   OH225008   4.007   5.072   0.149 -0.0399 -0.0737 -0.1224
 1198TIP3    H125009   3.992   4.984   0.113  1.3760 -0.2472 -0.3152
 1198TIP3    H225010   4.021   5.128   0.072  1.7295 -0.2060  0.0760
 1199TIP3   OH225011   4.540   2.637   4.284 -0.5040  0.0232  0.4679
 1199TIP3    H125012   4.635   2.634   4.272 -0.4368  1.5594  0.5060
 1199TIP3    H225013   4.524   2.587   4.364  0.2848 -0.0926  0.5586
 1200TIP3   OH225014   0.732   1.671  15.422 -0.3998 -0.0833  0.0963
 1200TIP3    H125015   0.709   1.578  15.421 -0.8706  0.0288 -2.4040
 1200TIP3    H225016   0.684   1.709  15.348 -0.3697  2.1914  1.2001
 1201TIP3   OH225017   0.817   0.339   3.726  0.2959 -0.9745  0.5968
 1201TIP3    H125018   0.846   0.426   3.698  1.1294 -1.1752  0.8338
 1201TIP3    H225019   0.887   0.307   3.783 -0.7870 -1.1006  1.8974
 1202TIP3   OH225020   1.594   4.228  12.430 -0.2344  0.3638 -0.1936
 1202TIP3    H125021   1.538   4.206  12.504  1.5595  3.2773  2.1002
 1202TIP3    H225022   1.539   4.279  12.372 -0.7930  0.6538  0.5944
 1203TIP3   OH225023   3.916   0.880   0.333 -0.0459 -0.2143  0.3144
 1203TIP3    H125024   3.926   0.787   0.311  2.9009 -0.3103  1.7738
 1203TIP3    H225025   3.991   0.922   0.291 -2.7639  2.0051 -2.5688
 1204TIP3   OH225026   5.068   4.565  15.948  0.0330  0.1241 -0.0461
 1204TIP3    H125027   4.975   4.546  15.933 -0.8239  3.2180  0.9604
 1204TIP3    H225028   5.100   4.594  15.863 -0.6394  1.6524  0.2009
 1205TIP3   OH225029   4.218   4.819  17.040  0.1576  0.0744 -0.4907
 1205TIP3    H125030   4.244   4.741  16.990  0.5288  0.6705 -1.2330
 1205TIP3    H225031   4.291   4.834  17.100  0.6149  0.5176 -1.1423
 1206TIP3   OH225032   2.289   5.278  15.997 -0.1360  0.5732 -0.4557
 1206TIP3    H125033   2.228   5.264  16.069  1.0309 -0.3238  0.3691
 1206TIP3    H225034   2.235   5.319  15.928 -1.4435  0.6583  0.5884
 1207TIP3   OH225035   4.667   1.871  13.587  0.0267  0.7074  0.2209
 1207TIP3    H125036   4.643   1.963  13.589 -1.4128  0.3362  0.6041
 1207TIP3    H225037   4.647   1.842  13.498 -1.0825  0.3815  0.5593
 1208TIP3   OH225038   0.157   3.323  16.742  0.2568 -0.8572  0.1042
 1208TIP3    H125039   0.214   3.340  16.817  0.2757  0.1635 -0.1375
 1208TIP3    H225040   0.209   3.265  16.686  0.4565 -1.1786  0.6109
 1209TIP3   OH225041   2.507   6.431   0.431 -0.1195  0.0281 -0.1240
 1209TIP3    H125042   2.489   6.525   0.441 -1.5815 -0.5179  3.0154
 1209TIP3    H225043   2.448   6.403   0.361 -2.9630  0.6380  1.9233
 1210TIP3   OH225044   5.529   2.597  15.315 -0.2227 -0.4366 -0.0989
 1210TIP3    H125045   5.451   2.635  15.275 -0.4448 -0.6329  0.1391
 1210TIP3    H225046   5.498   2.515  15.353  0.2414 -0.8350 -0.5739
 1211TIP3   OH225047   6.590   1.859   5.583  0.3438  0.2192 -0.0555
 1211TIP3    H125048   6.626   1.825   5.666  0.0087 -1.4408 -0.5717
 1211TIP3    H225049   6.497   1.837   5.587  0.6335 -1.3660 -1.5860
 1212TIP3   OH225050   4.284   2.090   2.384  0.8143  0.3664 -0.7595
 1212TIP3    H125051   4.309   2.174   2.423  0.6148  0.0744  0.0117
 1212TIP3    H225052   4.272   2.109   2.291 -0.7470  1.5292 -0.3388
 1213TIP3   OH225053   2.171   4.087   3.263 -0.2172 -0.4337  0.2509
 1213TIP3    H125054   2.212   4.173   3.259 -1.1079 -0.0700 -2.1639
 1213TIP3    H225055   2.100   4.096   3.326  0.1282  0.4150  0.5224
 1214TIP3   OH225056   1.927   1.264  16.407 -0.3534 -0.1412 -0.6263
 1214TIP3    H125057   1.958   1.207  16.478 -2.8028 -0.7185  0.0208
 1214TIP3    H225058   1.853   1.218  16.369 -0.3479  1.1339 -2.2324
 1215TIP3   OH225059   2.048   6.650   2.721  0.1199 -0.0981 -0.7012
 1215TIP3    H125060   2.015   6.609   2.801 -0.1163 -0.7736 -1.1426
 1215TIP3    H225061   1.982   6.715   2.698  0.9065  1.1369  0.4709
 1216TIP3   OH225062   3.893   1.830  14.337  0.1124  0.5532 -0.0631
 1216TIP3    H125063   3.972   1.785  14.306  0.3691 -0.1443  1.5395
 1216TIP3    H225064   3.830   1.821  14.266  0.4891 -1.5127 -0.1558
 1217TIP3   OH225065   5.733   0.489  11.652 -0.1637  0.0622  0.5481
 1217TIP3    H125066   5.752   0.579  11.679 -1.1860  0.6235 -0.5627
 1217TIP3    H225067   5.808   0.464  11.598  0.4526 -0.0095  1.4161
 1218TIP3   OH225068   5.812   0.295   5.596  0.5653 -0.4267  0.2389
 1218TIP3    H125069   5.768   0.250   5.524  0.9064  2.1261 -1.6444
 1218TIP3    H225070   5.743   0.348   5.637  0.9445  0.2322  0.0333
 1219TIP3   OH225071   1.911   5.405  15.352  0.1028  0.0365  0.2561
 1219TIP3    H125072   1.935   5.473  15.415  3.4658 -1.6678  0.9025
 1219TIP3    H225073   1.884   5.331  15.406  0.7801 -0.6428 -0.3232
 1220TIP3   OH225074   6.695   0.553  15.508 -0.2717 -0.5924 -1.0032
 1220TIP3    H125075   6.712   0.542  15.601 -1.8375 -0.7159 -0.7131
 1220TIP3    H225076   6.772   0.599  15.474 -0.3984  0.8829  0.6547
 1221TIP3   OH225077   1.758   0.980   1.444  0.5975 -0.7143 -0.2391
 1221TIP3    H125078   1.733   1.045   1.510 -0.3417 -2.1321  0.8473
 1221TIP3    H225079   1.844   0.949   1.472  1.6862  1.0181 -1.5360
 1222TIP3   OH225080   0.590   0.942  14.902 -0.0670 -0.0841  0.2289
 1222TIP3    H125081   0.602   0.899  14.817 -0.0294 -2.7799  1.5371
 1222TIP3    H225082   0.666   0.999  14.911 -2.2409  3.6736 -3.4358
 1223TIP3   OH225083   3.776   4.978  12.758  0.0717  0.2874 -0.2039
 1223TIP3    H125084   3.828   5.043  12.711 -0.8876  1.3133  0.1386
 1223TIP3    H225085   3.694   4.973  12.708  0.5021 -1.3371 -0.7609
 1224TIP3   OH225086   1.776   1.438   5.800 -0.8014 -0.4618 -0.3552
 1224TIP3    H125087   1.795   1.344   5.803 -1.7642 -0.6377  0.2932
 1224TIP3    H225088   1.699   1.445   5.744  0.0123  0.0686 -1.4196
 1225TIP3   OH225089   2.395   3.472  13.499  0.0178  0.6782  0.5733
 1225TIP3    H125090   2.378   3.394  13.552  1.3509  0.2865  0.4599
 1225TIP3    H225091   2.491   3.479  13.498 -0.0480  1.5364 -0.5384
 1226TIP3   OH225092   3.072   2.344  13.896  0.8907  0.1668 -0.1735
 1226TIP3    H125093   3.074   2.248  13.891 -0.8333  0.2120 -3.0110
 1226TIP3    H225094   3.115   2.372  13.815  1.8202  1.8405  0.8734
 1227TIP3   OH225095   3.360   0.890   0.497  0.7434 -0.5428  0.6684
 1227TIP3    H125096   3.373   0.901   0.403  1.3448 -0.9900  0.6921
 1227TIP3    H225097   3.314   0.806   0.504 -1.9589  0.8780  0.6043
 1228TIP3   OH225098   0.944   3.446  14.667  0.2413  0.4252 -0.4313
 1228TIP3    H125099   0.866   3.501  14.676  1.1689  1.6088  0.7019
 1228TIP3    H225100   1.016   3.508  14.655  1.1146 -0.6142 -0.6606
 1229TIP3   OH225101   3.517   2.248   5.798 -0.0478 -0.1297 -0.7642
 1229TIP3    H125102   3.612   2.241   5.791 -0.1099 -1.1663 -0.7188
 1229TIP3    H225103   3.486   2.236   5.708 -0.1096  0.7067 -0.8541
 1230TIP3   OH225104   5.424   0.642   4.318 -0.5594 -0.5176 -0.0949
 1230TIP3    H125105   5.447   0.623   4.409  1.6622  0.2293 -0.4646
 1230TIP3    H225106   5.396   0.734   4.320 -2.2301 -1.0102  0.1074
 1231TIP3   OH225107   1.287   2.565   4.377  0.5347  0.1185 -0.6886
 1231TIP3    H125108   1.246   2.619   4.309 -0.1914  1.6275  0.9039
 1231TIP3    H225109   1.285   2.620   4.455  0.6103 -1.8968  0.7602
 1232TIP3   OH225110   0.408   0.108   0.049  0.7486  0.3386 -0.0920
 1232TIP3    H125111   0.471   0.180   0.041  1.1237  0.0643  0.3539
 1232TIP3    H225112   0.347   0.121  -0.023  1.3805  0.5524 -0.5958
 1233TIP3   OH225113   2.062   2.856  13.389 -0.3751 -0.0754  0.6494
 1233TIP3    H125114   1.966   2.849  13.390 -0.5137  1.5153 -0.7043
 1233TIP3    H225115   2.082   2.917  13.459 -0.3653 -0.0768  0.6484
 1234TIP3   OH225116   5.875   6.209   0.651  0.7288  0.6950  0.3164
 1234TIP3    H125117   5.857   6.303   0.656 -0.7022  0.4198  0.4528
 1234TIP3    H225118   5.868   6.188   0.558 -1.1429  0.3071  0.5357
 1235TIP3   OH225119   1.027   3.518  15.008  0.2770 -0.0572 -0.0595
 1235TIP3    H125120   1.020   3.531  15.102 -1.3700  0.2245 -0.2126
 1235TIP3    H225121   1.028   3.606  14.971  1.2900 -0.1592 -0.2796
 1236TIP3   OH225122   4.045   5.122   4.353  0.2058  0.1528 -0.0729
 1236TIP3    H125123   4.028   5.130   4.447  0.7554 -0.1021  0.0507
 1236TIP3    H225124   4.040   5.028   4.336  1.1890  0.1000 -0.0875
 1237TIP3   OH225125   1.046   4.734   4.275 -1.0123 -0.1071  0.4247
 1237TIP3    H125126   0.998   4.652   4.280 -2.0688  0.5512  1.3072
 1237TIP3    H225127   0.980   4.800   4.252 -0.3795  0.6594  0.7602
 1238TIP3   OH225128   0.838   4.912   0.137  0.2107 -0.1922  0.7116
 1238TIP3    H125129   0.915   4.890   0.190  0.7852  1.5627  0.6613
 1238TIP3    H225130   0.782   4.963   0.196 -0.8943 -1.4030  0.7257
 1239TIP3   OH225131   2.671   6.154   1.407 -0.0010 -0.2280  0.3801
 1239TIP3    H125132   2.642   6.241   1.378 -0.3095 -0.4928 -0.1314
 1239TIP3    H225133   2.732   6.171   1.479 -0.8038  0.3727  0.9251
 1240TIP3   OH225134   4.465   5.373  10.703 -0.5533  0.4136 -0.0114
 1240TIP3    H125135   4.452   5.417  10.619 -0.9932 -0.0520 -0.1930
 1240TIP3    H225136   4.388   5.398  10.755 -0.4626  0.4143  0.1212
 1241TIP3   OH225137   5.696   3.867   1.192 -0.2044  0.0237 -0.1155
 1241TIP3    H125138   5.630   3.928   1.224  1.0002  0.8291  0.9093
 1241TIP3    H225139   5.779   3.907   1.218  0.6450 -1.4308 -0.5637
 1242TIP3   OH225140   3.062   1.134   5.553 -0.3558 -0.1184  0.3259
 1242TIP3    H125141   3.013   1.076   5.610  0.7214  1.1907  2.6789
 1242TIP3    H225142   3.126   1.176   5.611  1.0263  0.9827 -1.9210
 1243TIP3   OH225143   3.111   2.110  15.298 -0.5753  0.0688 -0.1767
 1243TIP3    H125144   3.153   2.082  15.379  0.0247 -0.0936 -0.5357
 1243TIP3    H225145   3.184   2.131  15.240 -1.0048  0.3862 -0.6005
 1244TIP3   OH225146   5.049   4.243  11.993  0.8776 -0.2626  0.6072
 1244TIP3    H125147   4.978   4.193  12.033  0.7395 -0.0794  0.5906
 1244TIP3    H225148   5.076   4.305  12.060  1.9309 -1.2304  1.0995
 1245TIP3   OH225149   3.484   1.937  17.196 -0.1801  0.3507  0.1806
 1245TIP3    H125150   3.551   1.982  17.248  0.7879  1.9325 -2.3012
 1245TIP3    H225151   3.402   1.977  17.224  0.3769  1.5104  0.2374
 1246TIP3   OH225152   3.153   5.366  12.758 -0.1063  0.2462 -0.6736
 1246TIP3    H125153   3.228   5.413  12.722  0.1161 -1.3091 -2.2758
 1246TIP3    H225154   3.185   5.331  12.842  0.5334  0.7346 -0.7086
 1247TIP3   OH225155   0.071   3.213   1.869 -0.3723  0.7188  0.0075
 1247TIP3    H125156   0.044   3.268   1.796  1.1438 -0.4918 -1.4970
 1247TIP3    H225157   0.155   3.249   1.897 -0.9347  1.1683  1.1589
 1248TIP3   OH225158   2.174   3.730   2.821 -0.2749 -0.0590 -0.0976
 1248TIP3    H125159   2.220   3.810   2.846  0.0750 -0.5048  0.6809
 1248TIP3    H225160   2.191   3.669   2.892  0.9653 -1.4291 -1.5441
 1249TIP3   OH225161   4.988   3.829   2.107  0.1461  0.1085 -0.0813
 1249TIP3    H125162   5.038   3.748   2.117 -0.3426 -0.1854 -0.0224
 1249TIP3    H225163   4.992   3.871   2.193  1.6711  0.8878 -0.5105
 1250TIP3   OH225164   0.501   4.032   4.591  0.4337 -0.1487  0.7625
 1250TIP3    H125165   0.498   3.962   4.657  1.4826  0.9965  2.0480
 1250TIP3    H225166   0.531   3.988   4.511  4.0141 -0.6527  2.3134
 1251TIP3   OH225167   5.963   4.628  11.309 -0.0487  0.3071 -0.1282
 1251TIP3    H125168   5.989   4.586  11.227 -0.5965  1.3976 -0.8658
 1251TIP3    H225169   5.921   4.710  11.282 -1.2791  0.1261  1.1823
 1252TIP3   OH225170   2.477   0.272  15.266 -0.3282  0.2366 -0.1360
 1252TIP3    H125171   2.524   0.355  15.266 -1.5776  0.9606 -0.0518
 1252TIP3    H225172   2.430   0.270  15.183  1.0917 -1.2234 -0.9447
 1253TIP3   OH225173   3.375   2.910  12.722  0.1592 -0.0794  0.6496
 1253TIP3    H125174   3.431   2.901  12.645 -1.3643  0.0412 -0.4995
 1253TIP3    H225175   3.322   2.830  12.723  1.0283 -0.6440  2.2843
 1254TIP3   OH225176   5.234   4.729   0.058  0.3542 -0.2449  0.0754
 1254TIP3    H125177   5.188   4.717   0.141  0.7746  0.0429  0.3528
 1254TIP3    H225178   5.169   4.706  -0.008  0.0785 -0.6678  0.4900
 1255TIP3   OH225179   6.033   0.051  14.674  0.0501 -0.3785 -0.0302
 1255TIP3    H125180   6.081  -0.031  14.685  1.9140  0.7675  0.7573
 1255TIP3    H225181   6.012   0.078  14.763 -0.0868  0.2488 -0.2493
 1256TIP3   OH225182   0.615   1.844   5.743 -0.0161 -0.1491 -0.0904
 1256TIP3    H125183   0.703   1.878   5.725  0.9804 -1.3266  2.3788
 1256TIP3    H225184   0.612   1.760   5.696  0.7650 -0.8572  1.1092
 1257TIP3   OH225185   0.175   1.979   5.646 -0.2888  0.1683  0.0309
 1257TIP3    H125186   0.264   2.011   5.630  0.3384 -1.1476  0.7218
 1257TIP3    H225187   0.184   1.883   5.644 -2.0470 -0.0011 -1.7555
 1258TIP3   OH225188   2.633   1.753   4.865 -0.1458 -0.6384 -0.1773
 1258TIP3    H125189   2.639   1.734   4.771  0.1959 -0.2329 -0.2332
 1258TIP3    H225190   2.674   1.677   4.907 -0.8288 -1.1063 -0.3323
 1259TIP3   OH225191   3.240   1.415  13.497  0.1986  0.7656  0.1146
 1259TIP3    H125192   3.277   1.335  13.462  2.2251  0.5684  2.5765
 1259TIP3    H225193   3.281   1.485  13.447 -0.6639  0.3230 -1.2231
 1260TIP3   OH225194   4.898   1.969  14.536  0.3527  0.0335  0.1028
 1260TIP3    H125195   4.887   1.946  14.628  1.1087  1.3442  0.5266
 1260TIP3    H225196   4.814   2.007  14.511 -0.0163 -0.7517  0.1026
 1261TIP3   OH225197   6.448   3.409   2.959  0.6787  0.2488 -0.0042
 1261TIP3    H125198   6.403   3.326   2.977  1.5432 -0.1753  0.2287
 1261TIP3    H225199   6.484   3.435   3.044 -0.8844  1.6612  0.2599
 1262TIP3   OH225200   4.809   3.748  17.224  0.0599  0.0436  0.1069
 1262TIP3    H125201   4.758   3.679  17.181 -2.0341  1.4959  0.2051
 1262TIP3    H225202   4.825   3.812  17.154 -1.3575  1.2987  0.8983
 1263TIP3   OH225203   5.870   2.244  16.973  0.3224 -0.1963 -0.0837
 1263TIP3    H125204   5.915   2.174  16.925  0.2619  1.2598 -2.3055
 1263TIP3    H225205   5.777   2.226  16.958  0.3190  0.7584 -1.2774
 1264TIP3   OH225206   3.396   3.429   2.007  0.5755  0.2472  0.3284
 1264TIP3    H125207   3.348   3.351   1.980  2.0651 -0.8852  0.8906
 1264TIP3    H225208   3.487   3.410   1.986  0.8281  2.3048 -0.5676
 1265TIP3   OH225209   5.700   2.818  12.301  0.5102 -0.0825  0.1299
 1265TIP3    H125210   5.778   2.844  12.253 -1.2951 -1.3300 -3.6558
 1265TIP3    H225211   5.638   2.890  12.288 -0.8675 -1.5301 -1.6298
 1266TIP3   OH225212   3.111   6.476   5.332 -0.2424 -0.4637 -0.5354
 1266TIP3    H125213   3.178   6.486   5.399 -1.8565 -2.7499  1.5069
 1266TIP3    H225214   3.071   6.563   5.324 -0.0448 -0.1823  1.4606
 1267TIP3   OH225215   5.579   2.719   6.026  0.4418 -0.1882  0.2858
 1267TIP3    H125216   5.487   2.706   6.048  0.5554  1.0659  1.5401
 1267TIP3    H225217   5.614   2.772   6.098  2.4377 -1.6624  0.4449
 1268TIP3   OH225218   3.199   3.518  10.946 -0.2727 -0.0268  0.5323
 1268TIP3    H125219   3.283   3.555  10.973 -0.5318  0.4562  0.6905
 1268TIP3    H225220   3.217   3.427  10.927  0.6896  0.5153 -1.2714
 1269TIP3   OH225221   3.209   5.013   4.184 -0.2381 -0.8327 -0.4604
 1269TIP3    H125222   3.285   5.068   4.168 -0.5272 -0.0580  0.7953
 1269TIP3    H225223   3.142   5.045   4.123  0.8280 -2.3778 -2.5161
 1270TIP3   OH225224   5.154   6.008   2.532  0.6699 -0.1962  0.1035
 1270TIP3    H125225   5.130   6.037   2.620  2.5126  1.7052  0.0456
 1270TIP3    H225226   5.218   5.938   2.547  1.2809  0.3921  0.3120
 1271TIP3   OH225227   5.105   6.316  14.987  0.0426  0.6957 -0.6955
 1271TIP3    H125228   5.161   6.281  14.917 -1.4022 -0.3546 -1.3437
 1271TIP3    H225229   5.140   6.278  15.067  1.4137  1.5186 -0.8827
 1272TIP3   OH225230   1.835   1.338  11.419 -0.6727 -0.0668  0.4798
 1272TIP3    H125231   1.785   1.418  11.436 -0.4928  0.1089  0.1913
 1272TIP3    H225232   1.889   1.326  11.497 -0.8216  0.0013  0.5943
 1273TIP3   OH225233   3.857   6.537   2.952  0.4852 -0.0087 -0.4158
 1273TIP3    H125234   3.919   6.488   2.897  2.0180  2.1713 -0.7070
 1273TIP3    H225235   3.849   6.622   2.908 -1.6766  0.2251  0.3834
 1274TIP3   OH225236   1.775   3.166   0.342  0.9551  0.6773  0.2511
 1274TIP3    H125237   1.773   3.246   0.394  1.6412  0.0692  1.2249
 1274TIP3    H225238   1.723   3.187   0.264  0.1963  1.7043  1.0153
 1275TIP3   OH225239   1.892   2.976   1.410  0.5029  0.3457  0.3474
 1275TIP3    H125240   1.875   3.068   1.389 -1.4751  0.0101  0.3762
 1275TIP3    H225241   1.831   2.956   1.481  1.3418 -0.8305  0.7555
 1276TIP3   OH225242   1.914   1.690   3.766  0.3167  0.0524 -0.4758
 1276TIP3    H125243   1.919   1.604   3.724 -0.2338 -0.2424  0.0560
 1276TIP3    H225244   1.941   1.674   3.857  0.9274  0.5773 -0.5603
 1277TIP3   OH225245   1.994   3.441   2.698 -0.4833  0.2312  0.0840
 1277TIP3    H125246   2.008   3.472   2.608 -0.0145 -0.7734 -0.1969
 1277TIP3    H225247   1.913   3.485   2.725  0.4062  2.0675 -0.1167
 1278TIP3   OH225248   3.368   4.341   0.902  0.1729  0.0739  0.4969
 1278TIP3    H125249   3.438   4.392   0.861 -0.4941  1.6625  1.3016
 1278TIP3    H225250   3.414   4.270   0.948  0.9788 -1.3356 -2.3578
 1279TIP3   OH225251   6.108   5.163   0.658  0.2141 -0.5399 -0.0182
 1279TIP3    H125252   6.155   5.214   0.593  1.1771 -0.0182  1.0564
 1279TIP3    H225253   6.105   5.220   0.735 -1.0337 -1.0812  0.3545
 1280TIP3   OH225254   5.805   3.805   4.989  0.4319 -0.1987  0.2398
 1280TIP3    H125255   5.845   3.885   5.025  0.7115  0.3574 -1.2536
 1280TIP3    H225256   5.855   3.734   5.029  0.6800  0.3969  1.0138
 1281TIP3   OH225257   6.190   5.431  10.503  0.0719 -0.0201 -0.0068
 1281TIP3    H125258   6.203   5.387  10.419  0.2121 -1.1724  0.6099
 1281TIP3    H225259   6.125   5.499  10.484 -1.8220 -1.9055 -0.5317
 1282TIP3   OH225260   3.793   0.055   4.181 -0.1963  0.1450  0.1325
 1282TIP3    H125261   3.864   0.000   4.216 -1.3205 -0.9814  0.7119
 1282TIP3    H225262   3.714   0.018   4.221 -1.3070  0.0843 -2.0896
 1283TIP3   OH225263   5.243   2.947  13.768 -0.1699  0.0136 -0.4503
 1283TIP3    H125264   5.152   2.977  13.777 -0.3976 -1.2795  2.3063
 1283TIP3    H225265   5.286   3.015  13.718 -2.1271  1.8081  0.2212
 1284TIP3   OH225266   1.588   6.380  14.582 -0.0107  0.2174  0.9457
 1284TIP3    H125267   1.501   6.369  14.545 -0.0260 -1.2252  1.3814
 1284TIP3    H225268   1.641   6.311  14.540  1.0991  1.5245  0.1500
 1285TIP3   OH225269   3.582   5.894   2.894  0.1944  0.8272  0.0648
 1285TIP3    H125270   3.667   5.886   2.936  0.3533  1.9184 -0.0540
 1285TIP3    H225271   3.522   5.920   2.964  0.1741  1.1839 -0.0845
 1286TIP3   OH225272   1.245   0.075  15.714 -0.0136 -0.2170 -0.4398
 1286TIP3    H125273   1.321   0.124  15.745 -0.9172  0.8149  0.1943
 1286TIP3    H225274   1.240  -0.001  15.772 -0.2085  0.3861  0.3501
 1287TIP3   OH225275   1.914   5.412   4.387  0.6360  0.2443 -0.0528
 1287TIP3    H125276   1.842   5.395   4.327 -0.0204  0.3498  0.6939
 1287TIP3    H225277   1.993   5.398   4.335  0.0748  0.6679 -1.0256
 1288TIP3   OH225278   5.139   4.281   2.839  0.0326 -0.1111 -1.0961
 1288TIP3    H125279   5.071   4.298   2.774  0.8604  0.3621 -1.8446
 1288TIP3    H225280   5.216   4.257   2.788  0.5239 -0.3195 -0.2681
 1289TIP3   OH225281   1.388   5.157  14.450  0.9279  0.2466 -0.5976
 1289TIP3    H125282   1.422   5.170  14.361 -0.0007 -1.4978 -1.2362
 1289TIP3    H225283   1.324   5.086  14.441 -0.7991  1.5400  1.0782
 1290TIP3   OH225284   3.234   1.340  12.544 -0.2150 -0.3922 -0.0791
 1290TIP3    H125285   3.255   1.262  12.491  0.5582 -0.1382 -0.1510
 1290TIP3    H225286   3.319   1.371  12.576 -0.4360  0.8745 -0.6849
 1291TIP3   OH225287   6.292   4.664  15.417 -0.3966 -0.1098 -0.3784
 1291TIP3    H125288   6.267   4.646  15.326 -1.0680  0.0684 -0.2366
 1291TIP3    H225289   6.382   4.635  15.424 -0.1781  0.3402 -1.2474
 1292TIP3   OH225290   4.527   5.449  13.526 -0.8662  0.7879  0.3581
 1292TIP3    H125291   4.570   5.387  13.467  0.0513 -0.1312  1.9485
 1292TIP3    H225292   4.453   5.401  13.562 -0.0099  0.5139  1.7835
 1293TIP3   OH225293   0.380   4.661  16.349  0.3914 -0.1686 -0.1090
 1293TIP3    H125294   0.388   4.627  16.259 -0.1070  1.3900 -0.7582
 1293TIP3    H225295   0.295   4.629  16.379  0.2973 -0.1972 -0.4054
 1294TIP3   OH225296   1.630   0.140   2.977  0.0919  0.0008  0.0987
 1294TIP3    H125297   1.697   0.163   2.912  0.3137 -0.9673 -0.0181
 1294TIP3    H225298   1.557   0.107   2.925 -0.2410  0.4762  0.2651
 1295TIP3   OH225299   1.242   6.259  14.198  0.0698  0.0582  0.5101
 1295TIP3    H125300   1.302   6.314  14.249  0.3684  0.4071 -0.2131
 1295TIP3    H225301   1.193   6.210  14.264  0.1016  0.8756  1.1464
 1296TIP3   OH225302   4.534   1.821  12.874 -0.1475 -0.1163  0.0285
 1296TIP3    H125303   4.504   1.859  12.791  0.9669 -0.9672 -0.7661
 1296TIP3    H225304   4.454   1.788  12.915 -0.5012 -1.0588 -1.4002
 1297TIP3   OH225305   2.694   5.922   0.859  0.8007 -0.1419  0.5675
 1297TIP3    H125306   2.717   5.849   0.916 -3.1285 -1.5634  0.4814
 1297TIP3    H225307   2.771   5.934   0.803  2.7156 -2.1188  2.6766
 1298TIP3   OH225308   0.868   3.747   5.643 -0.2669 -0.7405  0.2045
 1298TIP3    H125309   0.929   3.793   5.586  0.6895 -0.1972  1.6422
 1298TIP3    H225310   0.792   3.729   5.588  0.3773  0.3424 -1.0535
 1299TIP3   OH225311   2.452   0.592  16.844 -0.2550  0.2353  0.1530
 1299TIP3    H125312   2.452   0.571  16.938  0.5722  1.1825  0.3713
 1299TIP3    H225313   2.521   0.657  16.834 -0.6109  0.4394 -1.0548
 1300TIP3   OH225314   2.190   5.787   0.268 -0.1622  0.0080  0.6431
 1300TIP3    H125315   2.136   5.813   0.193 -0.6247  1.9303  1.6091
 1300TIP3    H225316   2.131   5.792   0.343  0.4032 -1.4911  1.2044
 1301TIP3   OH225317   4.712   4.565  13.928 -0.1368 -0.3193  0.0061
 1301TIP3    H125318   4.630   4.525  13.957 -0.3290 -0.7864 -1.1705
 1301TIP3    H225319   4.778   4.498  13.942  0.3871  0.6478  2.6182
 1302TIP3   OH225320   1.502   6.587  11.561 -0.5170  0.3914  0.0997
 1302TIP3    H125321   1.502   6.665  11.507  0.2572  0.0056 -0.4512
 1302TIP3    H225322   1.576   6.535  11.531 -1.6339 -1.0502 -0.2609
 1303TIP3   OH225323   6.010   0.312   0.937 -0.1001  0.3721 -0.2684
 1303TIP3    H125324   5.940   0.323   1.001  0.3177  0.4383  0.1862
 1303TIP3    H225325   5.967   0.321   0.852 -0.8684 -0.9158 -0.0303
 1304TIP3   OH225326   4.997   1.768  10.834 -0.0488  0.1882  0.1625
 1304TIP3    H125327   5.052   1.720  10.772 -1.8311  0.2265 -1.5002
 1304TIP3    H225328   4.921   1.795  10.783 -1.3110  0.7032  2.2335
 1305TIP3   OH225329   5.591   2.108   1.145 -0.3269 -0.1601  0.3575
 1305TIP3    H125330   5.601   2.016   1.120 -1.7814  0.0388 -1.0690
 1305TIP3    H225331   5.496   2.123   1.142 -0.0635  1.5302 -0.0146
 1306TIP3   OH225332   1.639   1.365   4.439  0.0802 -0.4351 -0.6991
 1306TIP3    H125333   1.660   1.288   4.386  1.3382  0.6718 -1.8581
 1306TIP3    H225334   1.590   1.422   4.379 -0.8949 -0.3475  0.1661
 1307TIP3   OH225335   0.226   5.982   4.149  0.2190  0.6412  0.0836
 1307TIP3    H125336   0.266   5.912   4.200  2.7309  1.7461 -0.3143
 1307TIP3    H225337   0.201   5.941   4.067  1.9845  0.2812 -0.2783
 1308TIP3   OH225338   2.342   5.310  16.819 -0.1087  0.6640  0.1351
 1308TIP3    H125339   2.330   5.331  16.726 -0.6130  3.9824  0.8997
 1308TIP3    H225340   2.262   5.262  16.842 -0.8282  1.4582 -0.6726
 1309TIP3   OH225341   2.442   3.004   4.647  0.2833 -0.2864 -0.3907
 1309TIP3    H125342   2.391   3.081   4.626 -1.7463 -1.6191 -0.4837
 1309TIP3    H225343   2.377   2.936   4.668  1.9982 -1.9410 -0.2300
 1310TIP3   OH225344   2.736   4.674  13.308  0.7735  0.0851  0.3751
 1310TIP3    H125345   2.751   4.610  13.378  0.7609  0.7025  0.9466
 1310TIP3    H225346   2.716   4.621  13.231  1.3022 -0.6157  0.7162
 1311TIP3   OH225347   6.374   2.654  11.914  0.3067 -0.2149 -0.6637
 1311TIP3    H125348   6.406   2.573  11.953 -2.5225 -0.5020  1.2011
 1311TIP3    H225349   6.334   2.627  11.831 -0.9229 -0.8178  0.1044
 1312TIP3   OH225350   6.580   6.181  15.945 -0.2207  0.2503  0.5002
 1312TIP3    H125351   6.590   6.092  15.976 -3.3237  0.5169  2.4369
 1312TIP3    H225352   6.531   6.172  15.863 -0.3718  0.1737  0.5998
 1313TIP3   OH225353   1.846   1.407  12.104  0.2014  0.0622 -0.4543
 1313TIP3    H125354   1.806   1.489  12.077 -1.5476 -0.5465  0.2250
 1313TIP3    H225355   1.785   1.339  12.074  1.2229 -0.9351 -0.3133
 1314TIP3   OH225356   6.625   0.331  10.976 -0.6519 -0.2390 -0.2203
 1314TIP3    H125357   6.554   0.277  11.011  1.1126 -2.4820 -0.0169
 1314TIP3    H225358   6.658   0.282  10.901  0.4298  0.9685 -0.5455
 1315TIP3   OH225359   3.167   0.298   0.430 -0.2285  0.5210 -0.0645
 1315TIP3    H125360   3.126   0.233   0.373  0.8668 -0.3006  0.0663
 1315TIP3    H225361   3.098   0.322   0.492 -0.7394 -0.2891 -0.3071
 1316TIP3   OH225362   6.063   5.428   2.126 -0.3212  0.1707  0.4295
 1316TIP3    H125363   5.997   5.415   2.195 -0.0722  0.1962  0.6737
 1316TIP3    H225364   6.015   5.414   2.044 -0.1082 -2.2621  0.6582
 1317TIP3   OH225365   0.272   3.019  17.063 -0.1243  0.1696  0.2716
 1317TIP3    H125366   0.365   3.040  17.053 -0.4791  2.6592  1.9076
 1317TIP3    H225367   0.268   2.964  17.142 -0.0294 -0.1606  0.0506
 1318TIP3   OH225368   6.201   6.315   2.084  0.1051  0.2261 -0.3633
 1318TIP3    H125369   6.106   6.311   2.083  0.1065  0.0303  0.3025
 1318TIP3    H225370   6.226   6.294   1.994 -0.5143  1.4357 -0.8348
 1319TIP3   OH225371   0.618   1.595   1.483  0.0989  0.3121 -0.3930
 1319TIP3    H125372   0.604   1.542   1.562 -2.3105 -0.0297 -1.0232
 1319TIP3    H225373   0.537   1.644   1.472  0.6612  0.8424 -2.3186
 1320TIP3   OH225374   4.668   2.106   3.021  0.2274 -0.2966 -0.0665
 1320TIP3    H125375   4.612   2.042   2.977 -2.4985  1.3239  0.9884
 1320TIP3    H225376   4.645   2.190   2.982  2.6957  0.3092 -0.3372
 1321TIP3   OH225377   5.900   1.189   2.934 -0.0461 -0.4123 -0.8624
 1321TIP3    H125378   5.818   1.234   2.957  1.2949  1.5379  0.3032
 1321TIP3    H225379   5.918   1.135   3.011  0.6429  0.5185 -0.3489
 1322TIP3   OH225380   6.135   6.125   0.644 -0.7071  0.4161  0.1933
 1322TIP3    H125381   6.043   6.150   0.632 -0.3586  1.6744  0.0536
 1322TIP3    H225382   6.169   6.116   0.555  0.4283  4.2939  0.1341
 1323TIP3   OH225383   0.362   6.392   5.311  0.4270  0.5783 -0.1077
 1323TIP3    H125384   0.274   6.390   5.274  0.5541 -0.7319 -0.3406
 1323TIP3    H225385   0.370   6.480   5.348 -2.5640 -0.6582  3.7733
 1324TIP3   OH225386   1.535   4.948   6.267  0.0215  0.1438 -0.1398
 1324TIP3    H125387   1.563   5.027   6.220 -0.7318 -0.9361 -2.4226
 1324TIP3    H225388   1.506   4.888   6.199 -1.1968 -1.4190  1.7142
 1325TIP3   OH225389   5.962   3.981   5.140 -0.3919  0.7523  0.3936
 1325TIP3    H125390   5.972   3.895   5.181 -1.5296 -0.0993 -1.0654
 1325TIP3    H225391   6.051   4.014   5.130  0.0091  0.0190  1.5454
 1326TIP3   OH225392   6.698   1.153  13.784  0.4262 -0.1409  0.4540
 1326TIP3    H125393   6.700   1.070  13.736 -0.2198  1.0326 -1.6564
 1326TIP3    H225394   6.627   1.142  13.847  0.4406 -1.2401  0.2970
 1327TIP3   OH225395   5.371   1.398   6.225  0.4670 -0.1079 -0.2017
 1327TIP3    H125396   5.415   1.420   6.307 -1.3100  0.1462  0.7259
 1327TIP3    H225397   5.413   1.317   6.196 -1.2675 -2.2049  2.8682
 1328TIP3   OH225398   3.357   6.752   1.554 -0.4398  0.0452 -0.0179
 1328TIP3    H125399   3.354   6.677   1.494  1.3796 -0.1654  0.1178
 1328TIP3    H225400   3.337   6.828   1.499  0.3013 -0.2533 -0.7036
 1329TIP3   OH225401   3.521   2.457   0.460 -0.5643 -0.1370  0.4704
 1329TIP3    H125402   3.597   2.399   0.458  0.2263  0.8958  0.0234
 1329TIP3    H225403   3.544   2.525   0.523 -1.4821 -0.2847  0.9848
 1330TIP3   OH225404   2.075   5.001  17.224  0.2989  0.2072  0.1289
 1330TIP3    H125405   2.007   5.065  17.206 -0.1007 -0.3455 -0.3599
 1330TIP3    H225406   2.093   4.960  17.139  1.3563  0.4625  0.2289
 1331TIP3   OH225407   6.762   5.712   4.501  0.0486  0.0192  0.2066
 1331TIP3    H125408   6.733   5.622   4.492  0.7491 -0.1652 -0.2179
 1331TIP3    H225409   6.756   5.749   4.413 -0.3871  0.4367  0.4061
 1332TIP3   OH225410   6.604   2.484  13.969 -0.4131 -0.7096  0.0416
 1332TIP3    H125411   6.551   2.545  14.021  1.7722  0.1530  1.3720
 1332TIP3    H225412   6.549   2.461  13.894 -2.2619  0.8874  0.8657
 1333TIP3   OH225413   1.997   4.126   2.504 -0.5328  0.1517  0.2998
 1333TIP3    H125414   1.940   4.057   2.469 -0.7805 -0.0157  1.0190
 1333TIP3    H225415   2.067   4.135   2.440  1.4072 -3.1643  1.8185
 1334TIP3   OH225416   6.484   1.921   3.072 -0.0714 -0.0160 -0.2153
 1334TIP3    H125417   6.401   1.891   3.033 -0.0221 -0.3088 -0.0961
 1334TIP3    H225418   6.475   2.016   3.078 -1.5563 -0.2779  2.4358
 1335TIP3   OH225419   1.287   1.514   2.684 -0.6590 -0.1225  0.4703
 1335TIP3    H125420   1.368   1.525   2.634 -1.3073  0.2082 -0.5179
 1335TIP3    H225421   1.253   1.602   2.695 -1.7842 -0.4049 -0.6305
 1336TIP3   OH225422   1.777   4.661   2.680  0.5616 -0.4582  0.4253
 1336TIP3    H125423   1.839   4.601   2.721  1.3616  0.2400  0.2565
 1336TIP3    H225424   1.826   4.700   2.607 -0.1658 -0.1022  0.1212
 1337TIP3   OH225425   2.150   3.746  12.157  0.6374  0.4238 -0.0681
 1337TIP3    H125426   2.100   3.682  12.105  0.1300 -0.1504  1.0991
 1337TIP3    H225427   2.164   3.819  12.097  2.2843 -1.2634 -1.8200
 1338TIP3   OH225428   1.315   1.794   1.893  0.1009  0.2328 -0.0291
 1338TIP3    H125429   1.314   1.853   1.818 -1.2314  0.0292 -0.1734
 1338TIP3    H225430   1.226   1.794   1.926  0.4806 -0.3642  1.0246
 1339TIP3   OH225431   1.206   4.542   1.816  0.4681 -0.7385 -0.2366
 1339TIP3    H125432   1.144   4.574   1.750 -0.0523  0.3735  0.7766
 1339TIP3    H225433   1.292   4.558   1.778  0.2202  1.8875  0.2441
 1340TIP3   OH225434   4.745   2.951  11.359 -0.0658 -0.0942 -0.1092
 1340TIP3    H125435   4.720   3.033  11.402  1.5877  0.1505  0.4244
 1340TIP3    H225436   4.690   2.947  11.281 -1.5599  0.5479  0.8815
 1341TIP3   OH225437   4.950   5.574  16.230  0.3563  0.3481 -0.5569
 1341TIP3    H125438   4.870   5.622  16.255 -1.9284 -2.1202 -2.8563
 1341TIP3    H225439   4.983   5.538  16.313 -0.8560  1.4718  0.4342
 1342TIP3   OH225440   4.769   4.755  14.504  0.5855  0.2849  0.4360
 1342TIP3    H125441   4.864   4.752  14.500  0.5983 -1.3824  1.7103
 1342TIP3    H225442   4.740   4.744  14.414  1.5897  0.2785  0.1148
 1343TIP3   OH225443   3.936   5.750   4.457  0.4817  0.1214  0.5002
 1343TIP3    H125444   3.900   5.674   4.502 -0.2848 -0.2418 -0.7230
 1343TIP3    H225445   3.937   5.726   4.365  2.4895  0.6848  0.3481
 1344TIP3   OH225446   0.777   0.442   4.891 -0.4677 -0.0473  0.8686
 1344TIP3    H125447   0.682   0.443   4.881 -0.3079 -0.3281 -0.9880
 1344TIP3    H225448   0.799   0.530   4.921 -1.4645 -0.5426  3.1235
 1345TIP3   OH225449   6.045   3.865  16.199 -0.1275  0.5469  0.0286
 1345TIP3    H125450   6.041   3.878  16.105 -0.7867  0.0610 -0.0166
 1345TIP3    H225451   6.003   3.943  16.236  1.4593  1.4367 -0.0228
 1346TIP3   OH225452   0.375   4.685   2.467 -0.3231 -0.5624 -0.3669
 1346TIP3    H125453   0.365   4.599   2.507 -0.2625 -0.4135 -0.0334
 1346TIP3    H225454   0.445   4.727   2.516 -1.0582  0.0773  0.1520
 1347TIP3   OH225455   6.221   4.828  13.527 -0.4205  0.4959 -0.0445
 1347TIP3    H125456   6.138   4.877  13.524 -0.9535 -0.3227  1.3017
 1347TIP3    H225457   6.288   4.896  13.538 -0.9637  1.1040 -0.4006
 1348TIP3   OH225458   2.938   2.540   5.427 -0.0150  0.4172  0.1963
 1348TIP3    H125459   2.864   2.543   5.367  0.6460  1.6236 -0.5739
 1348TIP3    H225460   2.899   2.553   5.514 -0.7318  0.8897 -0.1884
 1349TIP3   OH225461   4.714   4.149   1.776 -0.6640  0.0370  0.4173
 1349TIP3    H125462   4.791   4.204   1.765  0.4183 -1.7908 -1.4422
 1349TIP3    H225463   4.736   4.092   1.850  0.1956 -1.1454 -0.7295
 1350TIP3   OH225464   3.683   0.053  15.245  0.2890  0.3431 -0.4144
 1350TIP3    H125465   3.776   0.052  15.225  0.1874  0.0401 -0.8752
 1350TIP3    H225466   3.650   0.135  15.208  0.7064  1.2853  1.2727
 1351TIP3   OH225467   3.599   6.161   0.611  0.1350 -0.5581  0.1687
 1351TIP3    H125468   3.681   6.127   0.649 -0.1785 -0.2280  1.1622
 1351TIP3    H225469   3.551   6.196   0.686 -0.8959 -0.7003 -0.4196
 1352TIP3   OH225470   1.254   5.027  16.977  0.3891 -0.6140 -1.1579
 1352TIP3    H125471   1.206   4.997  17.055  2.9733 -0.0463  0.7355
 1352TIP3    H225472   1.219   5.115  16.961  0.5322 -0.3239  0.0152
 1353TIP3   OH225473   0.143   4.381   2.444  1.2195  0.4648  0.0430
 1353TIP3    H125474   0.093   4.306   2.411 -0.5826  1.5254  0.2920
 1353TIP3    H225475   0.215   4.391   2.381  0.1629 -0.0737 -1.2831
 1354TIP3   OH225476   5.103   2.471   3.321  0.3714 -0.1405  0.3157
 1354TIP3    H125477   5.069   2.510   3.240  1.0737  1.2789  0.6810
 1354TIP3    H225478   5.033   2.484   3.385  0.9976  1.4749  0.6966
 1355TIP3   OH225479   4.320   5.623   4.960 -0.5599  0.3287  0.1103
 1355TIP3    H125480   4.299   5.711   4.928  1.7493  0.9293  0.1709
 1355TIP3    H225481   4.363   5.580   4.886  0.6948  0.1695  0.9215
 1356TIP3   OH225482   0.263   3.979   6.406 -0.0972 -0.3316 -0.1821
 1356TIP3    H125483   0.348   4.024   6.407 -0.7634  0.9609  1.6409
 1356TIP3    H225484   0.274   3.907   6.344  2.5420 -0.5652  0.5119
 1357TIP3   OH225485   4.068   0.633   0.922 -0.4029 -0.0230  0.7922
 1357TIP3    H125486   3.986   0.585   0.910 -0.8725  0.8270  0.5514
 1357TIP3    H225487   4.093   0.615   1.013  0.5743 -2.4855  0.0707
 1358TIP3   OH225488   6.378   2.679   5.823  0.3240 -0.1485  0.1910
 1358TIP3    H125489   6.289   2.668   5.854 -0.1632  0.9384 -0.7847
 1358TIP3    H225490   6.433   2.640   5.891 -0.8617 -0.3312  1.0451
 1359TIP3   OH225491   5.624   0.730  15.102 -0.1638 -0.0083  0.0795
 1359TIP3    H125492   5.615   0.638  15.127  1.2527 -0.2811 -0.3668
 1359TIP3    H225493   5.713   0.738  15.069 -0.9181  1.0759 -1.8079
 1360TIP3   OH225494   0.472   0.345   2.828 -0.0057 -0.3651  0.1666
 1360TIP3    H125495   0.535   0.274   2.825 -0.2202 -0.5016 -1.6035
 1360TIP3    H225496   0.396   0.312   2.780 -0.3507  0.8327 -0.1284
 1361TIP3   OH225497   0.109   2.954  11.724 -0.4558 -0.8675  0.1333
 1361TIP3    H125498   0.204   2.953  11.720 -0.2819  3.5807  0.1948
 1361TIP3    H225499   0.081   2.899  11.651  2.1978 -0.1210 -1.5127
 1362TIP3   OH225500   1.413   2.523  16.887  0.7132 -0.3655  0.3762
 1362TIP3    H125501   1.411   2.489  16.797  1.3380 -0.7637  0.5181
 1362TIP3    H225502   1.377   2.612  16.879 -1.2612 -1.1635  0.0641
 1363TIP3   OH225503   6.666   3.890   5.485 -0.4831  0.3433 -0.8405
 1363TIP3    H125504   6.577   3.914   5.511  0.4587  2.1285  0.7872
 1363TIP3    H225505   6.706   3.855   5.564  0.7332  0.9176 -1.1861
 1364TIP3   OH225506   4.417   0.086  11.366  0.1980 -0.2834  0.2025
 1364TIP3    H125507   4.416   0.077  11.462  1.1072 -0.6506  0.1831
 1364TIP3    H225508   4.360   0.016  11.335  0.5024 -0.6358  0.4407
 1365TIP3   OH225509   2.340   3.845   4.560 -0.2692 -0.3916 -0.1539
 1365TIP3    H125510   2.325   3.833   4.653  0.2057  0.9853  0.1075
 1365TIP3    H225511   2.429   3.880   4.554 -0.5850  0.2792 -1.0708
 1366TIP3   OH225512   5.811   1.302  13.056 -0.0381 -0.2776 -0.2083
 1366TIP3    H125513   5.786   1.333  12.969  3.7024 -2.8020 -2.3079
 1366TIP3    H225514   5.861   1.375  13.094  0.3192 -0.0574 -1.1001
 1367TIP3   OH225515   6.240   0.481   1.054  0.6447 -0.2402  0.4429
 1367TIP3    H125516   6.173   0.448   0.994  0.4275 -0.4194  0.7847
 1367TIP3    H225517   6.278   0.557   1.009  0.9310 -0.7684 -0.2038
 1368TIP3   OH225518   6.700   0.204  16.517  0.0892 -0.0338  0.3971
 1368TIP3    H125519   6.658   0.160  16.591 -0.1384  0.1765  0.3920
 1368TIP3    H225520   6.750   0.135  16.473 -1.2991 -0.5558 -0.3617
 1369TIP3   OH225521   1.896   1.761  14.102 -0.0160 -0.0567 -0.2076
 1369TIP3    H125522   1.967   1.720  14.152  4.5857  2.5411 -4.2041
 1369TIP3    H225523   1.865   1.691  14.044  2.8969 -0.0040 -1.9705
 1370TIP3   OH225524   6.026   5.858   2.361 -0.1316 -0.7150 -0.0630
 1370TIP3    H125525   6.089   5.891   2.426  1.1338 -2.1348 -0.5187
 1370TIP3    H225526   5.974   5.794   2.409 -1.4406  0.6754  0.3877
 1371TIP3   OH225527   5.066   0.601   0.777  1.0352 -0.0850  0.2540
 1371TIP3    H125528   5.155   0.634   0.775  1.2261 -0.4168  2.6448
 1371TIP3    H225529   5.067   0.530   0.841 -1.1630  0.5725  1.0885
 1372TIP3   OH225530   0.106   3.384  12.542 -0.4088  0.1323  0.1305
 1372TIP3    H125531   0.196   3.364  12.566  0.0858  0.8839 -1.0519
 1372TIP3    H225532   0.103   3.376  12.447 -1.2331  1.4853  0.0233
 1373TIP3   OH225533   2.322   6.388   4.732 -0.3763 -0.2003 -0.0636
 1373TIP3    H125534   2.277   6.307   4.755  2.2989 -0.9073  3.0171
 1373TIP3    H225535   2.257   6.457   4.750 -1.5261 -1.4082  0.5411
 1374TIP3   OH225536   2.859   5.262   6.836 -0.4508 -0.0094  0.3158
 1374TIP3    H125537   2.923   5.222   6.894 -0.6017 -1.4441 -0.4918
 1374TIP3    H225538   2.832   5.342   6.881  0.8365 -0.1291  1.3257
 1375TIP3   OH225539   2.559   5.422  16.260  0.1840  0.4695 -0.2264
 1375TIP3    H125540   2.562   5.330  16.234 -0.5565 -0.1679  1.8616
 1375TIP3    H225541   2.644   5.457  16.232  0.8755 -1.0954 -0.1440
 1376TIP3   OH225542   6.757   5.976  16.441  0.4271  0.5682  0.3043
 1376TIP3    H125543   6.709   5.899  16.411 -0.2942  0.5113  1.5829
 1376TIP3    H225544   6.804   5.947  16.519  1.2352  1.0716  0.0161
 1377TIP3   OH225545   0.268   4.728  11.893  0.4054  0.1850 -0.1299
 1377TIP3    H125546   0.224   4.670  11.955 -1.2455  0.3565 -1.1117
 1377TIP3    H225547   0.248   4.691  11.807  1.0693  1.0299 -0.6542
 1378TIP3   OH225548   1.117   4.763  16.052 -0.1025  0.2980  0.0644
 1378TIP3    H125549   1.051   4.748  16.121  1.0392  1.8761  1.5582
 1378TIP3    H225550   1.179   4.824  16.092  2.3581 -1.2801 -1.2766
 1379TIP3   OH225551   2.183   1.202  11.982  0.5358 -0.2450 -0.2172
 1379TIP3    H125552   2.186   1.112  11.948 -1.0239  0.2105 -1.6369
 1379TIP3    H225553   2.136   1.195  12.065 -0.4525 -0.6239 -0.7974
 1380TIP3   OH225554   0.383   6.592  12.871  0.0191  0.2739 -0.0556
 1380TIP3    H125555   0.415   6.647  12.941 -0.1021  0.2486  0.0187
 1380TIP3    H225556   0.437   6.614  12.795 -0.9796  1.5485 -0.4201
 1381TIP3   OH225557   5.820   3.620   1.337  0.0540  0.6656 -0.1400
 1381TIP3    H125558   5.772   3.697   1.306  1.3570  2.1361  1.3704
 1381TIP3    H225559   5.849   3.644   1.425  1.9296 -0.9175 -0.3018
 1382TIP3   OH225560   4.477   0.290   4.876 -0.9850 -0.0747  0.1212
 1382TIP3    H125561   4.435   0.299   4.790 -0.5272  0.2358 -0.0778
 1382TIP3    H225562   4.410   0.254   4.933 -0.5019 -3.0287 -1.0517
 1383TIP3   OH225563   0.448   5.758   0.006 -0.4059 -0.2906  0.7325
 1383TIP3    H125564   0.430   5.787   0.096 -0.6677  0.6411  0.3880
 1383TIP3    H225565   0.369   5.782  -0.043  0.1002  0.0366  0.0690
 1384TIP3   OH225566   5.065   3.210  14.458  0.0397  0.1137  0.1873
 1384TIP3    H125567   4.981   3.215  14.411 -0.6573  0.9239  1.4857
 1384TIP3    H225568   5.107   3.294  14.440 -0.6207  0.7856  1.7081
 1385TIP3   OH225569   3.651   6.114  11.725  0.2271 -0.0786  0.0243
 1385TIP3    H125570   3.562   6.079  11.715  0.3949 -0.1722 -1.2233
 1385TIP3    H225571   3.707   6.037  11.717  0.4500  0.0617  0.2409
 1386TIP3   OH225572   0.439   6.625   2.582 -0.2281 -0.4337 -0.4110
 1386TIP3    H125573   0.429   6.681   2.658 -0.6239 -0.7638 -0.2187
 1386TIP3    H225574   0.433   6.536   2.616 -1.3791 -0.5775 -0.9525
 1387TIP3   OH225575   1.096   3.230   1.949  0.3786  0.0760 -0.2334
 1387TIP3    H125576   1.069   3.210   2.038  1.8763  1.3177  0.5263
 1387TIP3    H225577   1.066   3.319   1.933 -0.7416 -0.4840 -1.3305
 1388TIP3   OH225578   2.426   1.925   3.674 -0.3321  0.5628  0.0113
 1388TIP3    H125579   2.340   1.931   3.633 -0.6608 -0.4020  0.5500
 1388TIP3    H225580   2.414   1.964   3.761 -0.1732  0.5881  0.0216
 1389TIP3   OH225581   5.538   1.513  13.692  0.2367  0.0747  0.3280
 1389TIP3    H125582   5.502   1.517  13.780  2.9024 -1.8247  1.5979
 1389TIP3    H225583   5.613   1.572  13.693 -1.4043  2.2713 -1.5860
 1390TIP3   OH225584   0.159   5.901   3.860 -0.4229 -0.0205  0.2388
 1390TIP3    H125585   0.134   5.809   3.869  0.6102 -0.3834 -0.4688
 1390TIP3    H225586   0.195   5.908   3.771  0.8383  0.7431  0.7954
 1391TIP3   OH225587   6.349   3.994  13.613  0.2705  0.0900  0.4579
 1391TIP3    H125588   6.405   4.052  13.664  0.6964 -0.8590  1.0954
 1391TIP3    H225589   6.361   4.023  13.522  1.0291  0.5367  0.6953
 1392TIP3   OH225590   0.438   5.937  13.474  0.2376  1.1115  0.3694
 1392TIP3    H125591   0.369   5.981  13.523  0.6876  1.1488  0.9858
 1392TIP3    H225592   0.405   5.848  13.460  0.5710  0.7541  1.7489
 1393TIP3   OH225593   0.489   4.178   2.837  0.4108 -0.3480 -0.4723
 1393TIP3    H125594   0.394   4.173   2.826  0.4254 -1.1867 -0.2251
 1393TIP3    H225595   0.510   4.268   2.813 -0.9082  1.0247  3.1955
 1394TIP3   OH225596   6.162   1.521  13.362 -0.1358 -0.4039 -0.1040
 1394TIP3    H125597   6.213   1.536  13.283 -2.9970  0.1168 -1.9079
 1394TIP3    H225598   6.121   1.606  13.382  0.0065 -0.6949  1.5570
 1395TIP3   OH225599   1.100   2.061   1.586  0.3855 -0.4663 -0.2437
 1395TIP3    H125600   1.120   2.146   1.547 -1.1013 -0.9838 -2.2371
 1395TIP3    H225601   1.105   2.076   1.680  0.7500  1.6781 -0.5720
 1396TIP3   OH225602   6.696   1.045   0.214 -0.4015 -0.3811  0.3021
 1396TIP3    H125603   6.704   1.114   0.280 -0.9633 -0.3305  0.3178
 1396TIP3    H225604   6.675   1.092   0.133  0.5556 -0.4170  0.0227
 1397TIP3   OH225605   3.386   4.234  14.246  0.4960  0.0747  0.3404
 1397TIP3    H125606   3.393   4.273  14.159 -0.4867  0.7268  0.5493
 1397TIP3    H225607   3.474   4.244  14.284  1.2475 -1.2331 -0.9817
 1398TIP3   OH225608   4.365   1.451  14.050  0.7264 -0.0303 -0.0279
 1398TIP3    H125609   4.338   1.497  14.129 -1.1147  0.5439 -0.9520
 1398TIP3    H225610   4.450   1.489  14.027 -0.0883  1.8728  0.0496
 1399TIP3   OH225611   3.332   0.766  10.827 -0.2532  0.0170 -0.0595
 1399TIP3    H125612   3.377   0.850  10.830  1.2821 -0.7919  0.0914
 1399TIP3    H225613   3.263   0.773  10.893 -1.4872  1.8924 -1.5059
 1400TIP3   OH225614   5.186   5.453   2.048  0.0873  0.0654 -0.2226
 1400TIP3    H125615   5.194   5.372   2.098 -0.3494  0.0521 -0.1746
 1400TIP3    H225616   5.131   5.429   1.973  0.1197  0.2714 -0.3117
 1401TIP3   OH225617   3.676   5.970  12.597  0.2033 -0.0572  0.1095
 1401TIP3    H125618   3.709   5.989  12.509  1.0957  2.5857  0.9422
 1401TIP3    H225619   3.721   5.889  12.622  1.1200 -0.0073 -1.2875
 1402TIP3   OH225620   4.856   2.779   0.444 -0.2302  0.6078  0.2896
 1402TIP3    H125621   4.920   2.845   0.468 -1.8662  1.6291  1.9549
 1402TIP3    H225622   4.908   2.699   0.431  1.6481  1.9768 -0.8401
 1403TIP3   OH225623   6.632   5.877  14.575 -0.6924  0.2095 -0.4232
 1403TIP3    H125624   6.698   5.923  14.522  0.0039 -1.8893 -1.4297
 1403TIP3    H225625   6.649   5.906  14.665  0.6944  0.7783 -0.8507
 1404TIP3   OH225626   5.107   0.898  15.735 -0.0101 -0.6239 -0.4753
 1404TIP3    H125627   5.039   0.894  15.668 -1.3176  0.6279  0.7613
 1404TIP3    H225628   5.094   0.818  15.787  0.5191 -1.2052 -1.2184
 1405TIP3   OH225629   0.962   2.546   3.080  0.2258  0.2350  0.1681
 1405TIP3    H125630   1.006   2.461   3.073 -1.6413 -0.7057 -0.4499
 1405TIP3    H225631   0.976   2.587   2.995 -0.0260 -0.0341 -0.0051
 1406TIP3   OH225632   5.871   0.290   0.600  0.0039 -0.0369 -0.5640
 1406TIP3    H125633   5.785   0.290   0.642  0.4098  0.0849  0.2807
 1406TIP3    H225634   5.853   0.306   0.507 -1.0819 -2.3417 -0.7855
 1407TIP3   OH225635   0.446   4.664  13.582  0.2186 -0.5045 -0.4254
 1407TIP3    H125636   0.400   4.632  13.660  0.0961 -2.7053 -1.3560
 1407TIP3    H225637   0.535   4.682  13.612  0.1499 -1.2619  0.2344
 1408TIP3   OH225638   5.007   0.881   2.234 -0.3549  0.0885 -0.0547
 1408TIP3    H125639   5.056   0.902   2.154 -1.6786 -0.0241 -0.9033
 1408TIP3    H225640   4.939   0.948   2.239 -0.3195  0.0545  0.9447
 1409TIP3   OH225641   1.423   1.034  17.140  0.1066 -0.3440  0.2889
 1409TIP3    H125642   1.341   1.000  17.104 -0.4027  0.4716  0.6681
 1409TIP3    H225643   1.413   1.129  17.136  1.1804 -0.2442  0.0072
 1410TIP3   OH225644   0.327   6.009  12.097 -0.2720 -0.5458 -0.3585
 1410TIP3    H125645   0.309   5.915  12.100 -0.3577 -0.5114  0.3660
 1410TIP3    H225646   0.418   6.015  12.066 -0.2285 -0.8772 -0.2969
 1411TIP3   OH225647   3.821   1.691  12.066 -0.0167 -0.1635 -0.0419
 1411TIP3    H125648   3.745   1.746  12.084 -0.1565  0.0267 -1.1458
 1411TIP3    H225649   3.887   1.751  12.031  1.2819 -0.0363  2.5632
 1412TIP3   OH225650   1.464   2.361  15.903  0.5004 -0.0410 -0.2259
 1412TIP3    H125651   1.467   2.439  15.848 -0.2614  0.5904  0.5963
 1412TIP3    H225652   1.412   2.388  15.979  0.1499 -1.3793  0.0235
 1413TIP3   OH225653   1.903   3.598  13.930  0.2421  0.2008  0.7867
 1413TIP3    H125654   1.923   3.584  14.023 -3.8234  0.5797  1.8251
 1413TIP3    H225655   1.853   3.679  13.928 -2.2511 -1.2995 -1.3243
 1414TIP3   OH225656   5.381   3.893   3.064 -0.3497  0.4841  0.1512
 1414TIP3    H125657   5.313   3.826   3.058  0.7264 -0.7918  1.8426
 1414TIP3    H225658   5.345   3.958   3.125 -0.9588  0.9645 -0.6960
 1415TIP3   OH225659   2.643   5.481   1.543  0.6728 -0.0660 -0.0893
 1415TIP3    H125660   2.593   5.560   1.562 -0.1611 -0.1145 -1.9913
 1415TIP3    H225661   2.606   5.414   1.602  0.3327  0.5543  0.4057
 1416TIP3   OH225662   5.801   3.636  16.131  0.1266  0.2336 -0.2026
 1416TIP3    H125663   5.770   3.726  16.146  0.6876  0.3977 -0.0329
 1416TIP3    H225664   5.844   3.640  16.045 -1.2159 -0.2260 -0.9103
 1417TIP3   OH225665   6.692   1.453   2.047  0.0314 -0.3620 -0.3676
 1417TIP3    H125666   6.698   1.357   2.040  0.3177 -0.4186  0.6391
 1417TIP3    H225667   6.600   1.470   2.063 -0.0111 -0.4712 -0.4888
 1418TIP3   OH225668   3.906   3.243  16.846  0.0983  0.2015 -0.1742
 1418TIP3    H125669   3.836   3.297  16.807  0.4738  0.7104 -0.1454
 1418TIP3    H225670   3.987   3.280  16.810  0.5691  1.6973  2.3130
 1419TIP3   OH225671   4.781   4.420   6.133  0.1478  0.1625 -0.3341
 1419TIP3    H125672   4.786   4.484   6.063 -1.1566  2.4062  1.5674
 1419TIP3    H225673   4.689   4.394   6.136  0.1424  0.2647  0.6983
 1420TIP3   OH225674   6.122   0.709  11.714 -0.5963  0.1242 -0.3472
 1420TIP3    H125675   6.099   0.687  11.624  2.0739 -0.1005 -1.0325
 1420TIP3    H225676   6.123   0.625  11.760 -1.0699  0.1330 -0.3181
 1421TIP3   OH225677   2.643   5.477   5.234  0.2853  0.2485  0.6497
 1421TIP3    H125678   2.709   5.411   5.255  1.7406  1.3347 -0.3477
 1421TIP3    H225679   2.591   5.438   5.164 -1.4267 -1.4108  2.8123
 1422TIP3   OH225680   4.261   6.090   3.601  0.0612 -0.3171 -0.0540
 1422TIP3    H125681   4.279   6.182   3.623  0.5670 -0.4144 -0.0612
 1422TIP3    H225682   4.192   6.095   3.534  0.9746  0.1136 -0.9927
 1423TIP3   OH225683   4.010   4.852   4.317 -0.1984 -0.0751  0.4060
 1423TIP3    H125684   3.930   4.799   4.326 -0.0909 -0.0698  1.4470
 1423TIP3    H225685   4.081   4.788   4.318 -0.1277  0.0059  0.6295
 1424TIP3   OH225686   0.062   1.844  13.089 -0.3862  0.3813 -0.3133
 1424TIP3    H125687   0.058   1.803  13.176  0.1778  0.4258 -0.2611
 1424TIP3    H225688   0.006   1.921  13.096 -1.9663 -0.7096 -0.5979
 1425TIP3   OH225689   0.625   1.522   1.112 -0.0930 -0.1127  0.1488
 1425TIP3    H125690   0.653   1.455   1.049  1.6657  0.2563  0.5125
 1425TIP3    H225691   0.570   1.581   1.061 -0.5748 -1.1043 -0.4897
 1426TIP3   OH225692   4.552   1.885  14.775 -0.4195  0.3304  0.0513
 1426TIP3    H125693   4.593   1.808  14.735 -0.0812 -0.5547  2.0036
 1426TIP3    H225694   4.460   1.859  14.788  0.2165 -0.7298  2.9258
 1427TIP3   OH225695   4.104   3.932   6.162  0.0482 -0.0080 -0.0746
 1427TIP3    H125696   4.162   3.933   6.238  1.9482  0.2139 -1.4832
 1427TIP3    H225697   4.154   3.885   6.094 -2.0589 -1.1893 -0.8495
 1428TIP3   OH225698   4.986   4.015   2.315  0.5123 -0.3135 -0.0228
 1428TIP3    H125699   4.924   4.048   2.380  0.5731 -1.4151  0.6059
 1428TIP3    H225700   5.010   4.092   2.264 -0.0928  0.4326  0.7985
 1429TIP3   OH225701   4.830   0.765  10.416  0.2119  0.8078  0.2211
 1429TIP3    H125702   4.897   0.762  10.348  0.7170  0.6800  0.7218
 1429TIP3    H225703   4.868   0.717  10.490 -0.8603 -0.2026  0.1289
 1430TIP3   OH225704   5.263   4.933  13.600  0.2658  0.0663 -0.4367
 1430TIP3    H125705   5.184   4.879  13.610 -0.4837  1.0722 -0.8547
 1430TIP3    H225706   5.308   4.925  13.684 -1.1746  0.8589  0.4414
 1431TIP3   OH225707   0.803   6.096   1.875  0.2904  0.0859 -0.0363
 1431TIP3    H125708   0.846   6.011   1.861  1.1983  0.4641  0.3924
 1431TIP3    H225709   0.825   6.119   1.965 -0.8115  0.3067  0.1826
 1432TIP3   OH225710   2.727   1.873   3.510  0.0545  0.0357 -0.0251
 1432TIP3    H125711   2.712   1.949   3.454  0.1995 -1.8209 -2.7096
 1432TIP3    H225712   2.822   1.866   3.517  0.0940 -0.8999 -1.2778
 1433TIP3   OH225713   1.613   1.889   1.662  0.0410 -0.4438 -0.1042
 1433TIP3    H125714   1.635   1.948   1.734  1.0067 -0.2382 -0.5607
 1433TIP3    H225715   1.523   1.913   1.639  0.4082  0.8403 -0.2593
 1434TIP3   OH225716   0.738   4.218  16.013 -0.7208 -0.1288  0.1760
 1434TIP3    H125717   0.812   4.224  16.073 -0.9489  1.1478  0.3470
 1434TIP3    H225718   0.679   4.288  16.040 -1.8192 -0.8821 -0.1990
 1435TIP3   OH225719   1.278   5.827   2.935  0.5152 -0.8936 -0.5141
 1435TIP3    H125720   1.342   5.857   2.871  1.2760 -2.3858 -0.4740
 1435TIP3    H225721   1.327   5.765   2.990 -0.6980 -1.2854  0.1375
 1436TIP3   OH225722   1.893   0.161   5.087 -0.1293  0.0671  0.0023
 1436TIP3    H125723   1.805   0.162   5.126 -0.4046  1.6266 -0.6346
 1436TIP3    H225724   1.952   0.177   5.160 -0.4544  0.2416  0.2277
 1437TIP3   OH225725   0.807   4.091  12.553 -0.4368 -0.2055 -0.2050
 1437TIP3    H125726   0.834   4.043  12.475 -0.6620  1.0132 -1.0483
 1437TIP3    H225727   0.869   4.165  12.557 -2.0985  1.2451 -0.7663
 1438TIP3   OH225728   2.045   2.708  17.154 -0.1706  0.1633  0.1566
 1438TIP3    H125729   2.125   2.760  17.149 -0.8455  1.3029  0.9062
 1438TIP3    H225730   2.063   2.641  17.220 -0.2286  1.1366  1.1722
 1439TIP3   OH225731   5.231   6.350   1.161  0.0860 -0.2192  0.3602
 1439TIP3    H125732   5.224   6.423   1.224  0.2936  0.2791 -0.1932
 1439TIP3    H225733   5.316   6.311   1.179  0.5283  0.4816 -0.2138
 1440TIP3   OH225734   2.685   4.614  10.730  0.4677  0.4227  0.3030
 1440TIP3    H125735   2.707   4.697  10.774  2.2494  0.0415  0.1860
 1440TIP3    H225736   2.621   4.638  10.664  0.6428  1.6465  0.5669
 1441TIP3   OH225737   2.648   1.168  13.618 -0.2431 -0.2438  0.1935
 1441TIP3    H125738   2.579   1.225  13.584 -0.0252 -0.5048 -0.6789
 1441TIP3    H225739   2.729   1.219  13.606 -0.2057 -0.1874  0.6558
 1442TIP3   OH225740   4.653   6.383   5.808 -0.2481  0.1943  0.1002
 1442TIP3    H125741   4.633   6.411   5.897 -0.9238  0.0159  0.0052
 1442TIP3    H225742   4.667   6.464   5.759  0.9846  0.2700  0.5656
 1443TIP3   OH225743   5.887   1.095  11.355  0.2964 -0.0774  0.3669
 1443TIP3    H125744   5.883   1.029  11.286 -1.0244  0.3174  0.0643
 1443TIP3    H225745   5.840   1.170  11.319 -0.7396 -0.0089  1.8486
 1444TIP3   OH225746   2.798   5.307  12.783 -0.3796 -1.1036  0.3686
 1444TIP3    H125747   2.858   5.238  12.811 -0.3559 -1.1596  0.1779
 1444TIP3    H225748   2.786   5.361  12.861  2.0259  0.4794 -0.3058
 1445TIP3   OH225749   2.411   3.771  10.908  0.0468  0.1155  0.2728
 1445TIP3    H125750   2.376   3.829  10.840 -1.8733 -1.4486 -0.1261
 1445TIP3    H225751   2.506   3.776  10.896 -0.2461 -1.7676 -4.0566
 1446TIP3   OH225752   1.501   1.999  16.615  0.3075  0.2399  1.0088
 1446TIP3    H125753   1.435   1.951  16.566  0.1516 -1.0249  2.4214
 1446TIP3    H225754   1.469   2.089  16.617 -1.6494 -0.4591  2.1372
 1447TIP3   OH225755   1.581   3.745   4.306  0.3352 -0.2144  0.0170
 1447TIP3    H125756   1.550   3.655   4.297  0.8215 -0.3123 -0.7014
 1447TIP3    H225757   1.675   3.740   4.289  0.6966  0.1390  1.7639
 1448TIP3   OH225758   1.356   4.772   6.138  0.0120  0.8509  0.6598
 1448TIP3    H125759   1.394   4.693   6.176  0.5378  1.0889  0.6311
 1448TIP3    H225760   1.262   4.754   6.134  0.0892  0.3725  0.9933
 1449TIP3   OH225761   0.209   2.809  15.807 -0.7202 -0.1353  0.3094
 1449TIP3    H125762   0.211   2.738  15.743  1.8586  1.5737 -1.5966
 1449TIP3    H225763   0.174   2.884  15.758  0.1467  0.8861  1.2422
 1450TIP3   OH225764   2.478   4.294  16.598  0.5508 -0.4679 -0.1082
 1450TIP3    H125765   2.570   4.267  16.591  1.2343  1.9845 -1.1610
 1450TIP3    H225766   2.474   4.378  16.552 -1.5409  1.0210  2.6292
 1451TIP3   OH225767   5.857   1.425  16.504 -0.0514  0.0295 -0.3149
 1451TIP3    H125768   5.776   1.454  16.463 -1.2037 -1.3272  0.9426
 1451TIP3    H225769   5.829   1.381  16.584  1.9829  0.2280  0.5301
 1452TIP3   OH225770   6.445   2.929   0.016  0.3571  0.0077  0.2702
 1452TIP3    H125771   6.478   2.883  -0.061  1.3503 -0.5386  1.0114
 1452TIP3    H225772   6.400   3.005  -0.019  1.1874 -0.0001 -0.8369
 1453TIP3   OH225773   2.961   2.249   2.936 -0.5184 -0.2190  0.6752
 1453TIP3    H125774   2.968   2.322   2.997 -1.5904  2.8237 -2.7011
 1453TIP3    H225775   2.886   2.199   2.968 -1.4992  1.7024  1.4568
 1454TIP3   OH225776   5.568   3.372  12.777  0.1881  0.0905 -0.5679
 1454TIP3    H125777   5.542   3.396  12.688 -0.5228  0.2106 -0.3315
 1454TIP3    H225778   5.498   3.313  12.807 -0.6179  1.6251  0.6279
 1455TIP3   OH225779   4.672   0.513   2.406 -0.2331  0.5507 -0.3850
 1455TIP3    H125780   4.622   0.433   2.422 -1.0763  1.0468 -0.4597
 1455TIP3    H225781   4.763   0.489   2.420 -0.4859 -0.4172 -0.3989
 1456TIP3   OH225782   3.216   4.554  13.753  0.2723  0.5614  0.3231
 1456TIP3    H125783   3.156   4.530  13.824 -0.2807  0.5893 -0.1336
 1456TIP3    H225784   3.206   4.648  13.743 -0.4714  0.4057 -0.5245
 1457TIP3   OH225785   5.741   0.977   2.763  0.5494  0.0253  0.3631
 1457TIP3    H125786   5.809   1.029   2.805 -0.0776  0.9148  0.3084
 1457TIP3    H225787   5.758   0.988   2.669  0.4689  0.0650  0.3531
 1458TIP3   OH225788   3.699   2.274   6.094 -0.5226  0.4966 -0.4380
 1458TIP3    H125789   3.758   2.303   6.024 -1.3572  0.2410 -1.2646
 1458TIP3    H225790   3.689   2.351   6.150  1.4893  0.2079  0.3535
 1459TIP3   OH225791   2.541   1.414  15.875  0.0132 -0.1621  0.4133
 1459TIP3    H125792   2.472   1.476  15.900  0.9749  0.5870  1.2767
 1459TIP3    H225793   2.594   1.404  15.954 -0.5733 -2.7151  0.5268
 1460TIP3   OH225794   0.132   5.366   6.156 -0.3071  0.0603  0.3335
 1460TIP3    H125795   0.141   5.419   6.077 -1.6228 -1.4873 -0.9161
 1460TIP3    H225796   0.088   5.423   6.219 -1.0056  0.7133 -0.7219
 1461TIP3   OH225797   0.130   3.291   5.037 -0.1022 -0.0821 -0.4234
 1461TIP3    H125798   0.203   3.265   5.094 -0.3688 -0.2983 -0.1833
 1461TIP3    H225799   0.162   3.370   4.992  0.5381 -0.5594 -0.8249
 1462TIP3   OH225800   0.750   3.529   5.823  0.1384  0.4663 -0.3263
 1462TIP3    H125801   0.726   3.622   5.827 -0.5189  0.3407 -1.1720
 1462TIP3    H225802   0.729   3.504   5.733  0.1367 -0.5555 -0.0366
 1463TIP3   OH225803   0.800   4.486   4.591  0.1356  0.1501  0.1415
 1463TIP3    H125804   0.773   4.405   4.633  2.0864 -1.3402 -1.3669
 1463TIP3    H225805   0.863   4.525   4.652 -0.1636  0.0820  0.4904
 1464TIP3   OH225806   2.481   6.600  12.704  0.3136  0.1614 -0.1390
 1464TIP3    H125807   2.413   6.626  12.642 -0.2663  0.5916  0.6696
 1464TIP3    H225808   2.523   6.682  12.730 -1.4029  0.3326  2.2883
 1465TIP3   OH225809   1.662   0.028  14.349 -0.1151  0.1817 -0.3958
 1465TIP3    H125810   1.584   0.034  14.404  0.2108 -0.0337  0.0955
 1465TIP3    H225811   1.734   0.015  14.411  0.0357 -1.9620 -0.9794
 1466TIP3   OH225812   4.822   6.725  16.681 -0.2804 -0.2887 -0.0651
 1466TIP3    H125813   4.738   6.756  16.715 -0.2752 -0.3592  0.0134
 1466TIP3    H225814   4.886   6.756  16.745  0.0532  1.9462 -1.3965
 1467TIP3   OH225815   2.578   6.631  14.088  0.4637  0.3006  0.4075
 1467TIP3    H125816   2.534   6.585  14.159  0.1829 -1.0664 -0.6321
 1467TIP3    H225817   2.517   6.624  14.014  0.3101  2.5313  0.2822
 1468TIP3   OH225818   1.954   5.419   3.525  0.1290  0.5232 -0.0575
 1468TIP3    H125819   2.023   5.403   3.589 -0.5453 -1.1559  0.2783
 1468TIP3    H225820   1.904   5.493   3.561  0.1388 -0.0001  1.0468
 1469TIP3   OH225821   2.612   3.123  13.789 -0.1153 -0.3089 -0.2892
 1469TIP3    H125822   2.708   3.128  13.783  0.2419 -0.5850  3.8629
 1469TIP3    H225823   2.585   3.214  13.801 -0.0039 -0.5493  2.0630
 1470TIP3   OH225824   6.507   0.280  15.758  0.0440 -0.2645 -0.2764
 1470TIP3    H125825   6.601   0.264  15.752  0.0510 -0.6495  0.7227
 1470TIP3    H225826   6.481   0.236  15.839 -0.6480  1.4311  0.4498
 1471TIP3   OH225827   3.663   2.883  13.867 -0.1165 -0.2854  0.4541
 1471TIP3    H125828   3.603   2.859  13.796 -0.5061 -1.4304  1.1628
 1471TIP3    H225829   3.694   2.800  13.901  1.6985  0.3045  0.2651
 1472TIP3   OH225830   0.089   6.720  15.700 -0.2515  0.2380  0.0329
 1472TIP3    H125831   0.020   6.782  15.727  0.2182  0.8579 -0.1853
 1472TIP3    H225832   0.081   6.715  15.605  0.9496  1.4389 -0.1424
 1473TIP3   OH225833   1.766   3.191   6.559  0.3945  0.3547  0.5861
 1473TIP3    H125834   1.849   3.240   6.555 -0.7963  2.5077  1.7026
 1473TIP3    H225835   1.773   3.127   6.488  2.0073  2.1358 -0.9163
 1474TIP3   OH225836   6.439   1.061  16.776 -0.2457 -0.4604 -0.5206
 1474TIP3    H125837   6.419   1.052  16.869 -1.3129 -0.1823 -0.7086
 1474TIP3    H225838   6.371   1.010  16.732 -0.6180  0.5906 -1.1911
 1475TIP3   OH225839   0.246   5.646  11.839  0.0602  0.5682  1.1190
 1475TIP3    H125840   0.156   5.680  11.841 -0.4064 -0.5760  0.6603
 1475TIP3    H225841   0.281   5.665  11.926 -0.8306  0.5360  1.4977
 1476TIP3   OH225842   5.406   3.551   4.854  0.3794 -0.6246  0.5666
 1476TIP3    H125843   5.324   3.503   4.843  0.6106 -0.9346  0.1437
 1476TIP3    H225844   5.446   3.551   4.766 -0.4658  1.9422  0.1524
 1477TIP3   OH225845   0.121   6.120  16.276  0.0892  0.5103  0.4365
 1477TIP3    H125846   0.134   6.200  16.326 -1.4262  0.7606  0.4514
 1477TIP3    H225847   0.079   6.059  16.337 -0.6075  0.3921 -0.1465
 1478TIP3   OH225848   1.126   4.398  10.922 -0.2933  0.0296  0.3951
 1478TIP3    H125849   1.131   4.466  10.854 -2.8968 -0.7199 -0.6094
 1478TIP3    H225850   1.044   4.351  10.903 -0.7197 -0.6580  3.6482
 1479TIP3   OH225851   1.917   6.510   1.532 -0.1689 -0.4394  0.9560
 1479TIP3    H125852   1.982   6.568   1.571 -0.9342  0.1148  1.4275
 1479TIP3    H225853   1.880   6.462   1.606 -0.4412 -0.6007  0.7167
 1480TIP3   OH225854   4.679   2.136  11.390 -0.2939  0.6613 -0.5303
 1480TIP3    H125855   4.665   2.192  11.314  1.4113 -0.2076 -1.5123
 1480TIP3    H225856   4.592   2.110  11.418 -0.9085  0.1286 -2.8545
 1481TIP3   OH225857   2.915   6.129   0.976  0.3575  0.3551 -0.0679
 1481TIP3    H125858   2.871   6.071   1.038 -0.3334 -0.0089 -0.8863
 1481TIP3    H225859   2.873   6.111   0.892  1.4323  0.6912 -0.6885
 1482TIP3   OH225860   5.296   6.642   3.199  0.2054 -1.1633 -0.2840
 1482TIP3    H125861   5.343   6.624   3.117 -1.1961 -2.4793 -0.8183
 1482TIP3    H225862   5.342   6.591   3.265  1.2934 -0.1593 -0.2477
 1483TIP3   OH225863   4.155   3.867  14.908  0.3178  0.0426  0.5624
 1483TIP3    H125864   4.173   3.944  14.962  1.8075 -0.6809  1.1420
 1483TIP3    H225865   4.153   3.900  14.819 -3.3815  1.4762  1.0933
 1484TIP3   OH225866   0.390   2.932   6.690 -0.3714 -0.5325  0.6368
 1484TIP3    H125867   0.430   2.846   6.700 -1.6648 -1.2888 -0.5921
 1484TIP3    H225868   0.310   2.916   6.641 -1.3298  1.1963  1.5764
 1485TIP3   OH225869   5.348   4.068  13.477  0.5644 -0.1381 -0.4745
 1485TIP3    H125870   5.442   4.059  13.495  0.2182 -2.9991  0.1603
 1485TIP3    H225871   5.326   3.992  13.424 -1.6417 -0.1891  0.4459
 1486TIP3   OH225872   4.310   4.103   6.702 -0.4728 -0.5812 -0.0033
 1486TIP3    H125873   4.343   4.192   6.717 -3.3287  0.3816  0.7144
 1486TIP3    H225874   4.374   4.064   6.643  0.6777  2.0423 -0.5479
 1487TIP3   OH225875   0.912   0.867  11.060  0.8694  0.0136  0.3907
 1487TIP3    H125876   0.887   0.884  11.151  0.6828 -2.7332  0.8998
 1487TIP3    H225877   0.855   0.795  11.032  2.9968 -1.2272 -0.9057
 1488TIP3   OH225878   1.372   1.834  12.301 -0.4233 -0.1099  0.3265
 1488TIP3    H125879   1.422   1.782  12.238  0.1861  0.8383  0.0185
 1488TIP3    H225880   1.317   1.890  12.247 -1.8997 -1.2110  0.6670
 1489TIP3   OH225881   3.206   1.036   5.040 -0.0597 -0.3515 -1.0183
 1489TIP3    H125882   3.112   1.019   5.030  0.1972 -2.1600 -0.5183
 1489TIP3    H225883   3.225   1.015   5.132  0.3595  2.4578 -0.4182
 1490TIP3   OH225884   0.839   0.540   4.480 -0.3384 -0.0120 -0.1778
 1490TIP3    H125885   0.885   0.504   4.404  0.3137  1.5381 -0.5486
 1490TIP3    H225886   0.768   0.592   4.443 -0.3075  0.3647  0.2824
 1491TIP3   OH225887   5.567   5.257   5.734  0.5617  0.2722  0.1680
 1491TIP3    H125888   5.641   5.201   5.711  0.2466 -0.2404  0.3820
 1491TIP3    H225889   5.577   5.272   5.828  0.1861 -0.1142  0.2718
 1492TIP3   OH225890   4.523   4.203   0.360  0.2048  0.2650  0.4181
 1492TIP3    H125891   4.430   4.223   0.366  0.5891  2.0016  0.6644
 1492TIP3    H225892   4.565   4.286   0.338  1.7778 -0.3407  1.0179
 1493TIP3   OH225893   5.389   1.214  16.911  0.1458  0.1212 -0.3319
 1493TIP3    H125894   5.476   1.254  16.906  0.0697  0.3431  0.1126
 1493TIP3    H225895   5.347   1.258  16.985 -1.0342  1.3725 -1.7330
 1494TIP3   OH225896   4.368   4.206   3.871 -0.1134  0.1215  0.2504
 1494TIP3    H125897   4.357   4.270   3.801 -0.5295 -0.0448  0.1672
 1494TIP3    H225898   4.288   4.212   3.923 -0.3972 -0.7379 -0.0847
 1495TIP3   OH225899   2.439   1.431   3.110 -0.2444  0.2147  0.3238
 1495TIP3    H125900   2.414   1.361   3.170  0.9332 -0.0620  0.5102
 1495TIP3    H225901   2.405   1.404   3.025 -0.2734 -0.3248  0.5054
 1496TIP3   OH225902   1.798   6.313  16.959  0.2838  0.8500 -0.6736
 1496TIP3    H125903   1.782   6.309  17.053  0.5252  1.8279 -0.5941
 1496TIP3    H225904   1.760   6.396  16.931 -1.2649 -0.1791 -1.7399
 1497TIP3   OH225905   6.592   3.001  13.889  0.4599  0.1091 -0.1456
 1497TIP3    H125906   6.553   3.087  13.902  2.5431  0.8144  1.7324
 1497TIP3    H225907   6.563   2.974  13.802 -0.9120  2.3235 -0.4019
 1498TIP3   OH225908   1.440   6.231  13.724  0.5398  0.2962  0.3382
 1498TIP3    H125909   1.422   6.324  13.730  0.0586  0.2520 -0.3821
 1498TIP3    H225910   1.414   6.195  13.809  2.3992  1.0870  1.2706
 1499TIP3   OH225911   5.425   4.420  16.595  0.0001  0.0108 -0.6194
 1499TIP3    H125912   5.456   4.337  16.559 -0.0565  0.4307 -1.6475
 1499TIP3    H225913   5.329   4.411  16.596 -0.0319  0.2714 -1.2418
 1500TIP3   OH225914   1.191   1.701  15.283  0.4983  0.7513 -0.1993
 1500TIP3    H125915   1.263   1.690  15.345  0.6835  1.0696 -0.3514
 1500TIP3    H225916   1.121   1.644  15.315  0.7226  0.6465  0.1000
 1501TIP3   OH225917   2.397   1.064   5.527  0.6717  0.6987  0.1739
 1501TIP3    H125918   2.326   1.057   5.463 -0.4040 -0.9035  1.4803
 1501TIP3    H225919   2.465   1.005   5.494 -0.7949 -1.9030  1.5879
 1502TIP3   OH225920   0.603   0.108   0.439 -0.3168 -0.0900 -0.5996
 1502TIP3    H125921   0.517   0.079   0.469  0.2616 -0.7064  0.4835
 1502TIP3    H225922   0.649   0.027   0.417 -0.2878  0.2823 -1.9413
 1503TIP3   OH225923   2.437   6.025  16.752  0.9049  0.1673  0.3429
 1503TIP3    H125924   2.418   5.959  16.819  0.7132  0.1786  0.3014
 1503TIP3    H225925   2.504   5.984  16.697  1.9533  0.6174  1.2477
 1504TIP3   OH225926   0.199   6.030  11.596 -0.2714  0.2051  0.4861
 1504TIP3    H125927   0.207   6.063  11.685 -2.2734  0.0597  0.7570
 1504TIP3    H225928   0.166   6.104  11.545  0.8566  0.2858 -0.1434
 1505TIP3   OH225929   5.138   1.560  12.940 -0.5504  0.0012  0.4265
 1505TIP3    H125930   5.165   1.618  12.869  0.1179 -0.0319  0.6528
 1505TIP3    H225931   5.073   1.611  12.988 -0.5238  0.2715  0.1781
 1506TIP3   OH225932   2.935   4.543   4.988 -0.4302  0.1760  0.2364
 1506TIP3    H125933   3.016   4.546   4.937 -0.1235 -0.3537  0.6870
 1506TIP3    H225934   2.896   4.459   4.967 -0.8829  0.4414  0.0008
 1507TIP3   OH225935   0.833   1.822  11.667 -0.0349  0.2158  0.3502
 1507TIP3    H125936   0.810   1.754  11.730 -0.7010  1.0023  0.9614
 1507TIP3    H225937   0.906   1.868  11.707  0.4505 -0.1699 -0.0875
 1508TIP3   OH225938   2.281   4.808  16.959 -0.2562  0.0637 -0.1852
 1508TIP3    H125939   2.187   4.806  16.940 -0.5413  0.6312  1.1042
 1508TIP3    H225940   2.317   4.734  16.909 -1.4215 -0.3116 -0.4945
 1509TIP3   OH225941   4.818   2.528  13.832  0.0889 -0.3221 -0.0276
 1509TIP3    H125942   4.758   2.515  13.758 -0.8334 -0.1405  0.6778
 1509TIP3    H225943   4.824   2.623  13.842 -2.2166 -0.3481  2.0466
 1510TIP3   OH225944   4.773   5.806  11.548 -0.3378 -0.5299 -0.0355
 1510TIP3    H125945   4.737   5.756  11.475 -0.1196  0.2062 -0.6546
 1510TIP3    H225946   4.776   5.744  11.621  0.0679 -1.4454 -0.8354
 1511TIP3   OH225947   2.895   5.184  16.568  0.2950  0.1210  0.0945
 1511TIP3    H125948   2.889   5.280  16.574 -1.7184 -0.0142  0.6232
 1511TIP3    H225949   2.895   5.155  16.660  2.4154 -0.3248 -0.0308
 1512TIP3   OH225950   2.422   0.955   3.177 -0.4136 -0.0354  0.9786
 1512TIP3    H125951   2.391   0.976   3.265 -1.4145  0.8147  0.4247
 1512TIP3    H225952   2.387   1.024   3.121 -2.7233 -2.4080 -0.6546
 1513TIP3   OH225953   2.695   3.727  15.526  0.3362 -0.0939 -0.0525
 1513TIP3    H125954   2.625   3.694  15.470 -0.2601  1.7920 -0.4724
 1513TIP3    H225955   2.650   3.760  15.603  0.8206  0.4867 -0.0162
 1514TIP3   OH225956   1.868   0.644   1.239 -0.2706  0.9156  0.1604
 1514TIP3    H125957   1.806   0.668   1.170 -1.0984  0.0347  0.5822
 1514TIP3    H225958   1.814   0.632   1.317  0.2147 -1.2972  0.1999
 1515TIP3   OH225959   5.430   4.255   3.795  0.4040 -0.7501  0.2442
 1515TIP3    H125960   5.479   4.227   3.872  1.1777 -0.7765 -0.2564
 1515TIP3    H225961   5.357   4.306   3.831  0.1107 -1.7160  1.0474
 1516TIP3   OH225962   0.432   4.216  14.041  0.0867  0.3733 -0.8446
 1516TIP3    H125963   0.376   4.184  14.112  1.4314  0.7817  0.4307
 1516TIP3    H225964   0.424   4.150  13.972 -2.0428  0.4906 -0.7436
 1517TIP3   OH225965   3.339   5.281   5.553  0.2288 -0.0453 -0.2024
 1517TIP3    H125966   3.338   5.289   5.457 -3.0732  0.3887 -0.1890
 1517TIP3    H225967   3.281   5.350   5.584  1.5142  0.0229  2.1706
 1518TIP3   OH225968   3.580   3.754  11.440  0.1998 -0.6897 -0.0073
 1518TIP3    H125969   3.560   3.721  11.527  2.5514 -0.9056  0.4946
 1518TIP3    H225970   3.672   3.733  11.427  0.4668  1.3027 -1.6552
 1519TIP3   OH225971   3.773   1.127  12.811 -0.9814 -0.3194 -0.0341
 1519TIP3    H125972   3.715   1.196  12.842 -3.6516 -1.8956 -1.3621
 1519TIP3    H225973   3.783   1.068  12.886 -0.3488  0.4365  0.4767
 1520TIP3   OH225974   5.686   4.090   4.277  0.1473  0.4452  0.4416
 1520TIP3    H125975   5.691   3.998   4.304 -0.5252  0.8304  1.9251
 1520TIP3    H225976   5.777   4.114   4.259  0.4527 -0.2419  1.0021
 1521TIP3   OH225977   2.721   1.291   1.863 -0.2930  0.4672 -0.0403
 1521TIP3    H125978   2.667   1.333   1.797 -0.7284  2.1573  1.3452
 1521TIP3    H225979   2.807   1.280   1.822 -0.1909  2.6726 -0.4477
 1522TIP3   OH225980   2.621   1.728   1.089 -0.3814  0.1344 -0.2697
 1522TIP3    H125981   2.573   1.645   1.094  1.2260 -0.8205 -0.1566
 1522TIP3    H225982   2.558   1.791   1.055 -1.2242 -1.4918 -1.8042
 1523TIP3   OH225983   4.823   1.296   3.792  0.0546 -0.3501 -0.4822
 1523TIP3    H125984   4.739   1.324   3.828  0.6391 -0.7978  1.2506
 1523TIP3    H225985   4.803   1.216   3.745 -0.2238 -1.3427  1.2878
 1524TIP3   OH225986   5.316   4.759  16.814 -0.2962 -0.1014  0.5231
 1524TIP3    H125987   5.261   4.681  16.808  0.9108 -0.9914  0.8910
 1524TIP3    H225988   5.323   4.776  16.908  0.3288 -0.1840  0.4883
 1525TIP3   OH225989   0.134   3.566   4.322 -0.1843  0.1908  0.0744
 1525TIP3    H125990   0.069   3.577   4.392 -0.9467  1.1894 -0.7807
 1525TIP3    H225991   0.129   3.472   4.300  0.0302 -0.1238  1.3204
 1526TIP3   OH225992   4.765   4.140   2.520 -0.3454 -0.2359 -0.8128
 1526TIP3    H125993   4.686   4.194   2.523  0.0152  0.1849  2.3950
 1526TIP3    H225994   4.745   4.072   2.456 -1.9786  1.8631 -2.6147
 1527TIP3   OH225995   1.347   2.720  16.331  0.1472 -0.0415 -0.2396
 1527TIP3    H125996   1.408   2.794  16.327  1.8668 -1.3398  1.2686
 1527TIP3    H225997   1.403   2.644  16.346 -1.8205 -1.3328  0.6865
 1528TIP3   OH225998   4.962   4.294   4.548  0.4066  0.2277 -0.0329
 1528TIP3    H125999   4.967   4.348   4.469  2.2454 -1.0970 -0.8774
 1528TIP3    H226000   4.959   4.357   4.620  2.5487  1.4875 -0.9904
 1529TIP3   OH226001   5.819   2.653   3.532  0.1554 -0.0983  0.1117
 1529TIP3    H126002   5.866   2.700   3.601  0.7443  1.1588 -1.1390
 1529TIP3    H226003   5.727   2.676   3.546  0.3224  0.5210  0.1933
 1530TIP3   OH226004   0.348   6.006  15.349  0.5215 -0.7455 -0.1050
 1530TIP3    H126005   0.339   5.925  15.399  2.3226 -0.0479  1.4142
 1530TIP3    H226006   0.434   6.039  15.373 -0.7559  2.3733  0.3996
 1531TIP3   OH226007   4.807   4.276  14.482 -0.0647  0.5630 -0.5184
 1531TIP3    H126008   4.775   4.321  14.561  0.3160 -1.7963  1.0271
 1531TIP3    H226009   4.729   4.268  14.427 -0.5381  1.4508  0.0101
 1532TIP3   OH226010   2.517   3.653  14.205 -0.1145 -0.6417  0.2059
 1532TIP3    H126011   2.478   3.565  14.201  0.3342 -0.8023 -1.0109
 1532TIP3    H226012   2.607   3.638  14.234 -0.5265 -0.4202  1.5893
 1533TIP3   OH226013   3.304   3.896  16.385  0.6931 -0.0461  0.2749
 1533TIP3    H126014   3.232   3.844  16.349  2.1144 -2.2705  0.5403
 1533TIP3    H226015   3.275   3.987  16.376 -2.7023 -0.9395  1.5832
 1534TIP3   OH226016   2.625   6.503   5.625 -0.3762  0.2110  0.1668
 1534TIP3    H126017   2.532   6.479   5.621 -0.4173  0.2161  1.0382
 1534TIP3    H226018   2.648   6.492   5.717  0.4939  0.1934 -0.0545
 1535TIP3   OH226019   3.487   1.143   4.313 -0.1914 -0.1941 -0.8740
 1535TIP3    H126020   3.503   1.145   4.408  0.3098  1.6015 -0.9798
 1535TIP3    H226021   3.548   1.076   4.280  0.7677  0.3001 -0.1344
 1536TIP3   OH226022   2.740   5.671   3.939 -0.1298 -0.2453  0.7472
 1536TIP3    H126023   2.816   5.663   3.882 -0.0342  1.5088  0.5939
 1536TIP3    H226024   2.776   5.667   4.027  0.1677  0.6360  0.6756
 1537TIP3   OH226025   0.343   2.339   5.723 -0.2656 -0.1770  0.7074
 1537TIP3    H126026   0.409   2.301   5.665 -1.0736 -4.0499  2.2146
 1537TIP3    H226027   0.264   2.343   5.670  0.5886  2.6531 -0.4811
 1538TIP3   OH226028   1.660   3.241  16.195  0.0023  0.1173  0.6300
 1538TIP3    H126029   1.582   3.293  16.216  0.8828  0.9913  1.7995
 1538TIP3    H226030   1.630   3.180  16.128 -1.6625  0.5251  0.9699
 1539TIP3   OH226031   4.636   6.522   4.299  0.6432  0.4669 -0.1898
 1539TIP3    H126032   4.659   6.545   4.390  1.8228  0.4186 -0.4670
 1539TIP3    H226033   4.718   6.491   4.261 -0.0920 -0.5207 -0.9734
 1540TIP3   OH226034   3.805   1.265   4.398 -0.3768 -0.4349 -0.3189
 1540TIP3    H126035   3.780   1.339   4.342 -0.1887 -0.3338 -0.2691
 1540TIP3    H226036   3.745   1.195   4.372 -0.4161 -0.3302 -0.5148
 1541TIP3   OH226037   5.504   1.284  15.987 -0.4376 -0.4133 -0.4824
 1541TIP3    H126038   5.599   1.284  15.978 -0.4095  1.2843 -0.2589
 1541TIP3    H226039   5.471   1.268  15.898  0.0346  0.5290 -0.8272
 1542TIP3   OH226040   0.921   3.290   4.403  0.7338 -0.0227  0.1572
 1542TIP3    H126041   0.867   3.277   4.480 -1.3276 -0.0252 -1.2625
 1542TIP3    H226042   0.894   3.374   4.367  1.7966  0.0698 -0.4803
 1543TIP3   OH226043   0.550   4.130   6.201  0.4608  0.1900  0.6454
 1543TIP3    H126044   0.490   4.097   6.133  2.1106 -1.7733  0.0997
 1543TIP3    H226045   0.492   4.176   6.262 -1.8292 -2.7119  0.7929
 1544TIP3   OH226046   5.272   5.107  14.877  0.8073  0.5004 -0.5767
 1544TIP3    H126047   5.217   5.069  14.809 -0.3141 -1.9838  1.5970
 1544TIP3    H226048   5.340   5.041  14.892 -0.7513 -0.4546  2.7818
 1545TIP3   OH226049   3.414   6.556   3.947  0.6468  0.0731  0.4267
 1545TIP3    H126050   3.337   6.585   3.899  1.0601 -0.1771 -0.4028
 1545TIP3    H226051   3.387   6.555   4.039 -0.4645 -0.4279  0.1004
 1546TIP3   OH226052   3.273   5.351   3.286  0.3566  0.4533 -0.2605
 1546TIP3    H126053   3.247   5.443   3.296  1.0320  0.7404 -1.1597
 1546TIP3    H226054   3.195   5.302   3.313  0.0976  1.2757  0.5321
 1547TIP3   OH226055   3.695   3.162  11.367 -0.0699  0.0729 -0.2961
 1547TIP3    H126056   3.751   3.200  11.435  2.9367 -3.7660 -0.4695
 1547TIP3    H226057   3.736   3.188  11.285 -0.5812  0.1381 -0.5345
 1548TIP3   OH226058   2.366   3.073   4.191 -0.3379 -0.1967 -0.1992
 1548TIP3    H126059   2.401   3.102   4.107  0.1975 -0.0461  0.0756
 1548TIP3    H226060   2.328   2.988   4.172 -0.9471  0.1911 -0.7734
 1549TIP3   OH226061   5.549   6.759  14.115  0.1052 -0.2912  0.0732
 1549TIP3    H126062   5.494   6.750  14.193 -0.6657 -0.4207 -0.4785
 1549TIP3    H226063   5.638   6.760  14.148 -0.2153 -0.5275  0.9432
 1550TIP3   OH226064   5.832   0.401  12.510  0.2036  0.1898  0.0795
 1550TIP3    H126065   5.827   0.444  12.595  0.8894  0.4194  0.0110
 1550TIP3    H226066   5.862   0.469  12.450  1.0581 -0.3082 -0.0759
 1551TIP3   OH226067   1.927   2.061  13.177 -0.4400  0.4260 -0.0821
 1551TIP3    H126068   1.996   2.076  13.112 -0.5585 -0.1157 -0.3376
 1551TIP3    H226069   1.962   2.096  13.258 -0.0486  0.5747 -0.3123
 1552TIP3   OH226070   0.807   2.140  14.152 -0.2045 -0.0512  0.1797
 1552TIP3    H126071   0.865   2.193  14.098  2.6022 -1.3260  1.8522
 1552TIP3    H226072   0.760   2.085  14.089  2.0205 -0.5500 -1.0959
 1553TIP3   OH226073   0.083   2.798   4.638 -0.3208  0.0932 -0.0350
 1553TIP3    H126074   0.088   2.711   4.598 -0.1601  0.2586 -0.3752
 1553TIP3    H226075   0.174   2.822   4.653 -0.3414  0.4236 -0.4232
 1554TIP3   OH226076   3.893   6.588  15.335 -0.0405  0.4028 -0.1658
 1554TIP3    H126077   3.883   6.551  15.423  2.1680  0.1604  0.0156
 1554TIP3    H226078   3.986   6.608  15.328  0.1604 -1.2294 -3.0973
 1555TIP3   OH226079   5.573   6.643  14.559  0.5967 -0.3156 -0.2854
 1555TIP3    H126080   5.619   6.559  14.551  1.6112  0.3046 -1.1872
 1555TIP3    H226081   5.638   6.708  14.531 -0.1182  0.7892  0.5679
 1556TIP3   OH226082   6.273   5.537   0.727  0.6441  0.3055  0.1594
 1556TIP3    H126083   6.203   5.521   0.791  0.3116  0.5933 -0.1257
 1556TIP3    H226084   6.231   5.524   0.642  1.2402 -0.6688  0.0124
 1557TIP3   OH226085   6.452   4.859   3.113 -0.2676 -0.0579 -0.0106
 1557TIP3    H126086   6.531   4.807   3.099 -0.1183 -0.2028  1.3314
 1557TIP3    H226087   6.415   4.825   3.194 -0.4853  1.5348  0.5667
 1558TIP3   OH226088   4.301   4.198   2.955  0.2021 -0.4041 -0.4339
 1558TIP3    H126089   4.206   4.184   2.963  0.3169 -1.8183 -1.2086
 1558TIP3    H226090   4.338   4.146   3.026  0.2254  3.6370  2.6417
 1559TIP3   OH226091   4.170   3.559   1.878  0.0410 -0.0233 -0.1891
 1559TIP3    H126092   4.223   3.542   1.801  0.0392  1.6468 -0.5647
 1559TIP3    H226093   4.090   3.508   1.864  1.3584 -2.2514  0.2133
 1560TIP3   OH226094   4.518   1.841   2.950 -0.1457 -0.4115 -0.3704
 1560TIP3    H126095   4.578   1.770   2.929 -0.7932 -1.2204  0.5014
 1560TIP3    H226096   4.465   1.851   2.871 -2.8481 -3.7190  0.9221
 1561TIP3   OH226097   2.164   6.597  17.005 -0.0074  0.6929 -0.1228
 1561TIP3    H126098   2.084   6.649  17.018  1.0351  2.1188  0.7747
 1561TIP3    H226099   2.185   6.563  17.092  0.1245 -0.0512 -0.4409
 1562TIP3   OH226100   6.551   2.117   2.566  0.6816 -0.3591  0.3298
 1562TIP3    H126101   6.499   2.037   2.554 -0.8269  0.6106  0.3799
 1562TIP3    H226102   6.578   2.141   2.478 -1.0763  0.5372  0.0217
 1563TIP3   OH226103   0.653   3.239  12.076  0.0693  0.4235 -0.3926
 1563TIP3    H126104   0.637   3.320  12.026 -0.1664  0.8774  0.4054
 1563TIP3    H226105   0.742   3.248  12.108 -0.2233  0.7383  0.3562
 1564TIP3   OH226106   3.682   3.594  10.905 -0.3917  0.0545 -0.0196
 1564TIP3    H126107   3.757   3.638  10.865  0.7499 -1.2358  0.6474
 1564TIP3    H226108   3.615   3.662  10.914  0.7422  1.2412 -0.5200
 1565TIP3   OH226109   5.909   6.710  11.240 -0.0668  0.3690 -0.3561
 1565TIP3    H126110   5.890   6.631  11.291 -0.7351 -1.0101 -2.6554
 1565TIP3    H226111   5.867   6.694  11.155  1.1105  2.5378 -1.3847
 1566TIP3   OH226112   2.108   1.632   6.208 -0.3597 -0.4767  0.1387
 1566TIP3    H126113   2.130   1.720   6.238 -3.4094 -0.2823  1.9766
 1566TIP3    H226114   2.148   1.626   6.121 -3.1442  4.0888 -1.6221
 1567TIP3   OH226115   1.013   2.713   5.110  0.4234 -0.1282  0.1620
 1567TIP3    H126116   0.994   2.624   5.141  3.1010 -0.7216  0.2193
 1567TIP3    H226117   1.062   2.753   5.182  0.6673  0.8272 -0.5322
 1568TIP3   OH226118   4.253   0.279   3.192  0.6417 -0.2534  0.7033
 1568TIP3    H126119   4.293   0.233   3.265 -0.6999 -1.4937  0.6910
 1568TIP3    H226120   4.159   0.274   3.210  0.2669 -1.0252 -1.3419
 1569TIP3   OH226121   4.782   0.036   4.253  0.4330  0.1316 -0.1304
 1569TIP3    H126122   4.875   0.027   4.277  0.4131 -0.3729 -0.2340
 1569TIP3    H226123   4.769  -0.031   4.185 -0.7015 -1.7684  1.9009
 1570TIP3   OH226124   4.815   6.243  11.423 -0.2144 -0.4380 -0.2130
 1570TIP3    H126125   4.886   6.286  11.375  0.3286 -1.0012  0.0754
 1570TIP3    H226126   4.752   6.312  11.439  0.0865 -0.0158 -0.8260
 1571TIP3   OH226127   5.629   3.640   0.589 -0.5532 -0.6579 -0.0424
 1571TIP3    H126128   5.617   3.677   0.676  0.0746 -1.2427  0.2937
 1571TIP3    H226129   5.566   3.568   0.585 -0.8615 -0.3848 -0.2270
 1572TIP3   OH226130   6.159   1.073  11.446 -0.0003 -0.3243  0.6858
 1572TIP3    H126131   6.200   1.038  11.367 -0.9921 -1.6893  0.7609
 1572TIP3    H226132   6.066   1.080  11.423 -0.4664 -1.7435  2.0905
 1573TIP3   OH226133   0.073   1.639   1.607  0.1391  0.3362 -0.3148
 1573TIP3    H126134   0.082   1.618   1.700 -0.7972  0.4499 -0.1966
 1573TIP3    H226135   0.079   1.734   1.603  2.6580  0.2071 -0.6609
 1574TIP3   OH226136   4.413   4.415  12.959 -0.2167  0.1587  0.5658
 1574TIP3    H126137   4.318   4.413  12.955 -0.1663  0.2345 -0.8156
 1574TIP3    H226138   4.442   4.346  12.899  0.5937 -0.6027  1.7909
 1575TIP3   OH226139   6.473   1.902  16.141  0.8151  0.4718  0.1468
 1575TIP3    H126140   6.549   1.953  16.111  1.1339  0.3772  0.7969
 1575TIP3    H226141   6.442   1.948  16.219  0.7848 -0.0341  0.4325
 1576TIP3   OH226142   6.172   2.784  12.969  0.0417 -0.4729  0.0480
 1576TIP3    H126143   6.198   2.753  12.883  0.3902 -3.6460  1.2442
 1576TIP3    H226144   6.212   2.871  12.976  1.5363 -0.9388 -2.2464
 1577TIP3   OH226145   2.698   1.002  15.265  0.4045 -0.2058 -0.5755
 1577TIP3    H126146   2.740   1.026  15.182  2.2196  0.6430  0.5696
 1577TIP3    H226147   2.677   1.085  15.307  0.1143 -0.6283  0.1372
 1578TIP3   OH226148   5.310   4.354   5.289 -0.2200 -0.4586 -0.4451
 1578TIP3    H126149   5.332   4.432   5.239 -0.0285  0.2496  0.7201
 1578TIP3    H226150   5.215   4.345   5.280 -0.3951  0.5329  0.2777
 1579TIP3   OH226151   0.492   0.664   4.523 -0.0649 -0.4399 -0.4797
 1579TIP3    H126152   0.411   0.715   4.524 -0.2928 -0.7965  1.6450
 1579TIP3    H226153   0.464   0.573   4.511 -0.2078 -0.8454  2.4693
 1580TIP3   OH226154   5.087   0.144  15.580  0.0673  0.0521 -1.0324
 1580TIP3    H126155   5.037   0.072  15.542  0.8555  0.0931 -2.1956
 1580TIP3    H226156   5.131   0.184  15.505  1.0744  0.6122 -0.1534
 1581TIP3   OH226157   5.565   0.144   0.532 -0.1647  0.0599 -0.1857
 1581TIP3    H126158   5.481   0.185   0.550  1.8636  4.4835 -0.0352
 1581TIP3    H226159   5.553   0.099   0.448 -2.5449  0.9606 -0.3492
 1582TIP3   OH226160   0.998   3.670   0.901 -0.3715  0.0856 -0.4646
 1582TIP3    H126161   1.035   3.593   0.857  0.3555  0.3458 -0.3022
 1582TIP3    H226162   0.925   3.635   0.952 -0.3632 -0.4225 -0.7962
 1583TIP3   OH226163   4.834   6.565   0.321  0.7372 -0.0696 -0.0095
 1583TIP3    H126164   4.848   6.532   0.410 -2.4867 -1.9983 -0.1397
 1583TIP3    H226165   4.770   6.635   0.331  3.2139  2.3375 -0.4333
 1584TIP3   OH226166   4.795   0.518   4.217 -0.1285 -0.2850 -0.4544
 1584TIP3    H126167   4.852   0.488   4.146 -0.3226 -1.3741 -0.1569
 1584TIP3    H226168   4.782   0.441   4.271  1.0296  0.8422  1.4727
 1585TIP3   OH226169   6.772   1.757  17.237  0.2117  0.4813 -0.5577
 1585TIP3    H126170   6.789   1.826  17.301  1.3438 -0.8764  0.6338
 1585TIP3    H226171   6.790   1.798  17.153  0.4663  1.7610  0.1046
 1586TIP3   OH226172   1.172   1.455   5.970  0.4314  0.0667  0.1104
 1586TIP3    H126173   1.156   1.465   5.877 -0.0922 -0.0331  0.1905
 1586TIP3    H226174   1.158   1.542   6.007 -1.0222 -0.2588  0.3423
 1587TIP3   OH226175   5.552   0.852   4.115 -0.3092  0.1057 -0.2785
 1587TIP3    H126176   5.457   0.850   4.124 -0.3881  0.0610 -1.0482
 1587TIP3    H226177   5.571   0.938   4.076  0.0948  0.6979  1.1818
 1588TIP3   OH226178   2.611   5.417  12.590  0.0209 -0.5970  0.1338
 1588TIP3    H126179   2.675   5.376  12.648  1.5022  1.1245 -0.2434
 1588TIP3    H226180   2.601   5.354  12.518 -0.5973 -1.9945  1.4051
 1589TIP3   OH226181   6.610   6.290  15.221  0.4021  0.3166  0.2155
 1589TIP3    H126182   6.678   6.344  15.259  0.5007  0.7615 -0.5764
 1589TIP3    H226183   6.650   6.204  15.211  0.5537  0.3429  0.5815
 1590TIP3   OH226184   2.206   5.532  13.694  0.6636 -0.0106  0.5183
 1590TIP3    H126185   2.251   5.600  13.646  1.0322 -1.0549 -0.6445
 1590TIP3    H226186   2.260   5.516  13.771  1.5587 -0.2784 -0.1592
 1591TIP3   OH226187   2.021   2.002   0.698 -0.3851 -0.2645  0.1553
 1591TIP3    H126188   1.998   1.952   0.776  0.9058  0.6405  1.1380
 1591TIP3    H226189   1.972   1.960   0.627 -0.8505 -1.6746  1.2888
 1592TIP3   OH226190   6.310   4.647  14.508 -0.1406 -0.4818 -0.2271
 1592TIP3    H126191   6.339   4.622  14.595  0.2418 -1.2077 -0.5510
 1592TIP3    H226192   6.244   4.714  14.522  1.5862  1.1005  0.5368
 1593TIP3   OH226193   1.671   5.294   3.592  0.4924 -1.3741 -0.4455
 1593TIP3    H126194   1.622   5.338   3.661 -0.4840 -2.3426 -0.5011
 1593TIP3    H226195   1.666   5.354   3.517  0.2921 -0.9828 -0.1157
 1594TIP3   OH226196   4.051   5.000   0.893  0.3738 -0.1526  0.2527
 1594TIP3    H126197   3.988   5.038   0.831  1.4500  0.8235 -0.2668
 1594TIP3    H226198   4.136   5.034   0.864  1.0807 -1.0326  1.2645
 1595TIP3   OH226199   6.385   6.279   5.157  0.1280  0.6138 -0.1095
 1595TIP3    H126200   6.398   6.238   5.071  0.1113  1.5712 -0.5759
 1595TIP3    H226201   6.365   6.206   5.215  0.5535 -0.0934 -0.8362
 1596TIP3   OH226202   6.058   6.020   3.275  0.1735 -0.0399 -0.0776
 1596TIP3    H126203   6.039   5.949   3.336 -1.1715 -1.9367 -2.6041
 1596TIP3    H226204   5.974   6.067   3.267 -0.1022 -0.7646 -1.6336
 1597TIP3   OH226205   4.186   5.410  10.533 -0.2723 -0.1315 -0.5169
 1597TIP3    H126206   4.202   5.316  10.537  1.5729  0.2147  0.4556
 1597TIP3    H226207   4.187   5.439  10.624  1.6529  1.2168 -0.9331
 1598TIP3   OH226208   1.945   5.056   2.201  0.6762 -0.8409  0.1305
 1598TIP3    H126209   1.963   5.070   2.294 -0.1231  1.5016 -0.0510
 1598TIP3    H226210   2.018   5.097   2.155 -0.0220 -0.0693 -0.3194
 1599TIP3   OH226211   3.459   4.322   1.566 -0.2046 -0.4833 -0.0969
 1599TIP3    H126212   3.551   4.348   1.568 -0.2122 -0.4562 -0.0990
 1599TIP3    H226213   3.422   4.358   1.647  0.3244 -2.4797  1.0771
 1600TIP3   OH226214   0.343   2.937  15.499 -0.1933  0.0467  0.0742
 1600TIP3    H126215   0.339   2.902  15.410  1.4403  1.5771 -0.6323
 1600TIP3    H226216   0.425   2.901  15.534 -0.6900 -0.3195  0.8833
 1601TIP3   OH226217   1.800   2.396  15.914  0.7713 -0.2223 -0.5902
 1601TIP3    H126218   1.799   2.361  15.825  1.8285  1.0652 -1.1220
 1601TIP3    H226219   1.849   2.331  15.964 -0.4505 -1.3149 -0.7708
 1602TIP3   OH226220   5.798   2.192  17.235 -0.2228  0.1641 -0.0516
 1602TIP3    H126221   5.827   2.267  17.286  0.7423 -0.5900  0.5329
 1602TIP3    H226222   5.849   2.196  17.154 -0.0621  0.0626  0.0418
 1603TIP3   OH226223   4.863   6.383   0.978 -0.7067 -0.5273 -0.0599
 1603TIP3    H126224   4.928   6.353   0.914 -0.8993 -0.7774 -0.1404
 1603TIP3    H226225   4.887   6.474   0.996 -0.9808 -0.2766 -0.9110
 1604TIP3   OH226226   3.509   4.324  16.037  0.3926  0.1742 -0.0131
 1604TIP3    H126227   3.418   4.293  16.030  0.3256  0.4467 -0.3609
 1604TIP3    H226228   3.530   4.316  16.130  0.1340 -0.2379  0.0118
 1605TIP3   OH226229   5.031   6.646  11.549  0.1537  0.2754  0.5582
 1605TIP3    H126230   5.109   6.592  11.533 -0.1477  0.5252 -1.8839
 1605TIP3    H226231   4.973   6.589  11.599  0.9859 -0.6771  0.4630
 1606TIP3   OH226232   3.115   3.758  15.910 -0.5627 -0.5075  0.2663
 1606TIP3    H126233   3.160   3.704  15.975 -2.0384 -1.1449  0.7673
 1606TIP3    H226234   3.023   3.756  15.936 -1.1316 -0.5290 -1.6622
 1607TIP3   OH226235   5.624   6.683   6.277 -0.3932 -0.5361  0.9276
 1607TIP3    H126236   5.587   6.595   6.276  2.2301 -1.6698 -0.0141
 1607TIP3    H226237   5.719   6.670   6.273  0.0145  2.3407 -0.8416
 1608TIP3   OH226238   5.618   4.105  12.454 -0.4644  0.5877  0.1844
 1608TIP3    H126239   5.693   4.150  12.416  0.1499  0.1326  0.8569
 1608TIP3    H226240   5.653   4.023  12.488 -1.7270 -0.9052 -1.9284
 1609TIP3   OH226241   4.877   0.360  16.655  0.0200 -0.0485  0.1426
 1609TIP3    H126242   4.950   0.409  16.692  0.5197  0.2077 -1.1465
 1609TIP3    H226243   4.905   0.269  16.657 -0.3865 -0.1453  1.3654
 1610TIP3   OH226244   3.905   3.569   3.497 -0.6735  0.8249  0.2167
 1610TIP3    H126245   3.846   3.543   3.426 -0.9309  0.9881  0.3710
 1610TIP3    H226246   3.922   3.662   3.483 -0.1469  0.6906 -0.0472
 1611TIP3   OH226247   3.669   5.772   5.156 -0.1972  0.3195 -0.6655
 1611TIP3    H126248   3.601   5.706   5.171 -0.1952  0.9587  2.4784
 1611TIP3    H226249   3.751   5.722   5.154 -0.1077  0.2810  2.6124
 1612TIP3   OH226250   1.905   4.635   3.585  0.2585  0.6162 -0.3596
 1612TIP3    H126251   1.816   4.626   3.619  0.8531 -3.7118  0.3566
 1612TIP3    H226252   1.960   4.634   3.664  1.1448 -0.9544 -0.9808
 1613TIP3   OH226253   5.453   0.204  15.922  0.0031  0.2297  0.6108
 1613TIP3    H126254   5.430   0.115  15.947 -1.8329  0.6504  0.5095
 1613TIP3    H226255   5.403   0.221  15.842 -0.0053  1.4979  0.8688
 1614TIP3   OH226256   5.018   2.474   5.445 -0.2512  0.2477  0.0621
 1614TIP3    H126257   5.111   2.496   5.435 -0.5989  2.0751  0.6978
 1614TIP3    H226258   5.019   2.384   5.478  1.3530  0.7775  1.5786
 1615TIP3   OH226259   2.096   2.132  14.057  0.0486  0.4321  0.5023
 1615TIP3    H126260   2.066   2.214  14.018  1.6583  0.3032 -1.1020
 1615TIP3    H226261   2.176   2.156  14.103  1.0217 -0.3745 -0.7299
 1616TIP3   OH226262   0.771   3.133   4.881 -0.2001  0.5566  0.2235
 1616TIP3    H126263   0.689   3.159   4.922 -0.4565 -1.3696  0.9876
 1616TIP3    H226264   0.831   3.119   4.954 -0.2727 -1.5956 -0.0957
 1617TIP3   OH226265   0.559   5.183   2.418  0.1179 -0.5500 -0.2679
 1617TIP3    H126266   0.578   5.111   2.479 -1.8444 -0.6991  0.1982
 1617TIP3    H226267   0.480   5.154   2.372 -0.2845  1.0147 -0.5705
 1618TIP3   OH226268   3.450   3.010  15.488 -0.0484 -0.0270  0.0515
 1618TIP3    H126269   3.415   2.955  15.418  1.8531 -2.6987  1.0940
 1618TIP3    H226270   3.389   3.083  15.494 -2.5845 -1.9175 -1.5281
 1619TIP3   OH226271   5.608   0.421   4.870 -0.1581 -0.4846  0.3080
 1619TIP3    H126272   5.558   0.492   4.910  0.3029 -1.0668  1.9689
 1619TIP3    H226273   5.696   0.455   4.860 -0.3271 -0.2629 -0.4187
 1620TIP3   OH226274   6.173   6.740  11.828 -0.1411 -0.4700  0.5035
 1620TIP3    H126275   6.179   6.768  11.919 -0.0173 -2.5356  1.1589
 1620TIP3    H226276   6.218   6.808  11.778  2.9839 -1.0817  2.3565
 1621TIP3   OH226277   6.122   0.975   2.561 -0.6659 -0.0366  0.0160
 1621TIP3    H126278   6.145   0.888   2.528  1.3997  0.3699  0.2799
 1621TIP3    H226279   6.116   0.963   2.656 -1.0785 -0.0304 -0.0078
 1622TIP3   OH226280   2.741   6.105   4.933 -0.5186  0.0185  0.3151
 1622TIP3    H126281   2.671   6.169   4.919  0.3276  1.4225  2.1454
 1622TIP3    H226282   2.821   6.152   4.906 -0.2057 -1.3773 -1.2571
 1623TIP3   OH226283   0.578   4.117   4.910 -0.1327  0.1468 -0.2899
 1623TIP3    H126284   0.591   4.112   5.005  0.8954  3.3557 -0.1951
 1623TIP3    H226285   0.552   4.029   4.885  1.1390 -1.1858  2.7518
 1624TIP3   OH226286   5.209   5.858   3.258  0.5241 -0.2135  0.0119
 1624TIP3    H126287   5.299   5.869   3.228  0.2782  0.0470 -0.6274
 1624TIP3    H226288   5.156   5.865   3.179 -0.1555  0.8721  0.5555
 1625TIP3   OH226289   1.980   4.238   3.473 -0.2148  0.2499 -0.0563
 1625TIP3    H126290   1.993   4.158   3.523  0.3958  0.6334  0.4006
 1625TIP3    H226291   2.059   4.289   3.488  0.9933 -0.5611 -3.1731
 1626TIP3   OH226292   0.151   1.775   3.030  0.2256 -0.4168 -0.6782
 1626TIP3    H126293   0.122   1.849   3.084  1.6973  0.1659 -0.6604
 1626TIP3    H226294   0.080   1.712   3.036  0.4132 -0.4218  2.0610
 1627TIP3   OH226295   0.154   0.429  14.747 -0.4167  0.4109  0.5030
 1627TIP3    H126296   0.071   0.392  14.717 -0.6381  1.2442  0.0970
 1627TIP3    H226297   0.189   0.476  14.672  2.1311 -2.8231 -0.4570
 1628TIP3   OH226298   0.384   1.726  12.690 -0.1057 -0.3615  0.4382
 1628TIP3    H126299   0.344   1.813  12.696 -1.0962 -0.8426  0.9153
 1628TIP3    H226300   0.389   1.695  12.780  2.2483  0.0745  0.4838
 1629TIP3   OH226301   4.469   2.077  11.541  0.0933 -0.3891 -0.1191
 1629TIP3    H126302   4.426   2.065  11.626  2.0129  0.4428  0.9995
 1629TIP3    H226303   4.456   2.170  11.520 -2.6399 -1.1373 -2.0395
 1630TIP3   OH226304   5.411   0.443  13.425  0.0384 -0.3881  0.2767
 1630TIP3    H126305   5.344   0.450  13.358  0.1417 -0.9365  0.1118
 1630TIP3    H226306   5.378   0.497  13.498 -0.6713 -0.8154  0.2769
 1631TIP3   OH226307   5.671   1.634  16.806 -0.0891  0.3300  0.1231
 1631TIP3    H126308   5.729   1.710  16.805 -0.2213  0.4359 -2.6204
 1631TIP3    H226309   5.624   1.641  16.890  1.1732  2.2789  0.6924
 1632TIP3   OH226310   4.658   6.024   3.372  1.0319  0.1601  0.4014
 1632TIP3    H126311   4.664   5.974   3.290 -0.5648  0.8245 -0.1373
 1632TIP3    H226312   4.626   5.960   3.436  1.4301 -0.1428  0.3008
 1633TIP3   OH226313   1.718   3.609   4.034 -0.3319  0.0332  0.2542
 1633TIP3    H126314   1.721   3.551   4.110  0.9750  0.5418  0.5965
 1633TIP3    H226315   1.628   3.643   4.034  0.2545  1.7719  2.8984
 1634TIP3   OH226316   4.269   2.292  13.042 -0.4339  0.2927  0.9511
 1634TIP3    H126317   4.294   2.218  12.986 -2.3849 -0.2695  0.7708
 1634TIP3    H226318   4.345   2.349  13.042  0.7927 -1.3059  0.3888
 1635TIP3   OH226319   4.522   3.746  12.820 -0.0955 -0.7634 -0.3029
 1635TIP3    H126320   4.617   3.746  12.806 -0.0761 -3.5019 -0.3442
 1635TIP3    H226321   4.508   3.685  12.891 -1.7548  0.5745  0.5498
 1636TIP3   OH226322   2.495   0.368   6.452  0.1211 -0.3325 -0.5712
 1636TIP3    H126323   2.409   0.333   6.427 -0.6509  1.3674 -0.3975
 1636TIP3    H226324   2.540   0.380   6.368  0.0237 -0.8346 -0.6961
 1637TIP3   OH226325   3.253   2.181  13.050 -0.0023  0.1673  0.0829
 1637TIP3    H126326   3.189   2.210  12.985 -0.6733  0.6223  0.9246
 1637TIP3    H226327   3.210   2.108  13.094  0.1463  0.3260  0.4943
 1638TIP3   OH226328   4.597   3.259   1.447 -0.4877  0.0441 -0.5841
 1638TIP3    H126329   4.618   3.238   1.356  1.6816 -0.7534  0.0697
 1638TIP3    H226330   4.628   3.183   1.497  3.3018  2.7487  1.3638
 1639TIP3   OH226331   4.778   1.001   0.258  0.8556 -0.5160  0.7792
 1639TIP3    H126332   4.754   1.053   0.335  1.8823  0.1947  0.6364
 1639TIP3    H226333   4.718   0.927   0.259  1.2372 -0.8185  2.5990
 1640TIP3   OH226334   6.622   0.649   2.824  0.2835 -0.4724  0.3656
 1640TIP3    H126335   6.533   0.637   2.790  0.1955 -0.7305  0.6798
 1640TIP3    H226336   6.610   0.658   2.919  0.5102  0.4119  0.3103
 1641TIP3   OH226337   5.560   6.167  16.149 -0.1183  0.0955 -0.2520
 1641TIP3    H126338   5.525   6.093  16.198 -1.0510  1.3184  0.9627
 1641TIP3    H226339   5.504   6.240  16.173  0.5093  1.1012 -1.7956
 1642TIP3   OH226340   2.458   1.953   4.308 -0.4883  0.0647  0.1453
 1642TIP3    H126341   2.390   1.887   4.313  0.4973 -1.0759 -0.9344
 1642TIP3    H226342   2.435   2.005   4.230 -0.5710  0.2000  0.2594
 1643TIP3   OH226343   3.356   5.077  12.380  0.7867  0.2763 -0.3728
 1643TIP3    H126344   3.328   4.985  12.377 -0.4629  0.6533 -1.1919
 1643TIP3    H226345   3.410   5.084  12.458  0.3877 -1.0205  0.0298
 1644TIP3   OH226346   4.193   5.056  12.829 -0.0057 -0.3552  0.1260
 1644TIP3    H126347   4.116   5.026  12.782  0.4771 -1.7937  0.2424
 1644TIP3    H226348   4.167   5.141  12.866 -0.8343  0.1410 -1.5618
 1645TIP3   OH226349   2.958   3.709   0.901  0.4156  0.3384  0.6305
 1645TIP3    H126350   2.894   3.685   0.834 -0.1792  0.6563  1.0789
 1645TIP3    H226351   3.040   3.670   0.871 -0.1849 -0.8975  0.5364
 1646TIP3   OH226352   2.346   5.645  13.375 -0.3831  0.2181  0.0024
 1646TIP3    H126353   2.415   5.579  13.366  1.2113  1.7983  0.4981
 1646TIP3    H226354   2.359   5.682  13.462 -2.6798 -0.3407  0.6396
 1647TIP3   OH226355   4.496   5.666   2.561  0.7605  0.4699 -0.6670
 1647TIP3    H126356   4.562   5.628   2.504  0.2901 -0.5449 -0.5639
 1647TIP3    H226357   4.414   5.658   2.512  0.3419 -0.4647  0.1365
 1648TIP3   OH226358   5.687   1.218   2.102  0.4541  0.0588  0.1625
 1648TIP3    H126359   5.717   1.296   2.149 -0.0122  2.0693 -2.6874
 1648TIP3    H226360   5.603   1.197   2.142  0.0402  1.7397  0.2215
 1649TIP3   OH226361   3.769   5.967  12.303 -0.2446  0.0287  0.4545
 1649TIP3    H126362   3.682   5.988  12.268 -0.2743 -0.0185  0.5000
 1649TIP3    H226363   3.824   5.954  12.225 -1.0248 -3.0935  0.3881
 1650TIP3   OH226364   1.521   4.807  16.174  0.1220 -0.0309 -0.1442
 1650TIP3    H126365   1.547   4.831  16.086 -1.7848 -1.3846 -1.1190
 1650TIP3    H226366   1.537   4.713  16.179  1.9928  0.3430  1.6207
 1651TIP3   OH226367   6.075   3.747   3.977  0.1183  0.3816 -0.2824
 1651TIP3    H126368   6.141   3.801   4.021 -0.1984  0.8169 -0.3479
 1651TIP3    H226369   6.002   3.744   4.039  0.6708 -1.1254  0.3423
 1652TIP3   OH226370   3.305   0.004  15.255 -0.3750  0.3291 -0.4781
 1652TIP3    H126371   3.351   0.079  15.293  0.8186 -0.8304  0.3549
 1652TIP3    H226372   3.349  -0.011  15.171  0.5841 -0.5962  0.1873
 1653TIP3   OH226373   6.058   3.889  12.881  0.8048 -0.1602  0.2612
 1653TIP3    H126374   5.992   3.839  12.929  0.4945 -1.0464 -1.0276
 1653TIP3    H226375   6.136   3.833  12.882  0.9545  0.0444  0.1782
 1654TIP3   OH226376   5.205   4.890  15.865  0.2712  0.1456  0.1830
 1654TIP3    H126377   5.293   4.889  15.828 -0.8911 -1.2923 -2.6984
 1654TIP3    H226378   5.179   4.982  15.863  1.5300  0.5342  0.7446
 1655TIP3   OH226379   2.320   6.352   2.515  0.1087 -0.0634  0.0268
 1655TIP3    H126380   2.239   6.336   2.563 -0.1205 -1.3686 -0.7625
 1655TIP3    H226381   2.360   6.266   2.506 -0.0391  0.0903 -2.4222
 1656TIP3   OH226382   4.826   4.828   2.904  0.1798 -0.0523 -0.2238
 1656TIP3    H126383   4.895   4.894   2.903 -0.4783  0.6370 -1.3714
 1656TIP3    H226384   4.836   4.784   2.988  0.9262  1.2027  0.3609
 1657TIP3   OH226385   3.320   1.397   6.409  0.7978  0.3115  0.7463
 1657TIP3    H126386   3.335   1.309   6.376 -0.2049  0.0007  1.0989
 1657TIP3    H226387   3.359   1.455   6.344 -1.3644 -0.2750 -1.1243
 1658TIP3   OH226388   0.508   6.575   0.720 -0.4661 -0.8844  0.1197
 1658TIP3    H126389   0.584   6.610   0.767 -0.6359 -1.2970  0.7147
 1658TIP3    H226390   0.495   6.635   0.647 -0.0024 -0.4075  0.4221
 1659TIP3   OH226391   4.554   3.303  13.425  0.2069 -0.5829  0.5881
 1659TIP3    H126392   4.602   3.380  13.392 -0.4414  0.3042  1.6867
 1659TIP3    H226393   4.618   3.257  13.479  1.5504 -2.5125 -2.4862
 1660TIP3   OH226394   6.563   5.220  12.896  0.2134 -0.1344  0.5816
 1660TIP3    H126395   6.643   5.184  12.933  1.1681  0.3932 -0.9127
 1660TIP3    H226396   6.591   5.299  12.850 -0.7426 -1.3052 -2.1192
 1661TIP3   OH226397   3.954   5.888   0.925 -0.0532  0.1865 -0.1250
 1661TIP3    H126398   3.915   5.871   0.840 -2.5139  0.8112  0.8509
 1661TIP3    H226399   3.916   5.971   0.954  2.0259  0.8447  0.8620
 1662TIP3   OH226400   6.022   4.884   1.959  0.3432  0.1073 -0.0996
 1662TIP3    H126401   6.103   4.864   2.005 -0.1376  1.4053  1.3713
 1662TIP3    H226402   5.960   4.817   1.990  0.4970 -0.0672 -0.1746
 1663TIP3   OH226403   1.452   6.082  13.440 -0.0338  0.1235  0.0837
 1663TIP3    H126404   1.416   6.165  13.409  1.4948  1.0277  0.6803
 1663TIP3    H226405   1.429   6.080  13.533  2.1656  1.1199  0.6757
 1664TIP3   OH226406   6.112   1.399  13.080 -0.7837  0.3848 -0.4966
 1664TIP3    H126407   6.173   1.453  13.030  1.2772 -1.0266  0.4098
 1664TIP3    H226408   6.057   1.461  13.128  0.7597  1.6890 -0.3899
 1665TIP3   OH226409   6.220   2.268   0.807  0.5479 -0.1907  0.2523
 1665TIP3    H126410   6.308   2.230   0.809  0.6619  0.0804  0.4258
 1665TIP3    H226411   6.224   2.332   0.736  0.3141 -0.5957 -0.1336
 1666TIP3   OH226412   0.112   3.047   1.619  0.5355 -0.1400  0.5153
 1666TIP3    H126413   0.138   2.957   1.600  0.0413 -1.1261  4.1694
 1666TIP3    H226414   0.017   3.044   1.624  0.4802  0.7211  0.0755
 1667TIP3   OH226415   4.517   4.918   2.541 -0.4562 -0.1716 -0.2778
 1667TIP3    H126416   4.503   4.943   2.450 -0.5718 -2.0103 -0.8004
 1667TIP3    H226417   4.434   4.878   2.569 -0.3993  0.3074  0.6042
 1668TIP3   OH226418   1.436   4.525   0.480  0.5538  0.6903 -0.0830
 1668TIP3    H126419   1.412   4.602   0.532  1.2054 -0.2241  1.5997
 1668TIP3    H226420   1.469   4.561   0.398 -1.7225  2.1220 -0.4231
 1669TIP3   OH226421   0.902   1.197   2.736 -0.0867 -0.0342  0.0296
 1669TIP3    H126422   0.899   1.156   2.650 -2.1193  1.3136 -0.5816
 1669TIP3    H226423   0.987   1.240   2.740  0.5494 -1.2266 -0.7673
 1670TIP3   OH226424   6.655   2.297  12.854 -0.2854 -0.2619  0.4017
 1670TIP3    H126425   6.581   2.355  12.834  2.0863  2.3303 -1.2564
 1670TIP3    H226426   6.654   2.232  12.784 -0.1880  0.5884 -0.4046
 1671TIP3   OH226427   3.731   2.782   6.060  0.0220  0.1763  0.0987
 1671TIP3    H126428   3.701   2.761   6.148 -0.5581 -0.9561 -0.3507
 1671TIP3    H226429   3.659   2.830   6.021 -0.1104 -0.1537 -0.0681
 1672TIP3   OH226430   2.341   3.616  15.154 -0.5435  0.0455  0.0926
 1672TIP3    H126431   2.274   3.590  15.090 -0.3675  0.3323 -0.2133
 1672TIP3    H226432   2.408   3.659  15.101 -1.2430  1.9401  0.6935
 1673TIP3   OH226433   4.066   5.432   4.614 -0.5206  0.0068 -0.3532
 1673TIP3    H126434   4.131   5.385   4.564  0.2921  1.7104 -0.9429
 1673TIP3    H226435   3.986   5.427   4.562  0.0524  0.8798 -1.3232
 1674TIP3   OH226436   4.343   2.085   1.158  0.0712  0.5484  0.0111
 1674TIP3    H126437   4.328   1.992   1.143 -2.1924  0.6439  1.3924
 1674TIP3    H226438   4.257   2.126   1.146  1.2573  2.6552 -1.7806
 1675TIP3   OH226439   1.992   2.699  11.556  0.0741  0.3621  0.5926
 1675TIP3    H126440   1.983   2.713  11.462 -0.5625  0.8090  0.7132
 1675TIP3    H226441   2.028   2.782  11.589 -1.3537  0.8519  0.9723
 1676TIP3   OH226442   6.327   0.784  16.245 -0.3677  0.6453  0.1844
 1676TIP3    H126443   6.390   0.822  16.306 -0.5236 -1.1794  1.5203
 1676TIP3    H226444   6.366   0.700  16.219 -0.7980  0.9330 -1.4146
 1677TIP3   OH226445   4.714   2.662  12.992 -0.1180 -0.0263  0.1387
 1677TIP3    H126446   4.728   2.678  12.899 -1.2614 -0.5647 -0.1408
 1677TIP3    H226447   4.783   2.601  13.016  0.7642  0.8547 -0.1249
 1678TIP3   OH226448   0.729   3.426   0.575  0.4398 -0.4283  0.1981
 1678TIP3    H126449   0.704   3.489   0.507  1.7919  0.0619  0.1291
 1678TIP3    H226450   0.707   3.470   0.657 -2.4525 -1.5688  0.0892
 1679TIP3   OH226451   1.545   4.039   0.178 -0.1152 -0.1578  0.4336
 1679TIP3    H126452   1.564   4.101   0.248  1.0023  1.5975 -1.3906
 1679TIP3    H226453   1.471   4.078   0.131  0.3899 -0.3538 -0.5334
 1680TIP3   OH226454   0.645   5.464  13.075 -0.3242 -0.0765  0.2048
 1680TIP3    H126455   0.624   5.458  13.168 -1.3359  0.4263  0.0150
 1680TIP3    H226456   0.608   5.385  13.037 -1.9515  0.8460 -0.1430
 1681TIP3   OH226457   5.489   5.297   4.337 -0.0730  0.9346 -0.1920
 1681TIP3    H126458   5.568   5.244   4.329 -1.0775 -1.0399  2.1677
 1681TIP3    H226459   5.508   5.356   4.410 -0.6066  0.7368  0.1096
 1682TIP3   OH226460   4.040   2.258   5.300  0.1744  0.2661  0.4074
 1682TIP3    H126461   4.029   2.191   5.367 -0.3302 -1.1152 -1.0430
 1682TIP3    H226462   4.115   2.228   5.248  0.0023  0.8717 -0.1994
 1683TIP3   OH226463   1.874   0.087  15.678  0.0157  0.4250 -0.2229
 1683TIP3    H126464   1.865   0.132  15.594 -0.2402  1.0042  0.1137
 1683TIP3    H226465   1.968   0.090  15.696  0.4169 -1.8561 -1.6556
 1684TIP3   OH226466   1.792   0.576   1.487  0.0885  0.2721  0.2009
 1684TIP3    H126467   1.863   0.611   1.540 -0.6775  0.9044  0.8361
 1684TIP3    H226468   1.718   0.571   1.548 -1.1540  2.1916 -1.0747
 1685TIP3   OH226469   5.237   1.877  11.771 -0.2346 -0.0995 -0.2828
 1685TIP3    H126470   5.310   1.930  11.738  0.6502 -0.4246  1.1295
 1685TIP3    H226471   5.159   1.920  11.735  0.4249  2.4827  1.2589
 1686TIP3   OH226472   1.161   5.328  15.248 -0.2722 -0.2554 -0.2389
 1686TIP3    H126473   1.084   5.379  15.222  0.1702  1.1264  1.0874
 1686TIP3    H226474   1.126   5.263  15.309 -0.3917  0.4366  0.4448
 1687TIP3   OH226475   4.585   1.394   4.539 -0.1878  0.0141  0.2146
 1687TIP3    H126476   4.590   1.352   4.453  0.7045  1.1943 -0.3202
 1687TIP3    H226477   4.624   1.330   4.599  1.9707  0.4070 -0.7116
 1688TIP3   OH226478   5.036   4.643  15.288  0.7410  0.3089  0.2522
 1688TIP3    H126479   5.012   4.736  15.291 -0.2117  0.1286 -1.2549
 1688TIP3    H226480   5.013   4.610  15.375  0.8939  1.4292  0.7328
 1689TIP3   OH226481   3.321   4.343  11.563  0.3270 -0.4110  0.4567
 1689TIP3    H126482   3.285   4.308  11.482 -0.3405 -0.9033  0.9637
 1689TIP3    H226483   3.373   4.419  11.535  0.3290 -0.7412 -0.4542
 1690TIP3   OH226484   1.545   6.642  10.318 -0.5253  0.2565  0.3300
 1690TIP3    H126485   1.512   6.677  10.401 -1.2953  0.3042  0.0056
 1690TIP3    H226486   1.592   6.716  10.278  0.9840 -0.1336  1.3080
 1691TIP3   OH226487   3.969   4.826  16.309 -0.4416 -0.5828  0.1755
 1691TIP3    H126488   4.000   4.864  16.226  0.6329  0.0033  0.8254
 1691TIP3    H226489   3.877   4.804  16.292 -0.5431  0.5109 -0.8480
 1692TIP3   OH226490   5.212   0.361  12.431  0.0217 -0.0049  0.3536
 1692TIP3    H126491   5.170   0.399  12.353 -0.3993 -1.2142 -0.0171
 1692TIP3    H226492   5.302   0.394  12.429 -0.2022  0.5738 -0.2327
 1693TIP3   OH226493   5.271   2.893   1.392  0.2173 -0.2496 -0.2120
 1693TIP3    H126494   5.276   2.958   1.322  0.8833 -0.5211 -0.4316
 1693TIP3    H226495   5.329   2.927   1.461 -1.0889  0.4255  0.5615
 1694TIP3   OH226496   4.273   0.069   2.664  0.2102 -0.0629 -0.2933
 1694TIP3    H126497   4.201   0.123   2.633  1.2185  1.3739 -0.2093
 1694TIP3    H226498   4.333   0.064   2.589  1.5609  1.4942  0.6468
 1695TIP3   OH226499   0.125   4.728   4.167 -0.3608  0.1070 -0.6820
 1695TIP3    H126500   0.168   4.680   4.238  0.0304  0.5251 -0.6362
 1695TIP3    H226501   0.115   4.817   4.202  0.4624  0.4917 -1.4150
 1696TIP3   OH226502   4.343   2.299  14.348  0.3408 -0.6530 -0.1061
 1696TIP3    H126503   4.268   2.315  14.405  1.0665  2.6479  0.0354
 1696TIP3    H226504   4.414   2.278  14.408  0.4624  0.1497  0.0351
 1697TIP3   OH226505   0.417   5.712  11.302  0.3157  0.0013  0.2625
 1697TIP3    H126506   0.513   5.707  11.300  0.2379 -1.2913 -0.6663
 1697TIP3    H226507   0.399   5.780  11.367  1.8477 -0.2048  0.9556
 1698TIP3   OH226508   5.167   0.140   3.745 -0.0947 -0.1970 -0.0574
 1698TIP3    H126509   5.226   0.180   3.808 -1.2825  0.5967  0.5641
 1698TIP3    H226510   5.081   0.175   3.767 -1.1147 -2.8849  0.3075
 1699TIP3   OH226511   0.263   5.974   2.648  0.1343 -0.2465 -0.3989
 1699TIP3    H126512   0.226   5.892   2.680 -1.6022  0.5099 -0.4523
 1699TIP3    H226513   0.219   6.042   2.699  0.3909  0.7419 -1.4803
 1700TIP3   OH226514   3.789   3.863  11.974 -0.1716  0.6429  0.4183
 1700TIP3    H126515   3.718   3.817  12.019  1.1781  0.2262  2.1828
 1700TIP3    H226516   3.859   3.798  11.970  1.3076  2.1269  1.7828
 1701TIP3   OH226517   0.582   0.825  13.120 -0.3654  0.6203  0.4742
 1701TIP3    H126518   0.573   0.833  13.025  1.5634 -0.4634  0.1952
 1701TIP3    H226519   0.499   0.785  13.148 -0.3385 -0.4563 -0.9230
 1702TIP3   OH226520   3.252   5.936   0.786  0.0359 -0.5605 -0.3847
 1702TIP3    H126521   3.235   5.975   0.872  2.3945 -0.3034  0.0117
 1702TIP3    H226522   3.209   5.995   0.724  0.4741  0.6638  0.4588
 1703TIP3   OH226523   4.453   0.271   2.118  0.0348 -1.0512 -0.5116
 1703TIP3    H126524   4.432   0.211   2.047 -0.0366  0.4946 -1.8383
 1703TIP3    H226525   4.540   0.305   2.097 -0.4840  0.3301 -0.5409
 1704TIP3   OH226526   4.197   1.837  14.720 -0.2950 -0.2692  0.0439
 1704TIP3    H126527   4.229   1.786  14.794 -1.9831  0.3567  1.2144
 1704TIP3    H226528   4.190   1.927  14.754 -1.2866 -0.0181 -0.8097
 1705TIP3   OH226529   4.524   5.417  15.979  0.5243  0.5209 -0.1737
 1705TIP3    H126530   4.584   5.381  16.044 -0.3321 -0.1434  0.2607
 1705TIP3    H226531   4.556   5.384  15.895  2.0871  2.0022 -0.1881
 1706TIP3   OH226532   3.105   0.031  11.753  0.1121 -0.1217  0.1409
 1706TIP3    H126533   3.162  -0.042  11.779  0.8758  1.0296  1.7835
 1706TIP3    H226534   3.121   0.043  11.660  1.1084 -1.0502  0.1853
 1707TIP3   OH226535   5.596   3.852   5.604 -0.0423  0.1480  0.0910
 1707TIP3    H126536   5.557   3.781   5.554 -0.4448  0.5064 -0.1047
 1707TIP3    H226537   5.597   3.820   5.694 -1.6156  0.4823  0.2441
 1708TIP3   OH226538   3.387   0.111   5.755 -0.7311  0.3343  0.0074
 1708TIP3    H126539   3.446   0.036   5.762 -1.0505  0.2131  1.4006
 1708TIP3    H226540   3.311   0.077   5.707 -1.8205 -0.8172  2.4848
 1709TIP3   OH226541   1.110   4.657  15.459 -0.0990 -0.1174  0.2283
 1709TIP3    H126542   1.117   4.566  15.489 -2.0395 -0.7630 -1.1238
 1709TIP3    H226543   1.016   4.673  15.454  0.2242  1.8701  0.1198
 1710TIP3   OH226544   2.932   6.113  15.502 -0.4570  0.4331 -0.0038
 1710TIP3    H126545   2.871   6.092  15.430  0.9320 -1.2077 -0.7552
 1710TIP3    H226546   2.958   6.203  15.485 -1.5828  0.6866 -0.4903
 1711TIP3   OH226547   2.462   1.800   3.430 -0.0538 -0.0788 -0.3050
 1711TIP3    H126548   2.504   1.842   3.506  2.3400 -0.4096 -1.3828
 1711TIP3    H226549   2.416   1.871   3.386  1.3565  0.8311 -0.3715
 1712TIP3   OH226550   4.366   3.457   3.485 -0.0079  0.0867  0.4672
 1712TIP3    H126551   4.305   3.425   3.552 -0.6827  1.1865  0.3819
 1712TIP3    H226552   4.373   3.384   3.423  2.0256 -1.6428  2.6463
 1713TIP3   OH226553   6.043   5.071  14.657  0.4227 -0.1913  0.4270
 1713TIP3    H126554   6.062   5.151  14.609 -1.6586  0.2911  0.3480
 1713TIP3    H226555   5.996   5.102  14.735 -1.4964 -1.3946 -0.2170
 1714TIP3   OH226556   3.207   2.996   2.257 -0.2873  0.6455 -0.0290
 1714TIP3    H126557   3.172   2.970   2.343  0.3970 -0.9467 -0.2187
 1714TIP3    H226558   3.217   3.091   2.263  0.9616  0.4178  2.1295
 1715TIP3   OH226559   6.378   3.346  12.140  0.1164  0.4069  0.2110
 1715TIP3    H126560   6.340   3.433  12.153  0.7917  0.9988 -1.6924
 1715TIP3    H226561   6.364   3.301  12.224 -3.7792  0.9676 -0.0284
 1716TIP3   OH226562   0.772   4.293   0.973 -0.3225 -0.7319 -0.1491
 1716TIP3    H126563   0.677   4.290   0.979 -0.2162 -2.3163  1.1963
 1716TIP3    H226564   0.792   4.263   0.885 -1.0868  0.2730 -0.6688
 1717TIP3   OH226565   5.637   6.185   2.586 -0.2857 -0.1621 -0.4060
 1717TIP3    H126566   5.578   6.176   2.511  1.3407 -1.8081 -1.5412
 1717TIP3    H226567   5.669   6.275   2.581  0.7337 -0.6100 -2.4180
 1718TIP3   OH226568   1.284   3.881   2.275 -0.3459 -0.1914  0.1797
 1718TIP3    H126569   1.223   3.813   2.302 -0.6116  0.2609  0.7447
 1718TIP3    H226570   1.228   3.953   2.244 -0.1907  1.1151  2.8277
 1719TIP3   OH226571   3.549   6.728  14.234  0.2554 -0.0941  0.4383
 1719TIP3    H126572   3.614   6.726  14.304 -0.3678  0.0369  1.0258
 1719TIP3    H226573   3.547   6.639  14.199  3.3426  0.6820 -2.0011
 1720TIP3   OH226574   6.782   2.988  15.661  0.3362 -0.4308  0.1875
 1720TIP3    H126575   6.816   3.014  15.575 -0.7386  1.6020  0.3425
 1720TIP3    H226576   6.688   2.976  15.646 -0.4258  3.0443  1.7084
 1721TIP3   OH226577   1.713   4.231   0.841  0.4760  0.1984 -0.2891
 1721TIP3    H126578   1.649   4.288   0.799 -0.7319  1.0029  2.5485
 1721TIP3    H226579   1.687   4.142   0.816 -0.4752  0.6480 -0.8980
 1722TIP3   OH226580   0.575   6.424   0.367 -0.0070 -0.1109  0.1216
 1722TIP3    H126581   0.511   6.401   0.299  0.1005  1.4357 -0.5104
 1722TIP3    H226582   0.545   6.375   0.444 -0.9244 -0.8067 -0.6538
 1723TIP3   OH226583   0.009   2.113   2.366  0.1893  0.4552 -0.5160
 1723TIP3    H126584   0.051   2.136   2.448 -0.2667 -0.0747 -0.1329
 1723TIP3    H226585  -0.025   2.025   2.379  1.3095 -0.1746 -1.7458
 1724TIP3   OH226586   1.953   2.343   4.910 -0.3510 -0.1195  0.2690
 1724TIP3    H126587   1.967   2.422   4.859  0.9101 -1.2025 -1.1071
 1724TIP3    H226588   2.017   2.280   4.876 -1.8123 -1.9760  0.8397
 1725TIP3   OH226589   4.773   3.477   1.587  0.2504 -0.5402 -0.2155
 1725TIP3    H126590   4.766   3.384   1.610 -0.9452 -0.7201 -1.2759
 1725TIP3    H226591   4.738   3.483   1.498 -0.9331  1.1423  0.3408
 1726TIP3   OH226592   5.753   4.794  17.143  0.0299 -0.2419  0.7297
 1726TIP3    H126593   5.740   4.862  17.078 -2.7846  1.1978  2.7014
 1726TIP3    H226594   5.841   4.809  17.177  0.5087  0.6113 -0.8628
 1727TIP3   OH226595   5.380   2.760   4.915 -0.4214 -0.3664  0.0025
 1727TIP3    H126596   5.402   2.686   4.859 -1.5939  0.6970 -1.9070
 1727TIP3    H226597   5.358   2.831   4.855  1.0385  1.6951  1.7566
 1728TIP3   OH226598   3.025   5.187   2.338 -0.5515  0.0728 -1.0022
 1728TIP3    H126599   3.075   5.198   2.419 -1.6922  4.2319 -0.7096
 1728TIP3    H226600   3.065   5.249   2.276 -2.5202  0.2925 -2.1337
 1729TIP3   OH226601   0.864   6.360  10.791 -0.0729  0.7264 -0.7112
 1729TIP3    H126602   0.773   6.357  10.821  0.4449  0.4899  0.9290
 1729TIP3    H226603   0.890   6.451  10.805  0.2731  0.5376 -0.0879
 1730TIP3   OH226604   1.215   2.241  13.626  0.1504 -0.5286 -0.6040
 1730TIP3    H126605   1.244   2.163  13.580  0.7404  0.1543 -1.4187
 1730TIP3    H226606   1.267   2.312  13.587 -0.4013  0.2649  0.0912
 1731TIP3   OH226607   5.094   0.237  13.448  0.4107  0.0470 -0.2604
 1731TIP3    H126608   5.086   0.219  13.541  1.9477 -1.4007 -0.3865
 1731TIP3    H226609   5.086   0.152  13.405 -2.0748  0.9032 -1.6103
 1732TIP3   OH226610   0.268   4.394  14.989 -0.2139  0.6429 -0.4604
 1732TIP3    H126611   0.317   4.341  14.927 -0.4735 -0.8923  0.6193
 1732TIP3    H226612   0.323   4.396  15.068  0.4395  3.1421 -0.9038
 1733TIP3   OH226613   6.221   1.484  13.972  0.3719  0.0301  0.4929
 1733TIP3    H126614   6.289   1.431  13.931 -0.4424 -1.5717  1.1606
 1733TIP3    H226615   6.249   1.574  13.958  1.0082 -0.5179 -2.0089
 1734TIP3   OH226616   6.376   6.115   4.482 -0.0416  0.7205  0.5824
 1734TIP3    H126617   6.362   6.149   4.570  1.2769  0.8543  0.7540
 1734TIP3    H226618   6.342   6.183   4.424 -0.6594  0.7550  0.9802
 1735TIP3   OH226619   0.088   3.009   3.969  0.4140 -0.0826 -0.5311
 1735TIP3    H126620   0.027   2.935   3.966  0.0325  0.0534  2.7010
 1735TIP3    H226621   0.106   3.029   3.877 -1.3502 -2.6404 -1.4750
 1736TIP3   OH226622   4.203   0.530  12.842  0.2632  0.2778  0.3097
 1736TIP3    H126623   4.242   0.596  12.784 -1.9818  2.4031  1.1549
 1736TIP3    H226624   4.254   0.536  12.922 -1.6574  3.0057  1.3887
 1737TIP3   OH226625   6.162   5.902  14.366 -0.1850 -0.4812 -0.1632
 1737TIP3    H126626   6.240   5.933  14.411  0.3060 -0.1205 -1.2648
 1737TIP3    H226627   6.154   5.958  14.289 -2.4444  0.5623  0.7857
 1738TIP3   OH226628   1.456   0.969  13.274  0.3553  0.2856  0.0816
 1738TIP3    H126629   1.441   0.875  13.287  2.3688  0.1766  1.8521
 1738TIP3    H226630   1.519   0.973  13.202  1.5575  0.1722  1.1018
 1739TIP3   OH226631   4.487   1.782  16.732  0.1115 -0.5218  0.1672
 1739TIP3    H126632   4.407   1.739  16.761  1.5701 -3.6929 -0.2533
 1739TIP3    H226633   4.521   1.825  16.811  0.2333 -2.8659  1.4366
 1740TIP3   OH226634   5.992   5.529   0.558 -0.0703 -0.4373 -0.0981
 1740TIP3    H126635   5.944   5.519   0.641  0.4672 -0.0792  0.2545
 1740TIP3    H226636   5.943   5.475   0.496 -1.2062  0.2739  0.1526
 1741TIP3   OH226637   6.609   6.249  16.348 -0.3840 -0.2567  0.3386
 1741TIP3    H126638   6.636   6.158  16.360 -1.0346 -0.6249 -0.8571
 1741TIP3    H226639   6.658   6.298  16.414  0.2791 -1.4206  0.7209
 1742TIP3   OH226640   0.286   4.108  15.624  0.6210 -0.0698 -0.1860
 1742TIP3    H126641   0.279   4.162  15.703  2.5688  1.4541 -0.9951
 1742TIP3    H226642   0.214   4.047  15.630 -1.4705  2.4159  0.9809
 1743TIP3   OH226643   6.048   0.513   2.659 -0.4518  0.2064 -0.0864
 1743TIP3    H126644   6.058   0.448   2.729  1.4230  2.8110  2.1671
 1743TIP3    H226645   5.954   0.514   2.641 -0.6247 -2.4033  0.5252
 1744TIP3   OH226646   4.202   2.266  13.766  0.6442  0.2834  0.5061
 1744TIP3    H126647   4.250   2.241  13.687 -0.6991  0.7629 -0.4783
 1744TIP3    H226648   4.242   2.349  13.793 -1.1036  1.8437 -1.6077
 1745TIP3   OH226649   3.018   0.610   2.290  0.2607 -0.3038  0.0116
 1745TIP3    H126650   2.953   0.542   2.308  1.0410 -1.1673 -0.3875
 1745TIP3    H226651   2.993   0.645   2.205  0.0537 -0.3154  0.0657
 1746TIP3   OH226652   4.031   4.088   2.650 -0.8852  0.2168 -0.4314
 1746TIP3    H126653   4.092   4.080   2.576  1.3300 -2.0693  1.5628
 1746TIP3    H226654   4.087   4.108   2.725 -2.7421 -0.6745  1.2180
 1747TIP3   OH226655   0.204   1.812   6.396 -0.7170 -0.0318  0.4763
 1747TIP3    H126656   0.143   1.771   6.457  1.7492  0.3541  3.2711
 1747TIP3    H226657   0.162   1.895   6.372 -3.0349 -1.4876 -0.7136
 1748TIP3   OH226658   2.905   0.979   5.718 -0.3558 -0.0154 -0.4375
 1748TIP3    H126659   2.873   1.052   5.772 -1.0021 -0.3717 -0.3272
 1748TIP3    H226660   2.959   0.927   5.777 -2.0479 -1.0751  0.2248
 1749TIP3   OH226661   3.255   5.425  15.136 -0.5437  0.1036 -0.0752
 1749TIP3    H126662   3.286   5.457  15.220  1.0035  0.2067 -0.6717
 1749TIP3    H226663   3.299   5.480  15.071 -1.5135 -0.1418 -0.9628
 1750TIP3   OH226664   4.198   6.056   4.711  0.3561  0.2244 -0.1546
 1750TIP3    H126665   4.135   5.985   4.725  2.8675 -2.1284 -0.5222
 1750TIP3    H226666   4.195   6.072   4.617  0.1248  0.3347 -0.1313
 1751TIP3   OH226667   1.122   2.173  14.926  0.0768 -0.5943  0.0971
 1751TIP3    H126668   1.149   2.107  14.990  2.7977  2.1243  1.9404
 1751TIP3    H226669   1.042   2.211  14.962  1.6320  0.9753  2.0671
 1752TIP3   OH226670   6.736   3.944  11.915  0.2720  0.0589 -0.2351
 1752TIP3    H126671   6.742   3.854  11.883  0.7469  0.0140 -0.0364
 1752TIP3    H226672   6.745   3.935  12.010 -0.2081  0.2682 -0.1707
 1753TIP3   OH226673   4.473   6.553  13.211 -0.0569 -0.4662  0.1739
 1753TIP3    H126674   4.441   6.587  13.294  1.4763 -0.3687  0.7329
 1753TIP3    H226675   4.551   6.604  13.192 -0.0305 -0.9241 -1.0142
 1754TIP3   OH226676   3.777   1.620  13.713 -0.3088 -0.1482 -0.8932
 1754TIP3    H126677   3.856   1.575  13.681  0.2616  0.7734 -0.7970
 1754TIP3    H226678   3.705   1.581  13.663  0.3731  0.0303 -2.0376
 1755TIP3   OH226679   1.453   6.548  12.667  0.0787 -0.2831  0.2111
 1755TIP3    H126680   1.442   6.453  12.670 -1.1306 -0.1271  1.7329
 1755TIP3    H226681   1.540   6.563  12.702 -0.1076 -0.7892  0.9119
 1756TIP3   OH226682   0.790   1.487   0.049  0.6757  0.2700 -0.1516
 1756TIP3    H126683   0.831   1.512  -0.034 -0.6571 -1.1547 -1.2972
 1756TIP3    H226684   0.845   1.416   0.082  0.5318  0.0010 -0.4722
 1757TIP3   OH226685   6.720   4.182  11.395  0.2786 -0.3350 -0.1450
 1757TIP3    H126686   6.691   4.227  11.474 -0.0720 -0.8554  0.0267
 1757TIP3    H226687   6.658   4.111  11.384  1.5493 -1.5331  0.2749
 1758TIP3   OH226688   1.985   5.960  10.968  0.1522 -0.9636 -0.1235
 1758TIP3    H126689   1.993   5.904  10.890  0.3653 -1.0589 -0.0322
 1758TIP3    H226690   2.074   5.990  10.985 -0.0348 -0.1938 -0.4707
 1759TIP3   OH226691   2.506   5.544  14.931  0.1607 -0.3612 -0.2012
 1759TIP3    H126692   2.457   5.493  14.866  0.8359 -1.3997  0.0926
 1759TIP3    H226693   2.491   5.635  14.906 -1.4783 -0.6717 -0.4542
 1760TIP3   OH226694   2.963   2.795  15.854  0.2337  0.0654 -0.5195
 1760TIP3    H126695   3.025   2.735  15.814 -0.9946 -2.1142  0.7646
 1760TIP3    H226696   2.878   2.768  15.821 -0.3615  0.9537  0.2545
 1761TIP3   OH226697   1.660   2.293  15.161 -0.5830  0.1400 -0.6847
 1761TIP3    H126698   1.642   2.387  15.166  1.0557  0.4659 -0.5931
 1761TIP3    H226699   1.595   2.253  15.219 -1.3630  1.1978 -0.8037
 1762TIP3   OH226700   1.800   2.060   5.414 -0.0175 -0.4523  0.6096
 1762TIP3    H126701   1.778   2.148   5.384 -1.6366 -1.9638 -2.9261
 1762TIP3    H226702   1.894   2.051   5.395  0.0971  0.4042  0.7519
 1763TIP3   OH226703   4.161   2.154   2.981  0.3162 -0.2589 -0.6685
 1763TIP3    H126704   4.166   2.085   3.047 -0.2523 -0.0262 -0.3872
 1763TIP3    H226705   4.253   2.170   2.957  0.6112  0.4844  0.9136
 1764TIP3   OH226706   1.618   3.669  16.678  0.3412 -0.2673 -0.4549
 1764TIP3    H126707   1.608   3.630  16.591 -1.7146  0.0061 -0.3742
 1764TIP3    H226708   1.528   3.684  16.707  1.0381  2.0867  0.6044
 1765TIP3   OH226709   2.359   0.134  10.912  0.7191 -0.2577 -0.2284
 1765TIP3    H126710   2.373   0.162  10.822 -0.4514 -0.4789 -0.4883
 1765TIP3    H226711   2.442   0.151  10.956  0.9330  0.9085 -1.0720
 1766TIP3   OH226712   2.774   0.890  13.901 -0.5931  0.2206 -0.1770
 1766TIP3    H126713   2.733   0.826  13.960  0.5868 -0.4280 -0.0566
 1766TIP3    H226714   2.732   0.875  13.816 -2.6018  1.4278  0.5425
 1767TIP3   OH226715   6.648   5.338  16.055 -0.2042  0.3010  0.2116
 1767TIP3    H126716   6.624   5.317  16.145 -1.7017 -0.2181 -0.2911
 1767TIP3    H226717   6.566   5.370  16.015  0.2135 -0.3446 -1.2027
 1768TIP3   OH226718   1.360   4.010   3.455 -0.3381 -0.6632  0.1737
 1768TIP3    H126719   1.317   3.924   3.451  0.2719 -1.0082  0.8533
 1768TIP3    H226720   1.369   4.028   3.548 -3.0837  1.4936  0.0981
 1769TIP3   OH226721   6.285   1.798  11.377 -0.0862  0.7726  0.3114
 1769TIP3    H126722   6.333   1.872  11.414 -1.3607  0.3483  2.8623
 1769TIP3    H226723   6.245   1.834  11.297  2.5280  1.7378 -0.6274
 1770TIP3   OH226724   3.083   0.219  13.026  0.4597  0.3223 -0.3881
 1770TIP3    H126725   3.175   0.233  13.049  0.1635 -0.8692  1.6092
 1770TIP3    H226726   3.039   0.300  13.050  0.7703  0.4095 -0.1246
 1771TIP3   OH226727   1.994   1.871   3.579  0.0173  0.2857 -0.3368
 1771TIP3    H126728   1.971   1.811   3.508  1.4075 -0.9905  0.2597
 1771TIP3    H226729   1.957   1.830   3.657  1.7085 -0.2505  0.1943
 1772TIP3   OH226730   4.883   2.048   0.019  0.5362 -0.1915  0.5169
 1772TIP3    H126731   4.945   2.018   0.085 -0.1676 -1.6068  0.5678
 1772TIP3    H226732   4.798   2.047   0.063  0.0717 -1.1046 -0.3749
 1773TIP3   OH226733   0.555   1.978   4.540  0.1064  0.1689  0.0648
 1773TIP3    H126734   0.522   1.998   4.452  0.5844  0.3605 -0.0741
 1773TIP3    H226735   0.487   2.009   4.599 -1.3798 -2.2138 -0.3096
 1774TIP3   OH226736   0.909   0.777   2.540  0.7223  0.2202 -0.2905
 1774TIP3    H126737   0.944   0.691   2.563  0.7171  0.5635  1.0533
 1774TIP3    H226738   0.833   0.788   2.597 -1.0187 -0.1074 -2.5017
 1775TIP3   OH226739   1.302   1.914  16.458  0.0803 -0.0615  0.1052
 1775TIP3    H126740   1.320   1.920  16.365 -0.2182  1.6915  0.1350
 1775TIP3    H226741   1.215   1.954  16.468  0.8149  1.3007  1.3275
 1776TIP3   OH226742   3.127   5.574   5.852  0.5671 -0.2617 -0.6328
 1776TIP3    H126743   3.195   5.639   5.834  0.3009 -0.0657 -0.9253
 1776TIP3    H226744   3.049   5.625   5.874  0.4208 -0.4830 -0.6302
 1777TIP3   OH226745   4.257   3.281   3.684 -0.1562  0.0459 -0.0137
 1777TIP3    H126746   4.325   3.283   3.752  0.6045 -0.1613 -0.7583
 1777TIP3    H226747   4.182   3.324   3.724  0.2550 -0.1508  0.9974
 1778TIP3   OH226748   5.713   5.879  14.707  0.1137  0.3150 -0.0286
 1778TIP3    H126749   5.623   5.849  14.698  0.3376 -0.9308  1.6031
 1778TIP3    H226750   5.711   5.941  14.780  0.8147 -0.8994  1.0530
 1779TIP3   OH226751   3.827   4.632  14.359  0.1296 -0.5668  0.1122
 1779TIP3    H126752   3.782   4.715  14.379  0.6255 -0.3872  0.4945
 1779TIP3    H226753   3.860   4.603  14.444 -0.1887 -1.2497  0.0061
 1780TIP3   OH226754   4.743   6.119   2.837 -0.6962  0.0490  0.4326
 1780TIP3    H126755   4.774   6.047   2.892  1.1010 -0.6081 -1.4111
 1780TIP3    H226756   4.814   6.182   2.837 -1.1549  0.5706 -0.2293
 1781TIP3   OH226757   4.498   4.407   4.434 -0.3517 -0.1078  0.4794
 1781TIP3    H126758   4.547   4.467   4.379 -1.7325 -0.3731 -1.0798
 1781TIP3    H226759   4.479   4.332   4.378  0.0489 -1.3438  1.9478
 1782TIP3   OH226760   1.684   5.441  14.596  0.1018  0.2877  0.4221
 1782TIP3    H126761   1.730   5.468  14.516 -0.3336  0.3611  0.1938
 1782TIP3    H226762   1.595   5.474  14.585  0.3151  1.2320  1.4216
 1783TIP3   OH226763   1.265   6.409  11.574  0.3304  0.4595 -0.5912
 1783TIP3    H126764   1.245   6.413  11.480  0.0011 -0.0308 -0.5438
 1783TIP3    H226765   1.312   6.490  11.592 -1.7728  1.7081 -0.6479
 1784TIP3   OH226766   3.126   4.416  13.496 -0.1878 -0.3082 -0.0222
 1784TIP3    H126767   3.140   4.459  13.580  1.8711 -0.5716 -0.2007
 1784TIP3    H226768   3.214   4.394  13.465 -0.7980  1.0772 -2.9262
 1785TIP3   OH226769   1.804   3.521   4.614 -0.0999 -0.4877 -0.4648
 1785TIP3    H126770   1.716   3.550   4.592  0.3940  1.1211 -0.3770
 1785TIP3    H226771   1.813   3.542   4.707  0.6555  0.1029 -0.6661
 1786TIP3   OH226772   2.346   0.066  15.890  0.4418 -0.1011  0.4708
 1786TIP3    H126773   2.344   0.111  15.974 -0.1678  0.7234  0.0202
 1786TIP3    H226774   2.283   0.113  15.836 -0.6506 -1.8273  0.1732
 1787TIP3   OH226775   1.040   5.177   5.650 -0.1581  0.0048 -0.1654
 1787TIP3    H126776   1.051   5.091   5.692  1.7147  0.4924  0.4000
 1787TIP3    H226777   0.949   5.201   5.667 -0.4070 -1.4155  0.5517
 1788TIP3   OH226778   0.325   4.833   4.886  0.5735  0.1989  0.6526
 1788TIP3    H126779   0.366   4.756   4.926 -0.6871 -0.6920  0.2661
 1788TIP3    H226780   0.399   4.885   4.853  1.3620 -1.8184 -0.8422
 1789TIP3   OH226781   1.884   1.607   3.262 -0.7371  0.6197 -0.7663
 1789TIP3    H126782   1.816   1.603   3.195 -0.0022 -0.7573 -1.4426
 1789TIP3    H226783   1.964   1.628   3.214 -0.2501 -0.1481 -0.3008
 1790TIP3   OH226784   1.101   2.989  13.113  0.3067  0.3348 -0.4433
 1790TIP3    H126785   1.150   3.068  13.090  0.8831 -0.1590 -0.9251
 1790TIP3    H226786   1.017   3.000  13.069  0.0874  1.0430  0.1317
 1791TIP3   OH226787   2.354   1.629  12.744  0.1902  0.6798  0.0780
 1791TIP3    H126788   2.282   1.567  12.728 -0.1724  1.0477  0.2676
 1791TIP3    H226789   2.394   1.598  12.826  1.5208 -0.7104 -1.0669
 1792TIP3   OH226790   5.235   5.626   4.936  0.3955  0.4109  0.0309
 1792TIP3    H126791   5.217   5.532   4.929 -0.8498  0.5834  0.7312
 1792TIP3    H226792   5.317   5.639   4.888 -0.8074 -0.5980 -2.3707
 1793TIP3   OH226793   2.035   3.642  11.401 -0.4461 -0.4252 -0.1414
 1793TIP3    H126794   1.947   3.679  11.392 -1.3021 -2.2251  0.7143
 1793TIP3    H226795   2.050   3.597  11.319  0.2490  1.0526 -0.8390
 1794TIP3   OH226796   0.844   6.710   5.933  0.4432 -0.1510  0.4260
 1794TIP3    H126797   0.776   6.667   5.984 -0.4181 -0.2001 -0.7474
 1794TIP3    H226798   0.863   6.790   5.982 -2.2403  1.1219 -0.5011
 1795TIP3   OH226799   6.671   2.326   5.431  0.2696 -0.6126 -0.1261
 1795TIP3    H126800   6.577   2.344   5.434  0.2509 -0.7422  0.0636
 1795TIP3    H226801   6.678   2.232   5.449  0.3080 -0.9531 -1.7751
 1796TIP3   OH226802   4.919   3.965   4.204  0.2112  0.3686  0.0408
 1796TIP3    H126803   4.989   4.028   4.218  0.5367 -0.4599  2.3476
 1796TIP3    H226804   4.840   4.018   4.195  0.6947  1.1749  0.4630
 1797TIP3   OH226805   4.113   4.669   2.436  0.7422 -0.1965  0.0783
 1797TIP3    H126806   4.041   4.616   2.472  1.2983  0.5270  2.3888
 1797TIP3    H226807   4.135   4.628   2.353 -0.3816 -2.2006  0.7497
 1798TIP3   OH226808   1.616   4.208  16.162  0.2435  0.5847 -0.3054
 1798TIP3    H126809   1.573   4.270  16.102 -0.4785  2.7905  2.3886
 1798TIP3    H226810   1.710   4.223  16.148  0.0802  1.5955 -0.3848
 1799TIP3   OH226811   0.638   2.623  14.140  0.4545 -0.0342  0.1105
 1799TIP3    H126812   0.727   2.623  14.104 -0.4725  0.6371 -2.2335
 1799TIP3    H226813   0.641   2.686  14.212  2.0789 -0.6725  0.6421
 1800TIP3   OH226814   6.000   2.798  14.940 -0.0852  0.5445 -0.6007
 1800TIP3    H126815   5.990   2.735  14.869 -2.7016  2.4741 -2.0192
 1800TIP3    H226816   5.912   2.828  14.960  1.0933  4.4562 -0.6749
 1801TIP3   OH226817   1.515   4.133  17.120  0.5574 -0.1347 -0.2446
 1801TIP3    H126818   1.457   4.151  17.046  1.7538 -0.4383 -1.2668
 1801TIP3    H226819   1.571   4.061  17.091  1.2347 -0.0667  0.8392
 1802TIP3   OH226820   3.572   6.386   3.801 -0.0521 -0.6059  0.3850
 1802TIP3    H126821   3.666   6.391   3.784  0.4427 -1.9833  2.4846
 1802TIP3    H226822   3.556   6.453   3.867 -0.7667  0.3890 -0.7849
 1803TIP3   OH226823   1.324   1.223   2.666 -0.0996  0.3329 -0.3493
 1803TIP3    H126824   1.360   1.228   2.577  0.7509  2.3005  0.0864
 1803TIP3    H226825   1.312   1.314   2.692 -0.9419 -0.2451  1.3235
 1804TIP3   OH226826   1.726   5.659  15.098  0.2467  0.3526 -0.0867
 1804TIP3    H126827   1.698   5.741  15.057 -2.1779 -0.0120  0.7776
 1804TIP3    H226828   1.782   5.687  15.170 -1.2755  1.3145  0.7484
 1805TIP3   OH226829   3.261   1.708   4.749  0.6980  0.2822 -0.3054
 1805TIP3    H126830   3.238   1.782   4.694 -0.8818 -1.7368 -2.4753
 1805TIP3    H226831   3.179   1.682   4.790  0.8044 -1.5190 -1.1870
 1806TIP3   OH226832   1.101   3.379   6.052 -0.0882  0.6471  0.0385
 1806TIP3    H126833   1.011   3.399   6.076 -0.8276 -0.0390 -2.0282
 1806TIP3    H226834   1.094   3.333   5.968  2.1083 -0.4785  0.4383
 1807TIP3   OH226835   1.255   2.503  10.892 -0.1283 -0.4665  0.2935
 1807TIP3    H126836   1.265   2.575  10.829 -0.0606 -0.6372  0.1049
 1807TIP3    H226837   1.161   2.488  10.897 -0.0584 -1.3281 -0.7771
 1808TIP3   OH226838   3.608   4.018   3.537 -0.7910 -0.3302 -1.1054
 1808TIP3    H126839   3.624   3.997   3.445 -1.7012  0.5478 -1.4843
 1808TIP3    H226840   3.572   3.937   3.574  1.5223 -1.3309 -0.9955
 1809TIP3   OH226841   6.541   2.686   2.589  0.2922 -0.0694  0.2740
 1809TIP3    H126842   6.460   2.636   2.584 -0.5793  1.2966  0.5491
 1809TIP3    H226843   6.534   2.735   2.671  1.9070 -0.8047  0.8816
 1810TIP3   OH226844   5.801   3.583   3.250 -0.7341 -0.3457  0.1737
 1810TIP3    H126845   5.728   3.633   3.213  1.0299  1.7784 -0.5309
 1810TIP3    H226846   5.761   3.531   3.320 -3.0179  0.3272 -0.5868
 1811TIP3   OH226847   0.923   5.916   5.608 -0.0243  0.2738 -0.3662
 1811TIP3    H126848   0.963   5.906   5.694 -1.5333 -3.5905  0.0201
 1811TIP3    H226849   0.981   5.868   5.549  1.4294  3.5682 -1.7157
 1812TIP3   OH226850   4.190   3.727   6.002  0.8615 -0.4168  0.4474
 1812TIP3    H126851   4.245   3.792   5.958  0.7057  0.0970  1.0023
 1812TIP3    H226852   4.241   3.698   6.077 -0.5502  1.8294  2.3448
 1813TIP3   OH226853   5.964   0.114  13.483 -0.1151 -0.2083  0.2928
 1813TIP3    H126854   5.982   0.196  13.527  0.6789 -0.5451  0.5939
 1813TIP3    H226855   5.869   0.103  13.491 -0.2057  0.6028  0.3654
 1814TIP3   OH226856   0.955   6.463   2.181 -0.0169  0.4187 -0.5216
 1814TIP3    H126857   0.936   6.556   2.180  2.4782  0.9621 -1.7855
 1814TIP3    H226858   0.980   6.444   2.271  0.4054  1.1748 -0.4809
 1815TIP3   OH226859   4.878   1.479  16.590 -0.1219 -0.3940 -0.4565
 1815TIP3    H126860   4.853   1.570  16.607  2.5182  0.6587 -1.8267
 1815TIP3    H226861   4.946   1.461  16.656  0.2197 -0.9640 -0.9609
 1816TIP3   OH226862   5.180   5.511  14.045  0.8283  0.1530 -0.3827
 1816TIP3    H126863   5.219   5.594  14.073 -1.9749  0.7843  1.8447
 1816TIP3    H226864   5.104   5.500  14.101  2.5111 -5.2018  1.2013
 1817TIP3   OH226865   1.685   6.704  13.645  0.3366  0.1148  0.2046
 1817TIP3    H126866   1.728   6.626  13.611 -1.0129 -0.1109 -1.0195
 1817TIP3    H226867   1.637   6.740  13.571 -1.1887  0.6191  1.3905
 1818TIP3   OH226868   3.145   2.171  12.228 -0.6444 -0.3985  0.4850
 1818TIP3    H126869   3.206   2.186  12.156 -0.3547  0.7943  0.9653
 1818TIP3    H226870   3.159   2.079  12.252  0.7630 -0.2340  0.3808
 1819TIP3   OH226871   2.627   4.515   5.524 -0.4316  0.1358  0.0979
 1819TIP3    H126872   2.632   4.598   5.572 -0.1396  0.3720 -0.3237
 1819TIP3    H226873   2.611   4.542   5.433  1.4008 -0.1670 -0.3453
 1820TIP3   OH226874   3.097   5.010   5.888  0.3672 -0.9484  0.0958
 1820TIP3    H126875   3.124   5.065   5.815  0.3039  0.3360  1.0138
 1820TIP3    H226876   3.021   5.056   5.925 -0.2371 -2.1243  0.3339
 1821TIP3   OH226877   4.173   2.540  13.806 -0.5171 -0.4004  0.0017
 1821TIP3    H126878   4.110   2.590  13.858  0.5222 -0.0685  0.9728
 1821TIP3    H226879   4.258   2.582  13.824 -0.0636 -0.6256 -1.5426
 1822TIP3   OH226880   2.063   1.311   2.142 -0.6399 -0.2557  0.0469
 1822TIP3    H126881   2.082   1.386   2.086 -1.1829 -1.9342 -2.4197
 1822TIP3    H226882   2.132   1.248   2.123 -1.7799 -1.5132  0.0429
 1823TIP3   OH226883   5.856   6.737   5.696 -0.5921  0.1874 -0.9844
 1823TIP3    H126884   5.862   6.732   5.601  0.3030 -0.0901 -0.9175
 1823TIP3    H226885   5.932   6.689   5.728 -0.3104  1.1591 -0.1467
 1824TIP3   OH226886   3.195   3.587   5.483 -0.0695 -0.4539 -0.0796
 1824TIP3    H126887   3.127   3.559   5.544  0.5927  0.3868  1.0855
 1824TIP3    H226888   3.247   3.508   5.467  0.3496 -0.4725  1.2704
 1825TIP3   OH226889   0.128   6.485   4.069 -0.2587 -0.0520  0.0947
 1825TIP3    H126890   0.125   6.400   4.113 -0.2538 -0.1683 -0.1318
 1825TIP3    H226891   0.037   6.516   4.072 -0.3417 -0.2550 -0.1909
 1826TIP3   OH226892   4.618   0.848   5.176 -0.1522 -0.4897  0.1635
 1826TIP3    H126893   4.581   0.931   5.146 -0.9728 -1.2753 -1.0113
 1826TIP3    H226894   4.555   0.816   5.241  1.2553  0.8461  2.2831
 1827TIP3   OH226895   5.452   4.357  12.467  0.0819 -0.1646 -0.3671
 1827TIP3    H126896   5.527   4.415  12.459  1.0268 -1.4629 -1.1235
 1827TIP3    H226897   5.488   4.269  12.457 -1.2386 -0.9321  1.3384
 1828TIP3   OH226898   6.524   0.304   5.689 -0.4257 -0.5707 -0.0805
 1828TIP3    H126899   6.451   0.256   5.651 -1.0508  0.2564  0.0514
 1828TIP3    H226900   6.484   0.358   5.758  0.4469 -0.8153  0.6208
 1829TIP3   OH226901   5.540   6.336  14.347 -0.1803 -0.9649 -0.0359
 1829TIP3    H126902   5.575   6.338  14.258  1.6997  0.2862  0.6872
 1829TIP3    H226903   5.614   6.364  14.402 -1.1572 -2.1942  1.9663
 1830TIP3   OH226904   0.624   4.570  16.892  0.1622  0.1115 -0.1498
 1830TIP3    H126905   0.675   4.516  16.952 -0.2276  0.9208  0.9237
 1830TIP3    H226906   0.563   4.508  16.851  1.8832 -0.8239 -1.3340
 1831TIP3   OH226907   1.481   0.692  11.839 -0.2118  0.5224 -0.2148
 1831TIP3    H126908   1.514   0.688  11.750 -1.1842  2.8715 -0.7227
 1831TIP3    H226909   1.559   0.704  11.893  0.4271 -1.4396 -0.6863
 1832TIP3   OH226910   0.395   3.726  16.936  0.0406 -0.4386 -0.0552
 1832TIP3    H126911   0.454   3.801  16.935 -2.1373  1.3493 -0.8723
 1832TIP3    H226912   0.375   3.713  17.028 -1.3285  1.5117 -0.0268
 1833TIP3   OH226913   5.205   1.970  13.681  0.2191  0.0378 -0.5776
 1833TIP3    H126914   5.141   2.023  13.633  1.9070  2.2634 -0.4367
 1833TIP3    H226915   5.243   1.912  13.615 -2.2427 -1.6642 -0.5751
 1834TIP3   OH226916   0.448   0.537   3.884 -0.1867  0.1819 -0.3001
 1834TIP3    H126917   0.446   0.552   3.790 -3.1041  0.9055 -0.1557
 1834TIP3    H226918   0.487   0.616   3.920 -1.9478  1.2383 -0.6804
 1835TIP3   OH226919   6.237   5.350   0.483 -0.3609  0.5987 -0.3795
 1835TIP3    H126920   6.302   5.409   0.444  0.2311 -1.3930 -2.5582
 1835TIP3    H226921   6.170   5.340   0.414 -1.9298  0.9672  1.0537
 1836TIP3   OH226922   5.361   3.442   4.455 -0.6347  0.2080  0.2782
 1836TIP3    H126923   5.424   3.500   4.498 -1.9109  0.9425  1.1786
 1836TIP3    H226924   5.276   3.485   4.468 -1.3616 -0.9271 -0.6512
 1837TIP3   OH226925   0.047   2.515   3.704 -0.0297  0.2361  0.3286
 1837TIP3    H126926   0.041   2.433   3.754 -1.8209 -0.6380 -1.2617
 1837TIP3    H226927   0.140   2.526   3.688  0.2622 -1.3872  0.7725
 1838TIP3   OH226928   6.045   4.763   0.806  0.2240  0.2882 -0.4402
 1838TIP3    H126929   6.124   4.732   0.851 -1.9007 -3.7685  0.7034
 1838TIP3    H226930   6.053   4.729   0.717  0.8324  1.9573 -1.0631
 1839TIP3   OH226931   0.658   2.594  13.605  0.0084  0.7295  0.1548
 1839TIP3    H126932   0.595   2.590  13.677  1.8859 -0.5870  1.7732
 1839TIP3    H226933   0.739   2.625  13.646  0.7214  1.3558 -1.6792
 1840TIP3   OH226934   3.740   6.477   4.493 -0.2094 -0.0342 -0.2099
 1840TIP3    H126935   3.806   6.413   4.466 -2.3120 -3.1667  1.6818
 1840TIP3    H226936   3.763   6.499   4.583  1.2115  2.9308 -1.2356
 1841TIP3   OH226937   0.409   4.486  12.193  0.4340  0.2827  0.0889
 1841TIP3    H126938   0.321   4.451  12.178  0.5246  0.7467 -1.6873
 1841TIP3    H226939   0.424   4.474  12.286 -0.7632 -1.5667  0.0869
 1842TIP3   OH226940   3.984   4.624   5.311  0.2402 -0.0893 -0.4803
 1842TIP3    H126941   3.893   4.650   5.319 -0.2390 -1.1815 -2.1550
 1842TIP3    H226942   3.984   4.552   5.247  2.1825 -0.5398 -0.0327
 1843TIP3   OH226943   4.382   2.239  16.709  0.5594 -0.5410  0.0006
 1843TIP3    H126944   4.380   2.257  16.803  1.6224  0.5315 -0.1680
 1843TIP3    H226945   4.474   2.222  16.690  0.5761  0.7729 -1.1283
 1844TIP3   OH226946   5.713   1.998  11.912  0.4341 -0.2999  0.3484
 1844TIP3    H126947   5.796   2.046  11.919 -0.3254  0.8805  1.5403
 1844TIP3    H226948   5.694   1.998  11.818  2.4023 -1.7084 -0.0897
 1845TIP3   OH226949   4.093   4.109  10.941 -0.0374 -0.4601 -0.4061
 1845TIP3    H126950   4.157   4.133  11.009 -0.7321  0.9323 -0.2337
 1845TIP3    H226951   4.132   4.033  10.897  0.8996 -0.7357  0.8754
 1846TIP3   OH226952   0.719   5.044   2.072 -0.2604 -0.3857 -0.0982
 1846TIP3    H126953   0.747   4.960   2.108 -0.4335 -0.2385  0.3858
 1846TIP3    H226954   0.701   5.026   1.979  2.3162 -0.2961 -0.6600
 1847TIP3   OH226955   5.757   1.286   2.677  0.8813  0.3810  0.0214
 1847TIP3    H126956   5.684   1.323   2.628 -0.8550 -1.4710  1.1448
 1847TIP3    H226957   5.780   1.206   2.630  0.6698 -0.2313  0.9270
 1848TIP3   OH226958   1.887   5.191  17.155  0.3077  0.2496 -0.0437
 1848TIP3    H126959   1.832   5.232  17.221 -1.0674  0.5338 -1.3393
 1848TIP3    H226960   1.829   5.129  17.111  1.2297 -0.0055 -0.9068
 1849TIP3   OH226961   5.516   4.997  14.289  0.2424 -0.0406  0.9737
 1849TIP3    H126962   5.592   5.055  14.282 -0.0027  0.2338  0.5642
 1849TIP3    H226963   5.552   4.909  14.277  0.3018  0.1886 -0.6483
 1850TIP3   OH226964   1.274   3.692   3.688 -0.3511  0.0074  0.1860
 1850TIP3    H126965   1.268   3.624   3.621  0.9060 -0.8171  0.8905
 1850TIP3    H226966   1.366   3.718   3.688 -0.7217  1.3465  0.2849
 1851TIP3   OH226967   0.167   5.777  15.476  0.1437  0.3407 -0.0425
 1851TIP3    H126968   0.141   5.806  15.563  0.8892  0.6690  0.0746
 1851TIP3    H226969   0.241   5.718  15.491 -1.5100 -1.8678 -0.2614
 1852TIP3   OH226970   3.159   6.221  17.153  0.2961  0.6049  0.0679
 1852TIP3    H126971   3.067   6.241  17.140 -0.6379 -1.5873  2.9947
 1852TIP3    H226972   3.203   6.306  17.143 -2.2019  1.9773  0.3841
 1853TIP3   OH226973   3.079   1.345   6.086  0.5589 -0.5536  0.2100
 1853TIP3    H126974   3.009   1.399   6.048 -0.7142 -1.8485  0.6854
 1853TIP3    H226975   3.074   1.361   6.180  1.4373 -0.0403  0.1773
 1854TIP3   OH226976   3.100   0.389  10.879 -0.3453 -0.0094 -0.1873
 1854TIP3    H126977   3.071   0.310  10.924 -1.5058  1.3760  1.5614
 1854TIP3    H226978   3.024   0.446  10.878  0.6043  1.2885 -1.0240
 1855TIP3   OH226979   0.337   1.425   0.691 -0.9090  0.2745 -0.4833
 1855TIP3    H126980   0.373   1.378   0.766  1.0301  0.6133 -1.1714
 1855TIP3    H226981   0.396   1.403   0.618 -3.0304 -0.4406 -2.0225
 1856TIP3   OH226982   0.026   1.503  15.203 -0.4403 -0.2908 -1.2355
 1856TIP3    H126983   0.075   1.444  15.145 -2.2532 -1.2821 -1.7750
 1856TIP3    H226984   0.093   1.538  15.262  0.9283 -1.6188 -1.9555
 1857TIP3   OH226985   5.404   3.813   4.672  0.0513 -0.2156 -0.3758
 1857TIP3    H126986   5.427   3.821   4.764 -0.0866 -1.1958 -0.2561
 1857TIP3    H226987   5.332   3.876   4.659  0.4271  0.3049  0.0550
 1858TIP3   OH226988   5.176   4.533  16.790 -0.1416 -0.1580 -0.3093
 1858TIP3    H126989   5.190   4.491  16.705 -0.5080 -3.3057  1.0977
 1858TIP3    H226990   5.081   4.540  16.798 -0.0766  1.1962 -0.6275
 1859TIP3   OH226991   1.197   5.829  14.054 -0.2300 -0.3117  0.1246
 1859TIP3    H126992   1.117   5.809  14.104 -1.3853  1.4537 -0.9306
 1859TIP3    H226993   1.195   5.770  13.980  0.8544 -2.1040  1.4850
 1860TIP3   OH226994   6.318   0.794   5.021  0.9198 -0.1892 -0.0114
 1860TIP3    H126995   6.306   0.799   4.926  1.5095  0.2571 -0.0638
 1860TIP3    H226996   6.253   0.855   5.057  0.2262 -0.8706 -0.0873
 1861TIP3   OH226997   3.882   5.332   0.362  0.3182 -0.2541  0.0436
 1861TIP3    H126998   3.861   5.318   0.454 -0.4898 -1.0933 -0.2558
 1861TIP3    H226999   3.958   5.275   0.346 -0.6015 -1.4400 -0.2195
 1862TIP3   OH227000   4.558   5.046  13.829  0.1475  0.2385  0.1875
 1862TIP3    H127001   4.542   4.958  13.863  0.6834  0.5474  1.2552
 1862TIP3    H227002   4.647   5.043  13.795  0.2149  0.4061  0.3480
 1863TIP3   OH227003   3.021   0.317  14.537 -0.5854  0.2113 -0.6711
 1863TIP3    H127004   3.108   0.282  14.557 -0.2858  1.0777 -0.4570
 1863TIP3    H227005   3.036   0.376  14.463 -1.0282  0.1914 -0.7749
 1864TIP3   OH227006   2.718   3.118   4.626  0.4395 -0.0531 -0.0144
 1864TIP3    H127007   2.734   3.172   4.548  2.9157 -1.4625 -0.5415
 1864TIP3    H227008   2.630   3.083   4.612  0.0708  1.2819 -1.2216
 1865TIP3   OH227009   1.436   4.939  12.184  0.5176  0.2474 -0.2782
 1865TIP3    H127010   1.479   4.929  12.269  0.7518  2.3636 -0.1050
 1865TIP3    H227011   1.505   4.973  12.127  0.0377  0.0442 -0.9743
 1866TIP3   OH227012   3.943   5.955  17.112  0.0737 -0.7249 -0.2437
 1866TIP3    H127013   3.965   5.877  17.163 -2.5610 -0.3996  1.4924
 1866TIP3    H227014   3.954   6.028  17.173 -2.7954 -0.2971 -0.1599
 1867TIP3   OH227015   4.908   2.111  13.691  0.1850 -0.0317  0.7457
 1867TIP3    H127016   4.818   2.143  13.683  0.7249  0.8827 -2.1854
 1867TIP3    H227017   4.900   2.016  13.684 -0.4891  0.0874 -0.2513
 1868TIP3   OH227018   0.205   0.990   3.624 -0.0345  0.5195 -0.0148
 1868TIP3    H127019   0.270   1.004   3.692 -0.7817  1.7420  0.4703
 1868TIP3    H227020   0.248   1.020   3.543  1.1832 -1.8094 -0.2592
 1869TIP3   OH227021   6.644   0.259   0.859  0.3765 -0.1829 -0.5646
 1869TIP3    H127022   6.597   0.262   0.942 -0.6874 -1.2946 -1.1039
 1869TIP3    H227023   6.667   0.350   0.841  1.4252 -0.0561  1.3803
 1870TIP3   OH227024   6.021   4.484  11.033  0.8017 -0.4224  0.4049
 1870TIP3    H127025   5.971   4.493  10.952  1.5263  0.5452  0.0557
 1870TIP3    H227026   6.091   4.549  11.025  0.1038  0.6084  2.3783
 1871TIP3   OH227027   6.502   0.946  15.358 -0.3783 -0.5873 -0.3578
 1871TIP3    H127028   6.414   0.927  15.325 -0.2601 -1.6307 -0.0838
 1871TIP3    H227029   6.494   0.940  15.453  0.0623 -1.0402 -0.3443
 1872TIP3   OH227030   5.042   3.791   4.015 -0.5822 -0.4261 -0.2094
 1872TIP3    H127031   4.981   3.773   3.943 -0.5136  1.4272 -0.7551
 1872TIP3    H227032   4.987   3.829   4.084  0.1523  2.8972 -1.3565
 1873TIP3   OH227033   3.865   5.633  12.322  0.2340 -0.5013  0.4531
 1873TIP3    H127034   3.947   5.589  12.343 -0.3538 -1.1645  1.3936
 1873TIP3    H227035   3.884   5.681  12.242  0.8052 -2.7437 -0.8034
 1874TIP3   OH227036   1.957   4.471   5.705 -0.5676 -0.8813  0.4431
 1874TIP3    H127037   2.026   4.538   5.701 -0.0158 -1.3380  2.1711
 1874TIP3    H227038   1.879   4.516   5.671 -0.1630  0.6035  1.4234
 1875TIP3   OH227039   5.668   5.653   0.679 -0.0719  0.5055  0.1304
 1875TIP3    H127040   5.627   5.653   0.593  0.2389  0.5360 -0.0180
 1875TIP3    H227041   5.708   5.566   0.687 -0.9572  0.1455  0.6517
 1876TIP3   OH227042   3.490   5.152   2.397  0.0691  0.5743 -0.1793
 1876TIP3    H127043   3.473   5.098   2.320  2.3864  1.9830 -1.7452
 1876TIP3    H227044   3.432   5.227   2.386  0.6937  0.9746 -0.7859
 1877TIP3   OH227045   0.284   6.346  11.656  0.9188  0.1065 -0.0059
 1877TIP3    H127046   0.364   6.396  11.669  1.6515 -0.8109 -0.9259
 1877TIP3    H227047   0.273   6.296  11.737  1.8450 -0.5552 -0.2864
 1878TIP3   OH227048   4.082   2.079  15.298 -0.9130 -0.0787  0.2887
 1878TIP3    H127049   4.016   2.010  15.285  0.3155 -1.0963 -0.7314
 1878TIP3    H227050   4.043   2.157  15.261 -2.5318 -0.1043  1.8989
 1879TIP3   OH227051   3.761   6.588   3.472 -0.2278 -0.0214  0.2455
 1879TIP3    H127052   3.769   6.525   3.544 -0.7310 -1.1656 -0.6747
 1879TIP3    H227053   3.791   6.539   3.395 -0.7957  0.8126 -0.5124
 1880TIP3   OH227054   6.371   0.064   3.494  0.2378  0.4305  0.1357
 1880TIP3    H127055   6.320   0.112   3.428 -0.2785  1.7350  1.4602
 1880TIP3    H227056   6.375   0.123   3.569 -0.3823 -1.6004  1.8046
 1881TIP3   OH227057   5.904   0.454   4.967 -1.0654  0.7152  0.1013
 1881TIP3    H127058   5.966   0.405   4.912 -1.6928  0.5259 -0.4505
 1881TIP3    H227059   5.917   0.545   4.942 -0.6240  0.7312  0.3827
 1882TIP3   OH227060   0.813   4.767   2.827  0.0967 -0.0684 -0.4820
 1882TIP3    H127061   0.837   4.680   2.796 -1.2361 -0.3439 -0.7622
 1882TIP3    H227062   0.787   4.815   2.749  1.3482  0.7712 -0.4046
 1883TIP3   OH227063   4.083   1.280  16.691 -0.3048  0.8390  0.2976
 1883TIP3    H127064   4.169   1.253  16.660 -0.2722  1.4822 -0.1705
 1883TIP3    H227065   4.049   1.202  16.736  1.4011  1.2590  2.4179
 1884TIP3   OH227066   3.647   4.755   5.835  0.2576 -0.1914 -0.2310
 1884TIP3    H127067   3.673   4.750   5.927  2.1156 -0.4693 -0.7333
 1884TIP3    H227068   3.555   4.779   5.837  0.5673  0.9993  1.6903
 1885TIP3   OH227069   1.116   2.874   5.338 -0.0806 -0.2414 -0.5802
 1885TIP3    H127070   1.043   2.934   5.351  0.0615 -0.2433  0.2356
 1885TIP3    H227071   1.194   2.929   5.351  0.0446 -0.7375  0.7831
 1886TIP3   OH227072   2.316   1.953   3.262 -0.6648 -0.0077 -0.2984
 1886TIP3    H127073   2.320   1.892   3.188 -1.7223  0.5357 -0.8155
 1886TIP3    H227074   2.329   2.039   3.222  0.1673  0.1741  0.3453
 1887TIP3   OH227075   0.772   3.436  14.931  0.2577  0.3024  0.2467
 1887TIP3    H127076   0.717   3.513  14.944 -0.5826 -0.2960  0.2582
 1887TIP3    H227077   0.855   3.459  14.972  0.0805  1.2788  0.0750
 1888TIP3   OH227078   3.882   0.048   3.913 -0.4458 -0.4302  0.9281
 1888TIP3    H127079   3.810   0.046   3.977 -1.3193  0.9280  0.0288
 1888TIP3    H227080   3.839   0.067   3.829  0.5159 -3.6371 -0.3401
 1889TIP3   OH227081   4.651   6.749   2.115 -0.1251 -0.4165  0.2878
 1889TIP3    H127082   4.721   6.814   2.105 -1.4348  1.1247  0.8134
 1889TIP3    H227083   4.696   6.667   2.132  1.5662  0.4562  0.1262
 1890TIP3   OH227084   3.782   5.803  12.004 -0.3845  0.0684  0.2514
 1890TIP3    H127085   3.800   5.894  11.978  0.3889 -0.1703 -0.0527
 1890TIP3    H227086   3.802   5.752  11.925  0.7711 -0.5352  0.9326
 1891TIP3   OH227087   4.886   4.178  13.032 -0.1862 -0.1355  0.5822
 1891TIP3    H127088   4.845   4.110  12.979 -0.7431 -0.3581  1.2913
 1891TIP3    H227089   4.928   4.130  13.103  1.6623  0.0509 -0.3548
 1892TIP3   OH227090   2.798   1.677   0.265 -0.1645  0.3081 -0.2393
 1892TIP3    H127091   2.768   1.734   0.336  0.1473  0.9193 -0.5909
 1892TIP3    H227092   2.750   1.707   0.189 -0.1214 -0.0095 -0.3910
 1893TIP3   OH227093   5.621   6.267  17.101 -0.4693  0.2700  0.0997
 1893TIP3    H127094   5.586   6.334  17.042  0.1536  1.1714  0.7346
 1893TIP3    H227095   5.545   6.219  17.130 -0.8496  0.2188 -0.9521
 1894TIP3   OH227096   5.177   1.493  16.387  0.2249  0.1066  0.4505
 1894TIP3    H127097   5.222   1.542  16.319  0.0035  0.7566  0.7735
 1894TIP3    H227098   5.245   1.475  16.452  0.5447 -0.9194 -0.1553
 1895TIP3   OH227099   5.960   2.486   2.208  0.2954 -0.5173  0.2330
 1895TIP3    H127100   5.886   2.537   2.242 -0.9416 -1.0254 -1.6003
 1895TIP3    H227101   5.939   2.395   2.229  1.0353 -0.5557  0.8337
 1896TIP3   OH227102   1.926   6.699   1.220  0.2556  0.0708 -0.4194
 1896TIP3    H127103   1.894   6.788   1.201  3.3911  0.7132 -3.1605
 1896TIP3    H227104   1.997   6.713   1.283  1.2215 -0.3782 -1.3912
 1897TIP3   OH227105   1.858   2.006  14.500  0.2227  0.6264 -0.0819
 1897TIP3    H127106   1.887   2.013  14.409 -2.1019 -0.1375 -0.8944
 1897TIP3    H227107   1.848   1.912  14.515  1.5263  0.6754  1.3011
 1898TIP3   OH227108   5.417   1.952   5.870  0.0753 -0.6371 -0.5892
 1898TIP3    H127109   5.395   1.897   5.945 -0.2333 -0.9021 -0.8747
 1898TIP3    H227110   5.499   1.915   5.837 -0.7947 -1.7475 -1.5709
 1899TIP3   OH227111   4.357   5.591   0.753 -0.0574  0.0061  0.2809
 1899TIP3    H127112   4.366   5.501   0.786  0.9113 -0.3264 -0.8330
 1899TIP3    H227113   4.291   5.631   0.809 -1.9576 -2.0219 -0.4697
 1900TIP3   OH227114   2.580   1.952   1.601 -0.0949  0.4995  0.0062
 1900TIP3    H127115   2.577   2.044   1.574  0.7215  0.0359 -1.6793
 1900TIP3    H227116   2.669   1.939   1.634  0.2698 -0.0603 -1.1615
 1901TIP3   OH227117   1.800   6.188  14.753  0.4504 -0.2265  0.3729
 1901TIP3    H127118   1.805   6.102  14.795 -1.0522  0.1178  1.3136
 1901TIP3    H227119   1.769   6.170  14.665  0.6900 -0.6916  0.3798
 1902TIP3   OH227120   1.467   1.613   4.894 -0.2470  0.0023  0.1092
 1902TIP3    H127121   1.473   1.690   4.837 -0.4161 -1.5243 -2.0085
 1902TIP3    H227122   1.558   1.595   4.919 -0.1144  0.3899 -0.0821
 1903TIP3   OH227123   3.473   0.103   1.980 -0.1755  0.0493 -0.3226
 1903TIP3    H127124   3.474   0.008   1.981  1.1855 -0.0427 -3.5022
 1903TIP3    H227125   3.542   0.129   2.041  1.1801 -1.0638 -1.3542
 1904TIP3   OH227126   5.234   1.724  14.124  0.1288 -0.1669  0.3658
 1904TIP3    H127127   5.196   1.764  14.046  1.4457  0.4702  0.0372
 1904TIP3    H227128   5.219   1.788  14.193 -2.3056 -1.3431  0.9747
 1905TIP3   OH227129   2.583   4.259   5.906 -0.1237 -0.5457 -0.7785
 1905TIP3    H127130   2.633   4.331   5.946  1.8489 -1.4931 -1.4655
 1905TIP3    H227131   2.576   4.193   5.975  2.7546 -1.9250 -1.7376
 1906TIP3   OH227132   5.660   2.736  14.902 -0.2367  0.1895  0.0304
 1906TIP3    H127133   5.693   2.682  14.973 -0.3502  1.1521  0.8372
 1906TIP3    H227134   5.577   2.695  14.876 -1.0964  0.8338  1.6793
 1907TIP3   OH227135   5.666   2.847   0.865  0.4241 -0.3951 -0.3684
 1907TIP3    H127136   5.675   2.916   0.799  2.4135 -0.3696 -0.0758
 1907TIP3    H227137   5.606   2.885   0.930 -0.3126  0.1684 -1.3577
 1908TIP3   OH227138   5.517   0.026   1.690 -0.0308 -0.1643 -0.3200
 1908TIP3    H127139   5.588   0.076   1.650  0.7788  0.1371  1.4341
 1908TIP3    H227140   5.551  -0.064   1.694  0.5327  0.0955  1.0986
 1909TIP3   OH227141   6.124   2.322  16.750 -0.8417  0.2221  0.5858
 1909TIP3    H127142   6.078   2.259  16.805 -0.0258  0.1827  1.2317
 1909TIP3    H227143   6.213   2.288  16.743 -1.0677 -0.0806 -1.2430
 1910TIP3   OH227144   1.771   1.062  16.306 -0.2603  0.4729  0.0423
 1910TIP3    H127145   1.806   1.028  16.389 -0.9398 -0.5823 -0.1052
 1910TIP3    H227146   1.798   0.999  16.240 -0.5033  0.8383 -0.4105
 1911TIP3   OH227147   0.503   3.382   4.149 -0.0340  0.6981  0.0245
 1911TIP3    H127148   0.448   3.305   4.140 -2.0499  1.4403  4.5998
 1911TIP3    H227149   0.592   3.350   4.134 -1.0162 -2.0496 -0.1529
 1912TIP3   OH227150   3.212   2.068  10.683 -0.0015  0.0490 -0.2264
 1912TIP3    H127151   3.137   2.128  10.684 -0.0856 -0.0338 -1.1388
 1912TIP3    H227152   3.179   1.988  10.722  0.2993  0.8103  1.6403
 1913TIP3   OH227153   3.192   1.759  13.519  0.0213 -0.2401 -0.0004
 1913TIP3    H127154   3.217   1.742  13.610 -0.3317 -0.8135 -0.0061
 1913TIP3    H227155   3.267   1.728  13.467  0.2244  0.0915  0.0920
 1914TIP3   OH227156   4.488   5.822  15.389 -0.0767  0.4680 -0.0490
 1914TIP3    H127157   4.458   5.905  15.352 -1.0280  0.0932 -0.1219
 1914TIP3    H227158   4.577   5.840  15.420 -0.2757  1.5017 -0.0858
 1915TIP3   OH227159   1.018   4.780   1.209 -0.3010  0.1778  0.5844
 1915TIP3    H127160   0.979   4.723   1.144 -0.3677  1.8926 -0.9237
 1915TIP3    H227161   1.104   4.743   1.226  0.0277  0.1582 -1.0867
 1916TIP3   OH227162   4.232   6.190  16.839 -0.3336  0.3903 -0.3171
 1916TIP3    H127163   4.318   6.216  16.805 -0.7380  0.6858 -1.1201
 1916TIP3    H227164   4.211   6.256  16.905  0.4084 -0.1272  0.4440
 1917TIP3   OH227165   6.036   0.059  10.716 -0.2005  0.1618  0.6934
 1917TIP3    H127166   6.015   0.134  10.661  1.9361  0.3051  0.0698
 1917TIP3    H227167   6.129   0.068  10.736  0.0946 -2.3019  0.6134
 1918TIP3   OH227168   4.373   2.945   6.716  0.9918 -0.1088 -0.3149
 1918TIP3    H127169   4.343   2.887   6.647  0.1294 -0.0968  0.0391
 1918TIP3    H227170   4.466   2.959   6.698  0.7151  0.0835 -1.6028
 1919TIP3   OH227171   5.272   3.573  16.425  0.5778  0.1723 -0.4280
 1919TIP3    H127172   5.249   3.525  16.345 -3.6407  0.9998  0.1633
 1919TIP3    H227173   5.276   3.506  16.493  1.5441 -0.2092 -0.8615
 1920TIP3   OH227174   4.459   0.076   4.523 -0.5614 -0.0140  0.8249
 1920TIP3    H127175   4.520   0.142   4.491 -0.5484 -1.1152 -1.5063
 1920TIP3    H227176   4.514   0.000   4.543 -1.0374 -0.6726 -0.3364
 1921TIP3   OH227177   0.955   5.394   6.547  0.1192 -0.1516 -0.1487
 1921TIP3    H127178   0.936   5.340   6.624 -0.1368 -0.5760 -0.5016
 1921TIP3    H227179   1.026   5.348   6.502 -2.2179 -1.9492 -2.1479
 1922TIP3   OH227180   2.334   0.575   0.738  0.3242 -0.2411 -0.2311
 1922TIP3    H127181   2.271   0.540   0.800 -0.7986 -0.1510 -1.3005
 1922TIP3    H227182   2.372   0.652   0.782  1.1380 -1.4368  1.1957
 1923TIP3   OH227183   0.646   0.399   0.424  0.1433  0.1188 -0.2341
 1923TIP3    H127184   0.580   0.410   0.492  0.1820 -0.6830 -0.0749
 1923TIP3    H227185   0.653   0.305   0.410  1.0765  0.2049 -0.4276
 1924TIP3   OH227186   6.065   6.018  16.478  0.0721  0.4892  0.1922
 1924TIP3    H127187   6.150   6.043  16.442  0.4890  2.6364  2.5675
 1924TIP3    H227188   6.004   6.028  16.404  1.0854  3.6922 -0.2934
 1925TIP3   OH227189   0.557   3.168   3.943 -0.2936  0.1769  0.3792
 1925TIP3    H127190   0.588   3.101   3.881  2.4314  1.3009  0.4632
 1925TIP3    H227191   0.536   3.244   3.888  0.3449  0.5510  0.6453
 1926TIP3   OH227192   4.662   4.934  14.186  0.0425 -0.4081 -0.1001
 1926TIP3    H127193   4.688   4.846  14.214  0.6500  0.2565  1.4788
 1926TIP3    H227194   4.583   4.919  14.134 -1.2514 -1.7056  2.1504
 1927TIP3   OH227195   4.207   2.282   5.887 -0.5442  0.0163 -0.4325
 1927TIP3    H127196   4.250   2.350   5.834  0.3850 -0.1080  0.1552
 1927TIP3    H227197   4.271   2.260   5.954 -0.5773 -1.9147 -1.0088
 1928TIP3   OH227198   2.389   6.040  12.943 -0.4130  0.1312  0.8868
 1928TIP3    H127199   2.461   5.978  12.929 -0.4453  0.4858 -1.0009
 1928TIP3    H227200   2.406   6.078  13.029  1.6641  0.2269  0.4541
 1929TIP3   OH227201   1.573   3.706  12.733  0.1492  0.1815  0.0485
 1929TIP3    H127202   1.590   3.719  12.826  0.3724  0.9632 -0.1009
 1929TIP3    H227203   1.652   3.664  12.700 -0.1862 -0.6967  0.3324
 1930TIP3   OH227204   3.447   0.978   5.832  0.0767  0.3802 -0.2719
 1930TIP3    H127205   3.394   0.945   5.904 -0.6155  0.3138 -0.8009
 1930TIP3    H227206   3.536   0.950   5.852 -0.1983 -0.1029  0.2771
 1931TIP3   OH227207   0.679   3.928  15.549  0.1610  0.1451 -0.0766
 1931TIP3    H127208   0.751   3.949  15.490  0.8377 -1.5765  0.0981
 1931TIP3    H227209   0.693   3.985  15.625  2.3040 -1.2773  0.6633
 1932TIP3   OH227210   2.300   0.329  12.808  0.1285  0.6880  0.7260
 1932TIP3    H127211   2.355   0.385  12.754  0.0019  0.5653  0.4667
 1932TIP3    H227212   2.232   0.387  12.842 -0.9208  0.3806 -0.8199
 1933TIP3   OH227213   0.175   0.906  13.118  0.4132 -0.3823  0.1971
 1933TIP3    H127214   0.106   0.965  13.086  0.1557  0.0038  1.4414
 1933TIP3    H227215   0.245   0.915  13.054 -0.5479 -0.5125 -0.9044
 1934TIP3   OH227216   5.723   3.375   2.876  0.7059 -0.5381  0.1098
 1934TIP3    H127217   5.734   3.470   2.878  0.6577 -0.5569  2.0360
 1934TIP3    H227218   5.628   3.362   2.871  0.6795 -0.4810  0.4320
 1935TIP3   OH227219   6.207   1.186  17.191 -0.2886 -0.4985  0.0677
 1935TIP3    H127220   6.113   1.201  17.183 -0.2832 -1.3419 -1.8544
 1935TIP3    H227221   6.229   1.131  17.116  1.7051 -0.4921  0.6170
 1936TIP3   OH227222   1.247   0.261  14.916  0.2825 -0.1351 -0.2914
 1936TIP3    H127223   1.255   0.342  14.866 -0.0364 -0.6217 -1.1314
 1936TIP3    H227224   1.263   0.191  14.852 -0.1332 -0.7597  0.2768
 1937TIP3   OH227225   2.843   0.030  12.554  0.0128 -0.6592 -0.0434
 1937TIP3    H127226   2.801  -0.053  12.576 -0.5184 -1.0071 -2.2840
 1937TIP3    H227227   2.887   0.057  12.635 -2.2534 -1.6527  1.5729
 1938TIP3   OH227228   1.717   4.864   0.312  0.1584  0.0275  0.7183
 1938TIP3    H127229   1.666   4.920   0.371  0.0364  0.5787  0.0917
 1938TIP3    H227230   1.746   4.791   0.367  1.4618  1.4008  1.8542
 1939TIP3   OH227231   0.834   0.306  16.293  0.2118 -0.9529 -0.2940
 1939TIP3    H127232   0.813   0.376  16.231 -0.7622 -0.5768  0.4364
 1939TIP3    H227233   0.749   0.265  16.311  0.7364 -2.1132 -0.4677
 1940TIP3   OH227234   6.668   4.666   0.837  0.3361 -0.2847 -0.0817
 1940TIP3    H127235   6.668   4.617   0.755 -1.6723  0.3924 -0.5303
 1940TIP3    H227236   6.631   4.606   0.902 -1.5722  0.3818 -0.5058
 1941TIP3   OH227237   2.825   3.783   4.883 -0.7185  0.4877  0.7790
 1941TIP3    H127238   2.809   3.755   4.793  1.9929 -0.4817  0.5669
 1941TIP3    H227239   2.874   3.711   4.923 -0.9006  1.3856  2.7044
 1942TIP3   OH227240   3.426   3.802   2.886 -0.1309  0.2125  0.4513
 1942TIP3    H127241   3.452   3.894   2.887  0.2263  0.1191  2.6530
 1942TIP3    H227242   3.350   3.799   2.944  0.8348 -1.1245  1.6802
 1943TIP3   OH227243   2.111   2.755   2.214  0.4393 -0.1674  0.4808
 1943TIP3    H127244   2.125   2.749   2.119 -0.7699  1.1715  0.1950
 1943TIP3    H227245   2.195   2.730   2.252  1.2528  0.2707 -0.9667
 1944TIP3   OH227246   6.681   4.955  17.066  0.4029  0.0231  0.7170
 1944TIP3    H127247   6.656   4.871  17.104 -0.7525  0.6148  1.2855
 1944TIP3    H227248   6.658   5.020  17.132  4.0201  0.5770  1.5204
 1945TIP3   OH227249   4.626   1.852   1.044 -0.2930  0.7184 -0.0051
 1945TIP3    H127250   4.694   1.802   1.000  0.5453  1.3689  0.5426
 1945TIP3    H227251   4.550   1.793   1.045 -0.4140  0.7638 -2.4718
 1946TIP3   OH227252   2.788   6.206  11.089 -0.4154 -0.1302 -0.6184
 1946TIP3    H127253   2.740   6.281  11.054  0.4349  0.0821 -1.3151
 1946TIP3    H227254   2.752   6.131  11.043  0.4687  0.1122 -1.7042
 1947TIP3   OH227255   4.291   1.445   0.573  0.3312  0.2730 -0.4114
 1947TIP3    H127256   4.380   1.436   0.537  0.7922 -1.2292  1.0148
 1947TIP3    H227257   4.303   1.497   0.652 -0.0452  0.0399 -0.1995
 1948TIP3   OH227258   5.303   4.786  12.577  0.3209  0.3291 -0.1689
 1948TIP3    H127259   5.230   4.829  12.623 -0.4846  0.5950 -1.6438
 1948TIP3    H227260   5.378   4.843  12.593 -0.3840  1.4614 -0.7703
 1949TIP3   OH227261   3.362   2.028   3.327  0.3430 -0.1456 -0.0304
 1949TIP3    H127262   3.362   2.120   3.299 -1.7301 -0.1553 -0.0866
 1949TIP3    H227263   3.327   1.980   3.252  1.3441 -0.9798  0.0333
 1950TIP3   OH227264   4.966   0.417   4.034 -0.2672  0.0536  0.0090
 1950TIP3    H127265   5.020   0.366   4.094  0.3948  1.3227  0.5170
 1950TIP3    H227266   5.028   0.460   3.976 -0.7851  0.6412 -0.1160
 1951TIP3   OH227267   1.756   0.554  15.987  0.1670 -0.9218  0.2177
 1951TIP3    H127268   1.665   0.536  16.009  0.0191  0.2057  0.5249
 1951TIP3    H227269   1.804   0.541  16.068  0.4035 -2.2729 -0.1179
 1952TIP3   OH227270   2.131   2.082   4.781  0.4022 -0.7395 -0.3080
 1952TIP3    H127271   2.142   2.133   4.701  1.0249  0.1869  0.3478
 1952TIP3    H227272   2.216   2.088   4.825 -0.3056 -0.1744  1.0199
 1953TIP3   OH227273   6.419   1.925   2.232 -0.5359  0.0580  0.1321
 1953TIP3    H127274   6.413   1.905   2.326 -0.3151  0.7025  0.2871
 1953TIP3    H227275   6.505   1.891   2.207 -1.6580 -2.4763 -0.4330
 1954TIP3   OH227276   3.544   1.478  17.051 -0.4507  0.6453 -0.2451
 1954TIP3    H127277   3.568   1.556  17.000 -0.6690  0.4799 -0.5993
 1954TIP3    H227278   3.483   1.511  17.117 -0.6143  0.7596 -0.4536
 1955TIP3   OH227279   2.962   0.159   5.569  0.1346  0.2950 -0.8702
 1955TIP3    H127280   2.962   0.172   5.664  3.4217 -2.6311 -0.3917
 1955TIP3    H227281   2.906   0.083   5.555  1.0471 -0.3391 -1.0897
 1956TIP3   OH227282   6.312   5.847  11.538 -0.8811 -0.2816  0.1098
 1956TIP3    H127283   6.226   5.889  11.542 -0.5672  0.4912 -1.0721
 1956TIP3    H227284   6.306   5.787  11.464  0.2114  1.2143 -1.2329
 1957TIP3   OH227285   0.332   0.909  16.167 -0.3708  0.0325  0.1500
 1957TIP3    H127286   0.334   0.857  16.247  2.3380 -3.0660 -1.7416
 1957TIP3    H227287   0.250   0.885  16.124  0.0281 -1.4139  0.1601
 1958TIP3   OH227288   6.545   2.232   3.700 -0.3817  0.2045  0.3550
 1958TIP3    H127289   6.637   2.206   3.695 -0.1969  1.3668 -4.6421
 1958TIP3    H227290   6.497   2.152   3.683 -0.2461  0.0942  0.4849
 1959TIP3   OH227291   2.833   4.921   2.134  0.1365 -0.3827 -0.0493
 1959TIP3    H127292   2.828   4.979   2.210 -1.4210  0.6928 -0.9413
 1959TIP3    H227293   2.778   4.846   2.158  0.4343 -0.4944  0.2771
 1960TIP3   OH227294   2.894   3.202  14.972 -0.0025 -0.1900  0.4445
 1960TIP3    H127295   2.888   3.218  15.066 -1.4102  1.2755  0.1321
 1960TIP3    H227296   2.813   3.155  14.950  0.1427 -0.1907 -0.1077
 1961TIP3   OH227297   0.932   0.665  16.112 -0.4314  0.0339 -0.2255
 1961TIP3    H127298   0.953   0.709  16.194  0.3639  2.6952 -1.7989
 1961TIP3    H227299   1.018   0.640  16.076 -0.6967 -0.0374 -0.8119
 1962TIP3   OH227300   5.372   0.660  15.683  0.3654  0.0277  0.3111
 1962TIP3    H127301   5.315   0.728  15.649  0.0782 -0.0772  0.5876
 1962TIP3    H227302   5.428   0.704  15.747 -0.7105 -0.2612  1.4613
 1963TIP3   OH227303   1.563   3.260   5.372 -0.0344  0.0695  0.3142
 1963TIP3    H127304   1.550   3.350   5.341  0.8445  0.1649  0.2209
 1963TIP3    H227305   1.633   3.266   5.437 -1.1976 -0.2873  1.6244
 1964TIP3   OH227306   2.737   3.618   5.883  0.3191 -0.5377  0.2499
 1964TIP3    H127307   2.705   3.679   5.816  1.0924  0.4513  0.7776
 1964TIP3    H227308   2.723   3.664   5.966  0.5206 -1.2525  0.6844
 1965TIP3   OH227309   5.503   6.433  13.219 -0.4006  0.2207 -0.1622
 1965TIP3    H127310   5.476   6.349  13.183  0.5691  0.3287 -1.1511
 1965TIP3    H227311   5.522   6.487  13.143 -1.9308  1.6436  0.4438
 1966TIP3   OH227312   1.710   0.829  15.531 -0.0663 -0.1338  0.1799
 1966TIP3    H127313   1.614   0.829  15.530 -0.0885 -2.2639 -1.9993
 1966TIP3    H227314   1.733   0.795  15.618 -1.2472  0.3370  0.6958
 1967TIP3   OH227315   5.881   4.406  13.003 -0.1015 -0.1502 -0.7704
 1967TIP3    H127316   5.949   4.467  13.032 -0.4254  1.1241 -2.5533
 1967TIP3    H227317   5.815   4.410  13.072  1.0097 -0.3569  0.3127
 1968TIP3   OH227318   5.340   1.646  11.652 -0.5444  0.2718  0.1286
 1968TIP3    H127319   5.393   1.572  11.682  0.4600  0.7893 -0.3227
 1968TIP3    H227320   5.257   1.607  11.627  0.0154 -0.7380 -0.2178
 1969TIP3   OH227321   3.513   6.474   0.666 -0.2693 -0.0500 -0.5223
 1969TIP3    H127322   3.495   6.397   0.720  1.5489 -0.2901 -0.2308
 1969TIP3    H227323   3.428   6.498   0.629 -1.5073  0.0049  2.2857
 1970TIP3   OH227324   0.167   0.320  12.649 -0.4502 -0.5121  0.3613
 1970TIP3    H127325   0.228   0.247  12.663 -1.0052 -0.7814  1.4322
 1970TIP3    H227326   0.092   0.280  12.605 -1.1982 -0.8081  1.8661
 1971TIP3   OH227327   4.922   1.393   2.693 -0.1394 -0.3462  0.3088
 1971TIP3    H127328   4.862   1.395   2.619  0.4398 -0.2861 -0.1631
 1971TIP3    H227329   4.975   1.472   2.683  0.9235 -1.0937 -0.0389
 1972TIP3   OH227330   0.425   0.860  11.603  0.2511  0.0852  0.2395
 1972TIP3    H127331   0.371   0.938  11.611  1.8137  1.2348 -0.1781
 1972TIP3    H227332   0.374   0.791  11.645 -0.3030  1.7435  2.3764
 1973TIP3   OH227333   0.952   3.101  15.943  0.6529 -0.0118  0.4105
 1973TIP3    H127334   0.946   3.196  15.950 -0.2702 -0.0550  0.3573
 1973TIP3    H227335   0.880   3.069  15.998 -0.6626 -0.6169 -1.6157
 1974TIP3   OH227336   4.534   2.934   3.956 -1.0160 -0.8301 -0.1476
 1974TIP3    H127337   4.467   3.001   3.955 -0.8588 -0.6458  0.8863
 1974TIP3    H227338   4.598   2.962   3.890 -1.8565 -0.9235 -1.0124
 1975TIP3   OH227339   2.584   0.018   6.540  0.4021 -0.6399  0.0769
 1975TIP3    H127340   2.492   0.039   6.556  0.4972  0.5609 -0.9131
 1975TIP3    H227341   2.632   0.098   6.561  0.8158  0.0564 -3.1839
 1976TIP3   OH227342   3.332   1.960  14.147 -0.2322  0.1867 -0.1057
 1976TIP3    H127343   3.255   1.918  14.185 -0.9983  1.7020  0.0612
 1976TIP3    H227344   3.335   1.927  14.057 -0.3844 -0.7839  0.2403
 1977TIP3   OH227345   1.526   6.734  12.248 -0.2768 -0.0886  0.3037
 1977TIP3    H127346   1.553   6.648  12.217  1.8367  0.9646 -0.8731
 1977TIP3    H227347   1.448   6.755  12.197 -0.2991 -0.9342 -0.0077
 1978TIP3   OH227348   4.028   6.436   0.872  0.3538  0.0953 -0.0406
 1978TIP3    H127349   3.993   6.385   0.945  0.1048 -1.2784 -1.1118
 1978TIP3    H227350   4.075   6.509   0.915 -0.6909 -0.0813  1.4591
 1979TIP3   OH227351   2.650   1.586   3.169 -0.6491 -0.5497 -0.9488
 1979TIP3    H127352   2.623   1.678   3.164 -1.0438 -0.5117  1.3827
 1979TIP3    H227353   2.570   1.536   3.156 -0.4781 -0.5763 -1.9540
 1980TIP3   OH227354   6.246   2.102   4.166  0.2736  0.2138  0.2646
 1980TIP3    H127355   6.326   2.073   4.123  0.8921  1.0574  0.8274
 1980TIP3    H227356   6.197   2.148   4.098  0.3480 -0.1546 -0.0351
 1981TIP3   OH227357   3.147   5.765  14.316  0.3950 -0.1708 -0.1114
 1981TIP3    H127358   3.109   5.691  14.364  0.2519  0.4663  0.7674
 1981TIP3    H227359   3.221   5.727  14.269 -0.2919 -1.0776 -0.4803
 1982TIP3   OH227360   1.852   6.412   0.471  0.0608 -0.0117  0.3337
 1982TIP3    H127361   1.904   6.484   0.507 -0.4285 -0.3685  1.8038
 1982TIP3    H227362   1.772   6.412   0.524  0.3561 -2.0672  0.8306
 1983TIP3   OH227363   6.690   6.074  16.723 -0.2765 -0.1571  0.6460
 1983TIP3    H127364   6.748   5.998  16.719 -0.6991 -0.4333 -0.2729
 1983TIP3    H227365   6.744   6.148  16.696  0.0503 -0.1772  1.2413
 1984TIP3   OH227366   2.510   4.081   3.359  0.2991 -0.0842  0.2436
 1984TIP3    H127367   2.490   4.000   3.312  0.0863 -0.6864  1.3503
 1984TIP3    H227368   2.466   4.071   3.444  2.3809  0.0970  1.3804
 1985TIP3   OH227369   1.748   0.371   3.315  0.2908  0.5151  0.4577
 1985TIP3    H127370   1.799   0.293   3.292 -0.7955 -0.1983  0.4492
 1985TIP3    H227371   1.707   0.397   3.232 -2.1255 -0.9584  1.1310
 1986TIP3   OH227372   1.021   4.933  12.941 -0.4126 -0.5421  0.3384
 1986TIP3    H127373   0.974   4.852  12.956 -0.4487 -0.5259  0.3111
 1986TIP3    H227374   0.962   5.001  12.973 -1.0401 -0.4046 -1.0713
 1987TIP3   OH227375   0.671   3.623   5.154  0.0958  0.6426  0.4356
 1987TIP3    H127376   0.592   3.599   5.107  0.4565  1.1176 -0.4244
 1987TIP3    H227377   0.729   3.660   5.087  0.9160  0.5987  1.1084
 1988TIP3   OH227378   4.102   4.584   4.319  0.0351  0.3036 -0.0428
 1988TIP3    H127379   4.057   4.543   4.245  2.6778 -1.0033 -1.0093
 1988TIP3    H227380   4.105   4.517   4.387 -1.6127  1.2118  0.9582
 1989TIP3   OH227381   3.200   6.688   1.202  0.3641  0.2300 -0.0845
 1989TIP3    H127382   3.268   6.624   1.225  0.1816 -0.1289 -0.5236
 1989TIP3    H227383   3.226   6.768   1.246  0.0618 -0.4225  1.3132
 1990TIP3   OH227384   1.578   6.603   2.130  0.0078 -0.3945  0.1897
 1990TIP3    H127385   1.663   6.559   2.128 -0.3146 -0.9460 -1.8276
 1990TIP3    H227386   1.517   6.541   2.091 -1.3479  0.0099  1.5911
 1991TIP3   OH227387   4.017   5.842   4.693  0.2771  0.1995 -0.1266
 1991TIP3    H127388   3.938   5.896   4.691  0.7102  0.8037 -1.6498
 1991TIP3    H227389   4.035   5.823   4.601  2.2408  0.5754  0.1691
 1992TIP3   OH227390   1.350   5.346   4.326  0.1570 -0.6969 -0.0163
 1992TIP3    H127391   1.381   5.257   4.310  0.4855 -0.5080 -0.4488
 1992TIP3    H227392   1.256   5.337   4.341 -0.0139 -0.9851 -1.1902
 1993TIP3   OH227393   5.417   3.167  13.675 -0.0895 -0.6674  0.2343
 1993TIP3    H127394   5.395   3.258  13.694 -0.5167 -0.4849 -1.0819
 1993TIP3    H227395   5.491   3.148  13.733  0.4459  0.7244  0.0455
 1994TIP3   OH227396   1.204   1.758   1.321 -0.1770  0.3730 -0.1143
 1994TIP3    H127397   1.154   1.709   1.255  1.4830  2.0967 -2.6906
 1994TIP3    H227398   1.145   1.828   1.349 -0.5029  0.2536 -0.5066
 1995TIP3   OH227399   4.732   0.572  17.027 -0.4637  0.1177  0.8602
 1995TIP3    H127400   4.667   0.586  16.958 -0.0990 -1.2489  0.2325
 1995TIP3    H227401   4.816   0.594  16.986 -0.3324  0.0883  1.1126
 1996TIP3   OH227402   0.234   5.097   0.142  0.2085 -0.1649 -0.4938
 1996TIP3    H127403   0.281   5.035   0.086  4.0173  0.5097  1.8014
 1996TIP3    H227404   0.223   5.051   0.225 -1.4352  0.4651 -0.3293
 1997TIP3   OH227405   2.118   3.473   5.036  0.2776  0.1829  0.3346
 1997TIP3    H127406   2.058   3.398   5.035  0.7879 -0.2223  0.3494
 1997TIP3    H227407   2.196   3.441   5.080  1.5946 -0.0915 -2.1459
 1998TIP3   OH227408   2.083   6.415   0.960 -0.1934 -0.4566  0.2026
 1998TIP3    H127409   2.126   6.491   0.997  0.3212 -0.7629  0.2359
 1998TIP3    H227410   2.152   6.370   0.911 -0.3830 -1.1476  0.5679
 1999TIP3   OH227411   2.090   2.413  14.283  0.2143  0.0308 -0.0745
 1999TIP3    H127412   2.145   2.354  14.232 -0.6604  0.2153 -1.2531
 1999TIP3    H227413   2.007   2.367  14.294 -0.0110  0.4837  0.1626
 2000TIP3   OH227414   5.777   1.671  15.627 -0.4299  0.6767 -0.1764
 2000TIP3    H127415   5.726   1.727  15.569 -0.2097  1.1698  0.0992
 2000TIP3    H227416   5.825   1.613  15.568  0.2542  1.5726 -0.5234
 2001TIP3   OH227417   0.579   6.006   2.341  0.3679 -0.0531  0.5104
 2001TIP3    H127418   0.525   5.998   2.419  0.8622  1.3365  1.0181
 2001TIP3    H227419   0.516   6.009   2.269 -0.1863  0.3828  1.0037
 2002TIP3   OH227420   4.941   1.709  13.526 -0.4539 -0.0331 -0.1882
 2002TIP3    H127421   4.887   1.763  13.584  1.8281  0.3596  1.6534
 2002TIP3    H227422   4.974   1.639  13.583 -0.9672 -1.7007 -1.8624
 2003TIP3   OH227423   6.739   3.661   3.082 -0.5771  0.2183 -0.2298
 2003TIP3    H127424   6.680   3.725   3.123 -0.2989 -0.1249  0.7235
 2003TIP3    H227425   6.810   3.651   3.145  0.5912  0.7567 -1.4437
 2004TIP3   OH227426   0.577   2.699  15.312  0.1411  0.2580  0.7040
 2004TIP3    H127427   0.500   2.679  15.258  0.3359  1.1424  0.0756
 2004TIP3    H227428   0.542   2.710  15.400 -0.7760  2.5601  0.1014
 2005TIP3   OH227429   5.852   4.287  15.908 -0.8886  0.0984  0.1520
 2005TIP3    H127430   5.921   4.351  15.894 -0.9947  0.8020  2.6666
 2005TIP3    H227431   5.790   4.302  15.836  0.7868  0.4855 -1.2362
 2006TIP3   OH227432   2.355   4.658   2.162 -0.0679 -0.0988  0.1106
 2006TIP3    H127433   2.261   4.646   2.173 -0.1703  0.3522 -0.2864
 2006TIP3    H227434   2.394   4.595   2.223 -0.6297  0.9712  1.6137
 2007TIP3   OH227435   2.502   2.233  12.956  0.2966  0.3053 -0.1808
 2007TIP3    H127436   2.474   2.142  12.962  3.4693 -0.7521 -0.6199
 2007TIP3    H227437   2.597   2.228  12.944  0.2456  3.5948 -2.5809
 2008TIP3   OH227438   5.188   4.394   1.293  0.0618 -0.2619 -0.0852
 2008TIP3    H127439   5.159   4.485   1.297 -0.2690 -0.3549 -0.3021
 2008TIP3    H227440   5.110   4.346   1.263 -0.2514 -0.8453  1.6149
 2009TIP3   OH227441   3.473   4.228   1.108 -0.1376 -0.3414  0.2701
 2009TIP3    H127442   3.414   4.158   1.135  0.4682 -0.1923  2.0610
 2009TIP3    H227443   3.453   4.300   1.168 -0.8485  1.0919 -1.6320
 2010TIP3   OH227444   4.791   0.248  12.638  0.3183 -0.2372 -0.1777
 2010TIP3    H127445   4.878   0.211  12.622 -0.0922 -1.6654  0.7556
 2010TIP3    H227446   4.734   0.172  12.647 -0.9356  0.6775 -0.2341
 2011TIP3   OH227447   5.542   4.826   5.932  0.1284  0.0661 -0.9111
 2011TIP3    H127448   5.632   4.840   5.903  0.7919 -1.8045  0.1579
 2011TIP3    H227449   5.508   4.914   5.948  1.0998  0.9054 -3.2398
 2012TIP3   OH227450   3.217   0.756   3.193  0.0041  0.6158 -0.3639
 2012TIP3    H127451   3.171   0.675   3.216 -0.1304  0.7450 -0.1820
 2012TIP3    H227452   3.236   0.746   3.099 -0.2972  0.5121 -0.4158
 2013TIP3   OH227453   1.526   2.090   4.197  0.4560 -0.3852  0.2718
 2013TIP3    H127454   1.580   2.083   4.276  1.6522  0.9358 -0.4097
 2013TIP3    H227455   1.436   2.073   4.228  1.0507 -1.0343  1.6949
 2014TIP3   OH227456   4.611   0.667   2.175 -0.4064  0.0091 -0.3107
 2014TIP3    H127457   4.626   0.600   2.242  0.4719  0.2239 -0.2897
 2014TIP3    H227458   4.521   0.696   2.190  0.0799  0.6892  1.3411
 2015TIP3   OH227459   5.951   1.683  16.050 -0.0392  0.2988 -0.0733
 2015TIP3    H127460   5.940   1.712  15.960  1.0775  2.1058  0.3391
 2015TIP3    H227461   5.882   1.618  16.063 -0.7043  0.5940 -1.9776
 2016TIP3   OH227462   3.977   0.607  11.526 -0.4627 -0.3024  0.1229
 2016TIP3    H127463   3.989   0.589  11.433  0.3442 -1.3923  0.4327
 2016TIP3    H227464   3.882   0.603  11.539 -0.7221  1.5894 -0.9884
 2017TIP3   OH227465   3.747   5.362  14.045 -0.3784 -0.1677  0.0236
 2017TIP3    H127466   3.697   5.396  14.119  2.1659  0.9464  1.2655
 2017TIP3    H227467   3.718   5.271  14.037 -0.3933 -0.4365  2.6647
 2018TIP3   OH227468   4.411   6.166   4.947  0.4364 -0.3186  0.6814
 2018TIP3    H127469   4.495   6.142   4.909  0.6733 -0.0344  1.0280
 2018TIP3    H227470   4.387   6.248   4.902 -0.2328 -1.0358 -0.2893
 2019TIP3   OH227471   1.614   4.304  16.460  0.1362  0.0480 -0.2172
 2019TIP3    H127472   1.648   4.340  16.378 -0.1004 -1.1271 -0.8585
 2019TIP3    H227473   1.519   4.313  16.453  0.2556  3.0143  1.4215
 2020TIP3   OH227474   3.033   4.209   4.616  0.1397  0.6604  0.0215
 2020TIP3    H127475   3.102   4.254   4.566 -0.5323  2.8413  0.9816
 2020TIP3    H227476   2.952   4.254   4.590 -0.7398 -0.8581  0.0622
 2021TIP3   OH227477   3.981   0.562  15.109 -0.2446  0.0759 -0.1051
 2021TIP3    H127478   4.008   0.651  15.084 -0.0389  0.0821  0.1358
 2021TIP3    H227479   4.010   0.553  15.200 -2.5408  0.6826  0.7233
 2022TIP3   OH227480   6.761   2.018   3.099  0.3364 -0.0883  0.6685
 2022TIP3    H127481   6.679   1.969   3.104  0.6786 -0.7771 -0.2603
 2022TIP3    H227482   6.740   2.106   3.130 -1.5610  0.7861 -2.9035
 2023TIP3   OH227483   1.366   3.729  15.096 -0.2530  0.0135 -0.3778
 2023TIP3    H127484   1.293   3.791  15.095 -0.5862 -0.3905 -1.3889
 2023TIP3    H227485   1.353   3.679  15.177 -0.7012  0.4140 -0.2023
 2024TIP3   OH227486   2.483   1.154  13.841  0.4405  0.5427 -0.1500
 2024TIP3    H127487   2.449   1.068  13.815 -0.1634  1.2336 -1.7423
 2024TIP3    H227488   2.544   1.178  13.771 -0.6921  2.1411 -0.6243
 2025TIP3   OH227489   2.012   1.042  15.768 -0.1867  0.5107 -0.4325
 2025TIP3    H127490   2.066   1.117  15.745  0.6624  0.4413  1.2454
 2025TIP3    H227491   2.061   0.966  15.738  0.5584  0.4590  0.8992
 2026TIP3   OH227492   0.903   2.645  14.054 -0.2716  0.1292 -1.0148
 2026TIP3    H127493   0.975   2.705  14.035 -0.8936  1.0510 -0.5514
 2026TIP3    H227494   0.907   2.633  14.149  0.5504 -1.4918 -1.2431
 2027TIP3   OH227495   1.620   4.720  14.301 -0.0396 -0.2254 -0.1352
 2027TIP3    H127496   1.652   4.761  14.381 -0.9708 -1.2409  0.7629
 2027TIP3    H227497   1.678   4.645  14.288 -1.3651 -1.4639  0.9286
 2028TIP3   OH227498   4.707   5.068  14.420 -0.1865  0.4396 -0.4158
 2028TIP3    H127499   4.732   5.158  14.400 -2.0234  1.1195  0.2896
 2028TIP3    H227500   4.696   5.027  14.335  2.0173  0.4651 -0.7508
 2029TIP3   OH227501   5.750   4.305  15.031 -0.0272  0.2160  0.3150
 2029TIP3    H127502   5.771   4.213  15.018 -0.6850  0.0717  0.2805
 2029TIP3    H227503   5.819   4.352  14.983  0.2669 -0.2547  0.2774
 2030TIP3   OH227504   3.694   6.495   4.107 -0.1873  0.0375  0.0587
 2030TIP3    H127505   3.686   6.519   4.199 -0.5267 -1.1839  0.3584
 2030TIP3    H227506   3.785   6.464   4.098  0.5184  2.1711 -0.5208
 2031TIP3   OH227507   1.550   2.079   3.497  0.4173  0.1302  0.3099
 2031TIP3    H127508   1.629   2.087   3.442  0.1455  1.1678  0.0594
 2031TIP3    H227509   1.482   2.125   3.447 -0.4036 -0.9665  0.4191
 2032TIP3   OH227510   4.535   2.527   2.882  0.2220 -0.4112 -0.0680
 2032TIP3    H127511   4.523   2.580   2.804  0.4661 -0.6763 -0.2910
 2032TIP3    H227512   4.456   2.473   2.887  1.0448 -1.7946 -1.2474
 2033TIP3   OH227513   2.330   2.727   5.929  0.5166 -0.0731 -0.9320
 2033TIP3    H127514   2.365   2.642   5.957  0.8048  1.3392  3.2839
 2033TIP3    H227515   2.395   2.791   5.959 -0.0958  1.7466 -3.3368
 2034TIP3   OH227516   2.193   4.824  12.840 -0.5987 -0.5661 -0.0188
 2034TIP3    H127517   2.257   4.824  12.911  0.1902 -2.1054 -0.6819
 2034TIP3    H227518   2.243   4.856  12.764 -1.3072  0.6342  0.0230
 2035TIP3   OH227519   0.991   2.364  12.777  0.9076 -0.2331  0.6810
 2035TIP3    H127520   1.022   2.324  12.696  0.9757 -0.4036  0.7916
 2035TIP3    H227521   0.896   2.368  12.767  1.0263  1.1820 -0.0764
 2036TIP3   OH227522   3.594   4.074  15.617  0.2876 -0.6579 -0.0431
 2036TIP3    H127523   3.647   4.086  15.539 -0.8783  1.8187 -0.4991
 2036TIP3    H227524   3.612   4.151  15.671 -3.1652  0.5181 -0.4249
 2037TIP3   OH227525   1.161   3.356  10.936 -0.1593  0.0648 -0.3336
 2037TIP3    H127526   1.255   3.372  10.948 -0.4249  0.4650  1.3125
 2037TIP3    H227527   1.122   3.443  10.930 -0.7121 -0.0482  1.3948
 2038TIP3   OH227528   0.654   4.697   0.134 -0.1752 -0.2131  0.0819
 2038TIP3    H127529   0.635   4.670   0.044 -0.9744 -0.0192  0.1963
 2038TIP3    H227530   0.716   4.770   0.125  1.5492 -1.6901 -0.2465
 2039TIP3   OH227531   1.396   3.252   1.364 -0.1354  0.0804 -0.4454
 2039TIP3    H127532   1.309   3.246   1.404 -0.5707  2.0438 -1.0368
 2039TIP3    H227533   1.451   3.290   1.432 -0.4774  1.7818 -1.0954
 2040TIP3   OH227534   1.103   2.872  14.856 -0.4822 -0.0630  0.2455
 2040TIP3    H127535   1.189   2.914  14.851 -0.2068 -0.5439  0.8579
 2040TIP3    H227536   1.092   2.852  14.949 -0.9982 -0.5431  0.0810
 2041TIP3   OH227537   1.225   5.547  14.632  0.0612 -0.9666 -0.2697
 2041TIP3    H127538   1.169   5.617  14.666  0.8650 -0.1104 -0.6940
 2041TIP3    H227539   1.296   5.540  14.697  0.9669 -0.1268 -1.1463
 2042TIP3   OH227540   3.013   6.545  13.424  0.5889  0.1653 -0.3233
 2042TIP3    H127541   3.061   6.548  13.507  1.3707  3.5541 -0.8477
 2042TIP3    H227542   2.928   6.508  13.448  1.3959 -0.5008  1.6636
 2043TIP3   OH227543   1.582   2.946   1.822  0.3203  0.1568  0.0224
 2043TIP3    H127544   1.504   3.000   1.832  0.5028  0.3011  0.7241
 2043TIP3    H227545   1.599   2.913   1.911 -0.6664 -2.2542 -0.6534
 2044TIP3   OH227546   1.945   5.424  17.005 -0.0328  0.3272  0.3246
 2044TIP3    H127547   1.980   5.506  17.040  0.0583  0.1779  0.5819
 2044TIP3    H227548   1.948   5.363  17.078 -1.0113  0.3607  0.3965
 2045TIP3   OH227549   3.699   0.432   0.500 -0.8933 -0.4112  0.4414
 2045TIP3    H127550   3.733   0.521   0.489  0.6424 -1.2727 -2.2649
 2045TIP3    H227551   3.693   0.421   0.595  0.4535  2.0060  0.8611
 2046TIP3   OH227552   4.168   2.810   4.067  0.0534  0.5420  0.1529
 2046TIP3    H127553   4.162   2.798   4.162 -1.3056 -3.8703 -0.3725
 2046TIP3    H227554   4.255   2.778   4.043 -1.2861 -2.7920 -0.5445
 2047TIP3   OH227555   2.144   0.167  12.005 -0.0319  0.3329  0.4640
 2047TIP3    H127556   2.141   0.237  12.071 -4.0414 -1.6721  2.5973
 2047TIP3    H227557   2.072   0.187  11.946  1.3843  0.2035 -1.3334
 2048TIP3   OH227558   2.504   6.227   4.889  0.0316 -0.2326  0.1813
 2048TIP3    H127559   2.483   6.314   4.921 -0.1282 -1.1336  2.6517
 2048TIP3    H227560   2.422   6.193   4.853 -0.6451 -0.4468  1.8845
 2049TIP3   OH227561   0.335   5.992  13.200  0.0937  0.0602  0.2476
 2049TIP3    H127562   0.357   5.994  13.293 -1.7892  2.0237  0.6858
 2049TIP3    H227563   0.396   6.055  13.160 -0.1814  0.4266  0.4043
 2050TIP3   OH227564   6.286   5.173   2.474 -0.8282  0.8011  0.3987
 2050TIP3    H127565   6.291   5.209   2.385 -2.1059 -0.6101 -0.2665
 2050TIP3    H227566   6.193   5.154   2.486 -0.4344 -0.4996  1.4472
 2051TIP3   OH227567   5.966   2.348  16.360  0.4704 -0.4452  0.6743
 2051TIP3    H127568   5.961   2.431  16.312 -5.0421 -1.4425 -0.8478
 2051TIP3    H227569   5.940   2.370  16.449 -2.4562 -0.6294 -0.0678
 2052TIP3   OH227570   4.460   4.750   3.638 -0.6035 -0.2176  0.1312
 2052TIP3    H127571   4.473   4.840   3.609  0.3210 -0.7911 -1.3104
 2052TIP3    H227572   4.509   4.697   3.574 -3.0819 -1.9023 -0.4267
 2053TIP3   OH227573   3.774   4.020  13.800  0.2407 -0.4407 -0.0346
 2053TIP3    H127574   3.817   4.092  13.847  0.2335  0.7094 -1.7484
 2053TIP3    H227575   3.681   4.034  13.817  0.0795  1.2203 -2.0490
 2054TIP3   OH227576   4.167   3.788  13.882  0.2865 -0.2248  0.3996
 2054TIP3    H127577   4.118   3.724  13.831  1.5175  0.3222 -1.5386
 2054TIP3    H227578   4.165   3.868  13.828 -0.0336  0.9480  2.1219
 2055TIP3   OH227579   4.910   6.759  12.095 -0.2440 -0.0808  0.1740
 2055TIP3    H127580   4.929   6.833  12.152 -0.7347 -0.2130  0.5025
 2055TIP3    H227581   4.853   6.795  12.027 -1.3696 -0.4055  0.9425
 2056TIP3   OH227582   4.698   0.684   2.878  0.8697  0.9237  0.2132
 2056TIP3    H127583   4.760   0.654   2.944  1.3454 -0.1988 -0.7364
 2056TIP3    H227584   4.668   0.769   2.911  1.4251  0.5767  1.6499
 2057TIP3   OH227585   6.636   4.921   0.737  0.2148  0.2575 -0.3483
 2057TIP3    H127586   6.569   4.951   0.798 -0.6308 -2.1609 -0.0170
 2057TIP3    H227587   6.656   4.832   0.766  3.2384  0.7841 -0.7573
 2058TIP3   OH227588   2.478   6.545  13.828 -0.1687 -0.6406 -0.1512
 2058TIP3    H127589   2.435   6.628  13.805 -1.5892 -1.3106  0.0296
 2058TIP3    H227590   2.527   6.521  13.749  1.0816  0.8645  0.1313
 2059TIP3   OH227591   2.809   5.823  15.178  0.5865 -0.3375  0.4463
 2059TIP3    H127592   2.758   5.742  15.185 -1.0581  0.7212  1.0541
 2059TIP3    H227593   2.826   5.848  15.269  0.0793  0.6216  0.2771
 2060TIP3   OH227594   1.332   5.520  14.879 -0.3913 -0.2923 -0.2564
 2060TIP3    H127595   1.415   5.537  14.924 -0.8465  1.9648 -0.1889
 2060TIP3    H227596   1.318   5.426  14.889  1.9131 -0.6413  0.1453
 2061TIP3   OH227597   2.069   5.498   3.288  0.4934  0.6734  0.1828
 2061TIP3    H127598   2.150   5.536   3.322  0.3391 -0.4500  1.9275
 2061TIP3    H227599   2.025   5.465   3.367 -0.5177 -0.8547 -1.0055
 2062TIP3   OH227600   0.922   5.441  14.725  0.2939 -0.2992 -0.1676
 2062TIP3    H127601   0.874   5.464  14.646  0.1786  1.8704  0.5202
 2062TIP3    H227602   1.013   5.432  14.697 -0.1990 -2.6291 -1.1225
 2063TIP3   OH227603   1.891   3.096  12.718  0.2855 -0.0424  0.4128
 2063TIP3    H127604   1.895   3.066  12.809  0.6869 -0.1668  0.3540
 2063TIP3    H227605   1.980   3.122  12.698  0.1324  0.2686  0.1483
 2064TIP3   OH227606   3.112   0.503   0.189 -0.4619  0.0552 -0.2274
 2064TIP3    H127607   3.088   0.596   0.191 -0.0862  0.1945 -1.5052
 2064TIP3    H227608   3.084   0.469   0.274 -0.3732  1.3937  0.3550
 2065TIP3   OH227609   0.411   0.437   4.146  0.1569 -0.2934 -0.5865
 2065TIP3    H127610   0.407   0.343   4.160 -0.8570 -0.4507 -1.8827
 2065TIP3    H227611   0.402   0.448   4.052 -0.2135  1.1272 -0.3937
 2066TIP3   OH227612   3.715   0.615   1.446 -0.1899 -0.4566  0.9227
 2066TIP3    H127613   3.773   0.565   1.388 -0.1753  0.7468 -0.1143
 2066TIP3    H227614   3.629   0.576   1.434 -0.2090 -0.1339 -0.0081
 2067TIP3   OH227615   3.914   5.722  14.167 -0.4194  0.4458 -0.0703
 2067TIP3    H127616   3.894   5.693  14.078 -0.2253  0.0614  0.0108
 2067TIP3    H227617   3.919   5.818  14.160 -1.8924  0.5403 -0.1781
 2068TIP3   OH227618   2.483   0.332   3.255  0.2399  0.7170 -0.1842
 2068TIP3    H127619   2.504   0.299   3.342  1.0103  0.8076 -0.3272
 2068TIP3    H227620   2.451   0.421   3.270  0.1119  0.6349  0.0303
 2069TIP3   OH227621   0.988   1.197  16.673  0.3035  0.3248 -0.3827
 2069TIP3    H127622   1.045   1.238  16.609  0.1442 -1.0961 -1.4784
 2069TIP3    H227623   1.011   1.237  16.757  0.9291  1.7746 -1.2397
 2070TIP3   OH227624   6.466   2.299  14.877 -0.2591 -0.0029 -0.3858
 2070TIP3    H127625   6.548   2.325  14.834 -1.0751  1.1629 -1.2565
 2070TIP3    H227626   6.442   2.217  14.834  0.5585 -0.4668  0.0256
 2071TIP3   OH227627   1.461   1.644   2.134  0.1802 -0.0408  0.2374
 2071TIP3    H127628   1.472   1.553   2.160  0.9991 -0.0885 -0.2493
 2071TIP3    H227629   1.384   1.644   2.078  0.3250 -0.4799  0.0353
 2072TIP3   OH227630   5.619   4.946   4.580  0.1155  0.2613 -0.1430
 2072TIP3    H127631   5.620   4.944   4.484  3.6777  2.3017 -0.2374
 2072TIP3    H227632   5.670   4.869   4.606 -0.3202  0.0629  0.1423
 2073TIP3   OH227633   0.152   3.328   3.975  0.2506  0.4173  0.1619
 2073TIP3    H127634   0.121   3.418   3.983 -0.5745  0.1465  0.0851
 2073TIP3    H227635   0.187   3.321   3.886 -0.6222  0.3770 -0.1806
 2074TIP3   OH227636   1.669   4.978  13.940  0.2062 -0.1570  0.3579
 2074TIP3    H127637   1.652   5.072  13.946  1.8698  0.0701  1.9337
 2074TIP3    H227638   1.729   4.968  13.866 -1.8452 -0.2898 -1.3504
 2075TIP3   OH227639   0.054   1.961  14.629 -0.3352  0.3887 -0.6238
 2075TIP3    H127640   0.042   1.867  14.639 -0.6182  0.5355  0.4201
 2075TIP3    H227641   0.019   1.999  14.709 -0.2277  1.3874 -1.0383
 2076TIP3   OH227642   1.226   6.606  11.003 -0.6356  1.0143  0.1360
 2076TIP3    H127643   1.213   6.623  10.910 -0.9554  1.3160  0.2332
 2076TIP3    H227644   1.303   6.658  11.027  0.3234 -0.2154 -0.2821
 2077TIP3   OH227645   5.864   4.248  14.324  0.3159  0.7248 -0.5413
 2077TIP3    H127646   5.819   4.164  14.332 -0.8438  1.2526 -1.3509
 2077TIP3    H227647   5.936   4.243  14.387 -0.3878 -0.4462  0.1913
 2078TIP3   OH227648   5.107   4.095  15.166 -0.4996 -0.0536  0.2183
 2078TIP3    H127649   5.083   4.176  15.210  1.3276  1.2778 -1.1655
 2078TIP3    H227650   5.172   4.055  15.223 -0.5397  0.0326  0.3259
 2079TIP3   OH227651   5.766   4.812  11.626  0.1587 -0.4128  0.1929
 2079TIP3    H127652   5.724   4.831  11.710  1.7383  0.3501  0.8420
 2079TIP3    H227653   5.718   4.863  11.562  1.5403  2.3475  1.2648
 2080TIP3   OH227654   1.515   0.568  14.699  0.0215  0.1919  0.1707
 2080TIP3    H127655   1.576   0.618  14.645  1.3822  0.2362  1.7236
 2080TIP3    H227656   1.559   0.485  14.715 -0.7235 -0.1378  0.5445
 2081TIP3   OH227657   0.541   1.374  11.683  0.4214 -0.3925 -0.2031
 2081TIP3    H127658   0.597   1.427  11.740  1.1341 -2.0755  0.7089
 2081TIP3    H227659   0.531   1.291  11.730 -2.5048 -0.2928 -0.5611
 2082TIP3   OH227660   1.259   0.865   2.672  0.7870  0.7626 -0.3182
 2082TIP3    H127661   1.231   0.879   2.581  2.6170 -1.3632 -1.2460
 2082TIP3    H227662   1.235   0.774   2.690  2.4782  0.4871  0.5616
 2083TIP3   OH227663   0.654   4.182   2.539 -0.4272  0.6305 -0.2352
 2083TIP3    H127664   0.739   4.141   2.521  0.4407  1.6375  1.4330
 2083TIP3    H227665   0.595   4.109   2.554  1.0664 -0.1012  2.5212
 2084TIP3   OH227666   3.413   3.255   5.457  0.0987  0.3739 -0.1633
 2084TIP3    H127667   3.424   3.346   5.429 -1.8159  0.5045 -0.5345
 2084TIP3    H227668   3.410   3.205   5.375  1.6324 -0.0949  0.0513
 2085TIP3   OH227669   6.025   6.443  10.055 -0.4119 -0.2957 -0.2925
 2085TIP3    H127670   6.026   6.351  10.028  0.1438 -0.2938 -0.2867
 2085TIP3    H227671   5.978   6.443  10.139  2.2700 -1.0236  1.2694
 2086TIP3   OH227672   4.241   6.148   1.686  0.2663  0.2233  0.4241
 2086TIP3    H127673   4.172   6.126   1.748 -0.3437  1.3806  0.1738
 2086TIP3    H227674   4.255   6.242   1.698  1.0249  0.2118 -0.3069
 2087TIP3   OH227675   0.715   3.258  14.592 -0.3068  0.4948 -0.3905
 2087TIP3    H127676   0.694   3.320  14.522 -1.0068  0.6234 -0.0725
 2087TIP3    H227677   0.805   3.231  14.574 -0.2715  0.9958 -0.9866
 2088TIP3   OH227678   1.608   6.128   6.069 -0.3590  0.8122  0.0209
 2088TIP3    H127679   1.549   6.055   6.048 -0.7806  0.6098  1.8247
 2088TIP3    H227680   1.677   6.088   6.122 -0.0329  1.5492  0.1574
 2089TIP3   OH227681   2.530   4.938   6.127 -0.1585 -0.1437  0.5091
 2089TIP3    H127682   2.542   4.910   6.218 -0.8616 -1.1526  0.3036
 2089TIP3    H227683   2.438   4.964   6.121  0.3100  1.5613  0.5057
 2090TIP3   OH227684   5.754   0.045  14.547  0.2281 -0.1498 -0.3182
 2090TIP3    H127685   5.762   0.121  14.604  0.1989  0.1827 -0.7607
 2090TIP3    H227686   5.844   0.016  14.534  0.3233  0.5171 -1.1150
 2091TIP3   OH227687   6.228   0.418  11.527 -0.1281  0.3120  0.0782
 2091TIP3    H127688   6.246   0.419  11.433  2.7809 -1.9886  0.5318
 2091TIP3    H227689   6.289   0.482  11.564  2.1323 -2.1966  0.8502
 2092TIP3   OH227690   0.809   5.582   3.962  0.3625  0.4070 -0.0728
 2092TIP3    H127691   0.775   5.524   4.031 -0.9174  2.1615  0.8079
 2092TIP3    H227692   0.869   5.641   4.008  2.2145 -0.6237 -1.0877
 2093TIP3   OH227693   5.978   5.796  11.913  0.3408 -0.3227 -1.2051
 2093TIP3    H127694   6.064   5.755  11.918  0.5583  0.2869  0.2221
 2093TIP3    H227695   5.944   5.793  12.003 -0.7375  0.2597 -1.5790
 2094TIP3   OH227696   1.088   3.159  12.309 -0.2812 -0.0530  0.0962
 2094TIP3    H127697   1.099   3.162  12.404 -1.4307 -0.1276  0.2463
 2094TIP3    H227698   1.152   3.094  12.278 -0.4604 -0.6224  0.9144
 2095TIP3   OH227699   5.536   0.157   3.939 -0.2684 -0.5165 -0.4169
 2095TIP3    H127700   5.577   0.199   4.015 -1.7485 -0.0971  0.1662
 2095TIP3    H227701   5.487   0.228   3.897 -0.1469 -0.9418 -1.2768
 2096TIP3   OH227702   1.110   1.165  11.833 -0.5181  0.6257 -0.1024
 2096TIP3    H127703   1.035   1.165  11.892  0.2461  0.8952  0.8869
 2096TIP3    H227704   1.090   1.097  11.768 -1.8643  1.0867 -0.1872
 2097TIP3   OH227705   4.661   1.512   3.607 -0.2460  0.0949 -0.2935
 2097TIP3    H127706   4.626   1.449   3.670  0.8440  0.9387  1.1485
 2097TIP3    H227707   4.725   1.462   3.556  0.3116 -0.0717  0.5723
 2098TIP3   OH227708   6.380   3.266   5.493  0.4381  0.0423 -0.5755
 2098TIP3    H127709   6.312   3.198   5.493  1.0440 -0.5757 -1.0187
 2098TIP3    H227710   6.462   3.217   5.500  0.8994  0.7151 -1.2302
 2099TIP3   OH227711   5.236   3.850   3.713  0.0121 -1.0931 -0.4917
 2099TIP3    H127712   5.188   3.768   3.698  0.2084 -0.8313 -2.8698
 2099TIP3    H227713   5.318   3.837   3.666 -0.0651  0.5406 -1.0964
 2100TIP3   OH227714   2.777   2.509  15.153 -0.2345 -0.3236 -0.1061
 2100TIP3    H127715   2.737   2.570  15.091  0.1451  0.9270  0.8608
 2100TIP3    H227716   2.704   2.480  15.208 -0.0869  0.7869  0.6879
 2101TIP3   OH227717   5.133   1.923   5.507  0.4930  0.1073  0.1075
 2101TIP3    H127718   5.039   1.928   5.520  0.5607 -0.4723  0.8962
 2101TIP3    H227719   5.145   1.930   5.413 -0.1531  2.8166  0.2082
 2102TIP3   OH227720   4.998   2.781   5.613  0.3918  0.4021 -0.0103
 2102TIP3    H127721   5.026   2.735   5.692 -0.7422  0.0793  0.2035
 2102TIP3    H227722   5.048   2.739   5.543  0.0395 -0.5433  0.2993
 2103TIP3   OH227723   3.762   0.043   5.268 -0.1510  0.1027  0.0779
 2103TIP3    H127724   3.802   0.120   5.228 -0.3477  0.5747  0.7798
 2103TIP3    H227725   3.836  -0.010   5.297 -0.0003 -0.3485 -1.0835
 2104TIP3   OH227726   5.522   5.242  11.417  0.2351 -0.9287 -0.5941
 2104TIP3    H127727   5.616   5.224  11.427 -0.1290 -2.2451  0.6407
 2104TIP3    H227728   5.502   5.215  11.328  1.0368 -0.6382 -0.8688
 2105TIP3   OH227729   5.510   5.939  10.953  0.0299 -0.0625 -0.4992
 2105TIP3    H127730   5.516   5.845  10.969  0.2839  0.0977  0.3898
 2105TIP3    H227731   5.560   5.953  10.873 -2.8515 -1.1673 -2.5889
 2106TIP3   OH227732   5.329   3.379  13.448  0.0213 -0.2638 -0.0999
 2106TIP3    H127733   5.282   3.446  13.498 -1.5565  0.2686 -2.2223
 2106TIP3    H227734   5.279   3.299  13.463  0.2285 -0.3510  0.1208
 2107TIP3   OH227735   0.312   2.205  12.489  0.1694  0.3171 -0.0337
 2107TIP3    H127736   0.266   2.211  12.573 -2.8015 -0.9066 -1.4849
 2107TIP3    H227737   0.316   2.111  12.471  1.1485  0.5537 -1.0810
 2108TIP3   OH227738   4.918   4.301  11.430 -0.4751 -0.2527 -0.3001
 2108TIP3    H127739   4.850   4.343  11.482 -0.8280 -0.5294 -0.5352
 2108TIP3    H227740   4.874   4.275  11.349  0.6152  2.3667 -1.7997
 2109TIP3   OH227741   2.261   1.009  11.298 -0.2658 -0.6602  0.1255
 2109TIP3    H127742   2.332   1.073  11.286 -0.6542 -0.4907 -1.3592
 2109TIP3    H227743   2.182   1.058  11.277 -0.4885 -1.8607 -1.9729
 2110TIP3   OH227744   0.949   4.270   3.971  0.2809  0.2099 -0.0201
 2110TIP3    H127745   0.882   4.339   3.973  0.3436  0.2462  0.7204
 2110TIP3    H227746   1.029   4.316   3.948  0.1063  0.2052 -0.6583
 2111TIP3   OH227747   0.155   6.126  12.867  0.0155 -0.1308 -0.3343
 2111TIP3    H127748   0.088   6.156  12.806  1.1469 -1.5544 -2.3143
 2111TIP3    H227749   0.185   6.043  12.831  1.0534 -0.7789  1.9233
 2112TIP3   OH227750   1.227   4.214  14.665  0.0451 -0.5952  0.3776
 2112TIP3    H127751   1.249   4.132  14.622  1.8460  1.5649 -3.1208
 2112TIP3    H227752   1.308   4.239  14.711  0.7329  0.8743 -1.5311
 2113TIP3   OH227753   5.737   3.639   5.234 -0.2053 -0.7304 -0.1921
 2113TIP3    H127754   5.664   3.596   5.190 -0.9079 -0.2565  0.4856
 2113TIP3    H227755   5.709   3.730   5.243 -0.6945 -1.0832  2.4471
 2114TIP3   OH227756   5.511   2.424   2.094  0.0294  0.3324 -0.0042
 2114TIP3    H127757   5.551   2.338   2.082  0.8967  0.5287  1.3410
 2114TIP3    H227758   5.478   2.423   2.184 -2.5523  0.3782 -0.8917
 2115TIP3   OH227759   2.706   6.254   3.770  0.6284 -0.0794  0.3373
 2115TIP3    H127760   2.733   6.345   3.784 -2.0436  0.7073  0.6535
 2115TIP3    H227761   2.612   6.254   3.787  0.4600 -2.7677 -0.3763
 2116TIP3   OH227762   1.455   6.537  11.836  0.4300 -0.1497 -0.5467
 2116TIP3    H127763   1.407   6.588  11.770  0.7580  0.5841 -0.2255
 2116TIP3    H227764   1.537   6.514  11.793  0.3473 -0.2745 -0.6383
 2117TIP3   OH227765   5.665   5.408  16.165  0.3252  0.3536 -0.3789
 2117TIP3    H127766   5.696   5.350  16.235 -0.2113  0.7338  0.1797
 2117TIP3    H227767   5.743   5.456  16.136  0.3966  0.7921  0.5293
 2118TIP3   OH227768   3.463   2.726  15.136 -0.1525 -0.3572  0.4358
 2118TIP3    H127769   3.384   2.673  15.151  0.2538 -0.8978  0.6821
 2118TIP3    H227770   3.435   2.816  15.155 -1.4551 -0.1704 -2.1648
 2119TIP3   OH227771   3.564   3.086  11.639  0.4649  0.4501 -0.8711
 2119TIP3    H127772   3.475   3.053  11.626  0.9579 -1.0900 -0.5578
 2119TIP3    H227773   3.620   3.012  11.614  1.6583  1.4422 -1.1807
 2120TIP3   OH227774   6.748   2.694  15.552 -0.2016  0.1325  0.0340
 2120TIP3    H127775   6.722   2.784  15.530  0.5998  0.4177  0.2250
 2120TIP3    H227776   6.696   2.672  15.629 -1.2218  0.0202 -0.6804
 2121TIP3   OH227777   5.551   1.205  14.611 -0.3591  0.0570  0.5961
 2121TIP3    H127778   5.488   1.189  14.541 -2.6676 -0.8622  2.7949
 2121TIP3    H227779   5.637   1.203  14.568 -1.5787 -2.4124 -1.8729
 2122TIP3   OH227780   0.186   5.198  10.925  0.1172 -0.7188  0.0901
 2122TIP3    H127781   0.136   5.275  10.951 -1.3600 -2.2486  1.9530
 2122TIP3    H227782   0.159   5.180  10.835 -0.0408  0.5113 -0.1181
 2123TIP3   OH227783   2.429   6.633   0.109 -0.4080  0.0349  0.1037
 2123TIP3    H127784   2.419   6.555   0.163  3.0682  1.1515  2.5616
 2123TIP3    H227785   2.451   6.600   0.022 -2.7142 -1.7384  0.1526
 2124TIP3   OH227786   2.010   1.967   3.286  0.2343 -0.2750 -0.6251
 2124TIP3    H127787   2.014   2.047   3.234 -0.1546 -0.9867 -1.7519
 2124TIP3    H227788   2.102   1.945   3.302  0.3437  0.4236 -0.2517
 2125TIP3   OH227789   4.495   5.893   6.181  0.4230 -0.2986 -0.2671
 2125TIP3    H127790   4.403   5.867   6.180  0.1916  0.4251  1.0075
 2125TIP3    H227791   4.542   5.813   6.200  0.0539 -0.6536 -0.8254
 2126TIP3   OH227792   2.728   2.649   5.019  0.1442  0.2313  0.1094
 2126TIP3    H127793   2.771   2.668   4.936  0.9520  0.4950  0.5918
 2126TIP3    H227794   2.637   2.677   5.005 -0.3217 -1.9458 -1.4951
 2127TIP3   OH227795   4.096   3.156   1.281  0.1322 -0.0347  0.1418
 2127TIP3    H127796   4.090   3.075   1.231  1.0434  0.6628 -1.1161
 2127TIP3    H227797   4.174   3.144   1.336  2.3385  1.3596 -2.5950
 2128TIP3   OH227798   5.157   0.442  13.292 -0.5029  0.1532  0.2374
 2128TIP3    H127799   5.144   0.364  13.345  1.5107 -0.4385 -0.0840
 2128TIP3    H227800   5.090   0.437  13.224 -0.9373 -0.8187  0.7323
 2129TIP3   OH227801   1.489   5.913   5.992 -0.2186  0.3359 -0.9014
 2129TIP3    H127802   1.495   5.834   6.046  0.5041  0.6581 -0.4976
 2129TIP3    H227803   1.397   5.939   5.998 -0.5044 -0.5652 -1.1769
 2130TIP3   OH227804   1.122   3.674   2.355  0.1542 -0.0635 -0.3245
 2130TIP3    H127805   1.120   3.589   2.311 -0.0414 -0.0377 -0.3644
 2130TIP3    H227806   1.030   3.700   2.362  0.2287  0.2777 -0.5735
 2131TIP3   OH227807   1.405   0.756   1.719 -0.1394 -0.0741  0.1314
 2131TIP3    H127808   1.408   0.831   1.660 -1.3002 -0.2471 -0.1706
 2131TIP3    H227809   1.394   0.794   1.806 -1.4945  0.1001 -0.1006
 2132TIP3   OH227810   3.470   0.854  12.243 -0.1775 -0.6480  0.0893
 2132TIP3    H127811   3.431   0.769  12.222  0.2025 -1.3769  2.2176
 2132TIP3    H227812   3.562   0.835  12.260  0.8830  0.8495 -3.4886
 2133TIP3   OH227813   0.823   0.587   3.498 -0.4022 -0.1953 -0.4445
 2133TIP3    H127814   0.836   0.656   3.432  0.9385 -0.4904 -0.5030
 2133TIP3    H227815   0.755   0.622   3.555 -0.4200  0.7737 -1.0374
 2134TIP3   OH227816   5.888   5.568   0.121  0.2156  0.3889 -0.7437
 2134TIP3    H127817   5.873   5.656   0.088  0.1297  0.1920 -1.2368
 2134TIP3    H227818   5.931   5.580   0.205 -1.6752  0.9560  0.1696
 2135TIP3   OH227819   1.745   5.059   5.440  0.1351 -0.4812  0.5189
 2135TIP3    H127820   1.717   5.031   5.353 -0.2146 -0.3291  0.5809
 2135TIP3    H227821   1.693   5.006   5.500 -0.3467  0.1240  0.6349
 2136TIP3   OH227822   2.979   6.416   4.828 -0.3384  0.3399  0.1132
 2136TIP3    H127823   3.016   6.497   4.862  1.5879 -0.1628 -0.6791
 2136TIP3    H227824   3.006   6.414   4.736 -2.7401  0.1412 -0.6199
 2137TIP3   OH227825   3.471   4.169   4.701  0.1577  0.2122  0.1147
 2137TIP3    H127826   3.520   4.090   4.677 -1.4127 -0.2039 -1.9075
 2137TIP3    H227827   3.400   4.136   4.757  1.3844  0.6485  1.9760
 2138TIP3   OH227828   3.001   2.289   1.073 -0.5081 -0.4333  0.1410
 2138TIP3    H127829   2.949   2.276   1.152  1.0219  0.8180  1.4021
 2138TIP3    H227830   3.084   2.324   1.105 -0.7651  2.5318 -2.2014
 2139TIP3   OH227831   5.141   3.735   5.715 -0.6103  0.8471 -0.0379
 2139TIP3    H127832   5.073   3.699   5.658  1.0822  0.4492 -1.8291
 2139TIP3    H227833   5.163   3.819   5.675  0.8374  0.4099 -0.1582
 2140TIP3   OH227834   2.637   5.826   1.834  0.0862 -0.5994 -0.6907
 2140TIP3    H127835   2.575   5.763   1.870  0.1492  0.9804  2.3892
 2140TIP3    H227836   2.583   5.899   1.803  0.1011 -1.5205 -2.9576
 2141TIP3   OH227837   2.358   5.457   3.039  0.1152 -0.0395 -0.5820
 2141TIP3    H127838   2.300   5.483   3.111 -0.4902 -1.6729 -0.4626
 2141TIP3    H227839   2.427   5.523   3.039 -0.7181  0.8538  0.4997
 2142TIP3   OH227840   3.858   3.449  13.199  0.4105  0.1746  0.3863
 2142TIP3    H127841   3.784   3.404  13.156  1.1821  0.3899 -1.1715
 2142TIP3    H227842   3.821   3.532  13.229 -0.3642 -0.3697  0.9905
 2143TIP3   OH227843   3.668   4.932  16.382 -0.1583  0.0245  0.3073
 2143TIP3    H127844   3.652   4.883  16.302 -0.0844  1.3361 -0.5258
 2143TIP3    H227845   3.601   5.000  16.382 -0.4457 -0.2422  1.5995
 2144TIP3   OH227846   0.799   4.105   2.187  0.1000  0.1387  0.5289
 2144TIP3    H127847   0.860   4.163   2.142 -0.8002  1.0775  0.4855
 2144TIP3    H227848   0.819   4.116   2.280 -0.1285  0.5920  0.5259
 2145TIP3   OH227849   2.380   3.204   5.727 -0.3612 -0.3093  0.6916
 2145TIP3    H127850   2.448   3.246   5.781  0.4503 -2.5655  1.4674
 2145TIP3    H227851   2.417   3.119   5.704 -1.4325 -0.1046 -1.9819
 2146TIP3   OH227852   0.574   0.766  15.597  0.1674 -0.5682 -0.0411
 2146TIP3    H127853   0.591   0.857  15.624  0.1253 -0.9795  1.4160
 2146TIP3    H227854   0.616   0.713  15.665 -1.7205 -1.6368  0.3053
 2147TIP3   OH227855   3.964   3.342   5.353  0.5550  0.9365  0.2016
 2147TIP3    H127856   3.918   3.391   5.285 -1.0139  0.7196  1.0785
 2147TIP3    H227857   3.895   3.298   5.402  1.5415  2.1117  2.7424
 2148TIP3   OH227858   5.970   4.650  12.302 -0.1099  0.5324 -0.3605
 2148TIP3    H127859   5.971   4.745  12.299 -0.8035  0.6057  1.2995
 2148TIP3    H227860   5.930   4.624  12.219 -0.6961  1.7079 -0.4549
 2149TIP3   OH227861   5.996   3.558   5.596  0.4655  0.7874  0.3091
 2149TIP3    H127862   5.933   3.630   5.597  0.0420  0.4396  2.5242
 2149TIP3    H227863   6.081   3.600   5.603  0.4275  1.2128 -1.6827
 2150TIP3   OH227864   2.586   5.145  16.883  0.2816 -0.0051 -0.0354
 2150TIP3    H127865   2.519   5.213  16.886 -0.5176 -0.7484 -0.9282
 2150TIP3    H227866   2.641   5.168  16.809  0.1299 -0.2256 -0.2152
 2151TIP3   OH227867   2.465   0.003   2.222 -0.0126 -0.1810 -0.5138
 2151TIP3    H127868   2.371  -0.007   2.238 -0.6040  2.6623 -1.9692
 2151TIP3    H227869   2.503  -0.082   2.248 -2.7955 -0.9524  1.2283
 2152TIP3   OH227870   1.462   5.918  14.060  0.1049 -0.6376  0.7572
 2152TIP3    H127871   1.491   5.828  14.048 -0.2292 -0.9343  2.0548
 2152TIP3    H227872   1.367   5.915  14.045  0.3732 -0.1115 -1.1707
 2153TIP3   OH227873   5.041   4.719  14.395 -0.0201  0.3465  0.1918
 2153TIP3    H127874   5.119   4.751  14.351  1.3316 -1.4476  1.2042
 2153TIP3    H227875   4.974   4.717  14.327  1.0557  1.0651 -0.8978
 2154TIP3   OH227876   3.385   3.649  11.074 -0.5630  0.3152  0.3586
 2154TIP3    H127877   3.418   3.712  11.010  0.8477 -0.6643  0.1076
 2154TIP3    H227878   3.404   3.689  11.159 -1.2295  1.0026  0.1948
 2155TIP3   OH227879   3.775   3.634   0.896  0.0492 -0.8487 -0.0559
 2155TIP3    H127880   3.760   3.704   0.833 -1.6238 -0.1957  1.0170
 2155TIP3    H227881   3.867   3.611   0.886  0.1319  0.1423 -1.7963
 2156TIP3   OH227882   2.781   2.448  13.754 -0.2807  0.0238  0.1295
 2156TIP3    H127883   2.694   2.412  13.734 -1.6065  1.8684  2.3439
 2156TIP3    H227884   2.833   2.371  13.778 -1.6963 -0.9740  0.1016
 2157TIP3   OH227885   5.473   1.063  10.298 -0.2413 -0.2051 -0.0576
 2157TIP3    H127886   5.546   1.002  10.301  0.1051  0.1448 -1.0823
 2157TIP3    H227887   5.397   1.009  10.275 -0.5078 -0.7282  1.9320
 2158TIP3   OH227888   5.244   1.237  11.509 -0.5628  0.3020  0.1807
 2158TIP3    H127889   5.329   1.193  11.514 -0.4511  0.6340  1.5174
 2158TIP3    H227890   5.182   1.168  11.488 -0.4098 -0.5660  2.4112
 2159TIP3   OH227891   0.819   3.816   3.375  0.4259  0.5122  0.0303
 2159TIP3    H127892   0.849   3.747   3.435 -0.9001  1.6406  2.0712
 2159TIP3    H227893   0.864   3.895   3.404  0.2227  0.9615 -0.8546
 2160TIP3   OH227894   3.798   5.851   1.790  0.1327 -0.5171  0.2828
 2160TIP3    H127895   3.826   5.866   1.700  0.2426 -1.0591  0.2253
 2160TIP3    H227896   3.739   5.776   1.785 -1.0072  0.3533  0.4627
 2161TIP3   OH227897   0.734   3.891   2.603 -0.0907  0.0840  0.1867
 2161TIP3    H127898   0.751   3.893   2.509 -0.2610  0.4445  0.1604
 2161TIP3    H227899   0.798   3.951   2.640  0.2408 -0.3680  0.3447
 2162TIP3   OH227900   6.688   5.766  13.873 -0.5657 -0.0076 -0.0377
 2162TIP3    H127901   6.628   5.807  13.935  1.6092  1.4733  1.1296
 2162TIP3    H227902   6.662   5.801  13.788 -1.4635  0.5167  0.4467
 2163TIP3   OH227903   2.876   1.470   1.159 -0.4394  0.2020 -0.4819
 2163TIP3    H127904   2.786   1.489   1.186 -0.2803  1.1164 -0.5869
 2163TIP3    H227905   2.890   1.378   1.184 -0.8412  0.5453  1.0485
 2164TIP3   OH227906   6.672   1.990  10.946  0.4002  0.7009 -0.3656
 2164TIP3    H127907   6.596   2.015  10.894  0.7932  0.5723 -1.0065
 2164TIP3    H227908   6.745   2.039  10.907  0.6258  0.9113  0.3112
 2165TIP3   OH227909   1.407   1.186   0.216  0.2673  0.2704 -0.0711
 2165TIP3    H127910   1.352   1.110   0.194  0.2392  0.2551  0.0550
 2165TIP3    H227911   1.355   1.262   0.189  0.2071  0.2538 -0.0011
 2166TIP3   OH227912   6.483   6.204  12.648 -0.1453 -0.6732  0.5171
 2166TIP3    H127913   6.549   6.244  12.705  0.7218  0.8106 -1.4372
 2166TIP3    H227914   6.452   6.276  12.593 -0.8533 -2.0764 -0.9654
 2167TIP3   OH227915   0.172   0.807  15.963  0.3856  0.1129  0.0666
 2167TIP3    H127916   0.225   0.821  15.884  1.5863  1.3976  1.0846
 2167TIP3    H227917   0.096   0.864  15.951  0.4853  0.1810 -0.2530
 2168TIP3   OH227918   5.700   5.634  15.560 -0.2477 -0.4716 -0.4636
 2168TIP3    H127919   5.742   5.715  15.588  0.4918 -0.6517 -1.0554
 2168TIP3    H227920   5.772   5.576  15.535 -0.8387 -0.8192 -1.3813
 2169TIP3   OH227921   2.057   5.748   4.465  0.4544 -0.0763  0.1565
 2169TIP3    H127922   2.086   5.659   4.483 -0.3548 -0.2572  0.5800
 2169TIP3    H227923   2.024   5.745   4.375  1.9104  0.1762 -0.3959
 2170TIP3   OH227924   5.580   1.388   1.868 -0.4362  0.1614 -0.4418
 2170TIP3    H127925   5.579   1.353   1.957  1.4171 -0.2053 -0.5531
 2170TIP3    H227926   5.525   1.466   1.873 -0.2215  0.2390  1.0644
 2171TIP3   OH227927   1.932   0.310   5.647 -0.2693 -0.1036  0.2922
 2171TIP3    H127928   1.930   0.214   5.653 -0.4447 -0.0060  1.7740
 2171TIP3    H227929   1.869   0.340   5.712 -1.4149  0.9920 -1.3028
 2172TIP3   OH227930   3.495   5.698   0.688 -0.6654  0.2248  0.3186
 2172TIP3    H127931   3.451   5.734   0.611  1.7052  0.3018 -1.0645
 2172TIP3    H227932   3.511   5.773   0.745 -2.0928  0.2259  0.7285
 2173TIP3   OH227933   5.959   1.769   0.332 -0.2617 -0.5017  0.3137
 2173TIP3    H127934   5.978   1.683   0.370 -0.5603 -0.2244  1.1037
 2173TIP3    H227935   5.923   1.820   0.404 -0.8065  0.0531 -0.3384
 2174TIP3   OH227936   1.822   1.358  14.609 -0.1555 -0.3787  0.6907
 2174TIP3    H127937   1.837   1.273  14.651  0.5939  0.7892  2.8833
 2174TIP3    H227938   1.907   1.401  14.612 -0.1199 -0.2225 -2.0256
 2175TIP3   OH227939   1.482   5.931   3.813  0.2373 -0.0866  0.6334
 2175TIP3    H127940   1.548   5.884   3.762  0.4959 -0.9480  1.7588
 2175TIP3    H227941   1.514   5.928   3.903 -0.1490  1.5500  0.8384
 2176TIP3   OH227942   4.198   5.371  13.159 -0.1465  0.3588 -0.6756
 2176TIP3    H127943   4.158   5.422  13.229 -0.4944  1.3902 -1.6137
 2176TIP3    H227944   4.214   5.285  13.198  1.2271  1.4270  1.1839
 2177TIP3   OH227945   4.218   2.622  15.149  0.0437  0.1412 -0.2716
 2177TIP3    H127946   4.238   2.528  15.147 -0.3965  0.0542 -0.5974
 2177TIP3    H227947   4.247   2.654  15.064 -0.7617  0.1065 -0.5601
 2178TIP3   OH227948   3.553   0.700   0.296  0.4087 -0.3471 -0.2669
 2178TIP3    H127949   3.616   0.676   0.228 -1.2750 -0.2672 -1.8960
 2178TIP3    H227950   3.607   0.715   0.374  2.3914 -0.4003 -1.5725
 2179TIP3   OH227951   0.523   2.684   5.843 -0.4122  0.3049  0.1302
 2179TIP3    H127952   0.518   2.610   5.782  0.2946 -0.8618  1.4685
 2179TIP3    H227953   0.553   2.757   5.789  0.6090 -0.8047 -0.8442
 2180TIP3   OH227954   1.466   0.070  11.792  1.1087  0.2520 -0.9038
 2180TIP3    H127955   1.495   0.143  11.846  1.7670 -0.7501  0.1020
 2180TIP3    H227956   1.513   0.081  11.710  1.9184  0.4239 -0.4155
 2181TIP3   OH227957   3.165   3.405  14.486 -0.2208  0.0333 -0.4968
 2181TIP3    H127958   3.259   3.385  14.478 -0.1454  0.8326 -1.9823
 2181TIP3    H227959   3.122   3.320  14.489  0.2635 -0.4251 -4.1243
 2182TIP3   OH227960   1.984   1.427  11.661 -0.0258  0.1215 -0.1838
 2182TIP3    H127961   2.035   1.506  11.674  0.4664 -0.0963 -0.7383
 2182TIP3    H227962   2.049   1.357  11.654 -0.4518 -0.3267  0.2581
 2183TIP3   OH227963   2.758   6.383  11.355 -0.6164  0.0279  0.2175
 2183TIP3    H127964   2.767   6.331  11.275 -0.2266  0.9557 -0.3518
 2183TIP3    H227965   2.708   6.327  11.415 -1.3870 -0.4594 -0.8670
 2184TIP3   OH227966   6.537   5.975   1.776  0.0888 -0.4911  0.0731
 2184TIP3    H127967   6.454   5.991   1.821 -0.1275 -1.0163 -0.1312
 2184TIP3    H227968   6.591   5.930   1.841  0.0130 -0.6492  0.0272
 2185TIP3   OH227969   2.395   2.495  16.504  0.2996 -0.4348 -0.0789
 2185TIP3    H127970   2.366   2.543  16.582  0.1975 -1.9572  0.8490
 2185TIP3    H227971   2.450   2.424  16.538  2.6055  0.5599 -1.6068
 2186TIP3   OH227972   2.770   0.680  11.775 -0.7040  0.0736  0.1023
 2186TIP3    H127973   2.709   0.692  11.702  0.7781 -0.0081 -1.1673
 2186TIP3    H227974   2.736   0.603  11.821 -1.7213  0.1973 -0.4133
 2187TIP3   OH227975   2.104   3.824   5.198 -0.6532  0.1525 -0.1290
 2187TIP3    H127976   2.122   3.862   5.284  1.5331 -1.3698  0.1233
 2187TIP3    H227977   2.187   3.830   5.152 -1.4514 -0.3189 -1.6465
 2188TIP3   OH227978   2.267   0.177   0.848 -0.6169  0.5924 -0.3752
 2188TIP3    H127979   2.358   0.145   0.852 -0.6963  0.2612 -1.1020
 2188TIP3    H227980   2.233   0.163   0.937 -0.7967 -1.8164 -0.7826
 2189TIP3   OH227981   5.556   3.459  11.608 -0.4517  0.2843 -0.3748
 2189TIP3    H127982   5.598   3.413  11.681  0.7622  1.4382 -0.3304
 2189TIP3    H227983   5.585   3.411  11.530  1.9273  1.7465 -0.4406
 2190TIP3   OH227984   2.169   3.432   4.037  0.1394 -0.1598 -0.7333
 2190TIP3    H127985   2.144   3.492   4.108 -0.4141 -0.3822 -0.7347
 2190TIP3    H227986   2.264   3.439   4.032 -0.0360  1.9514 -1.8032
 2191TIP3   OH227987   1.811   4.718  13.616  0.4987  0.1231 -0.5320
 2191TIP3    H127988   1.837   4.626  13.618  0.2160  0.0470 -0.3922
 2191TIP3    H227989   1.863   4.759  13.686 -0.8736 -0.3321  0.7969
 2192TIP3   OH227990   0.232   4.669   3.923  0.4320  0.2038  0.1825
 2192TIP3    H127991   0.183   4.704   3.997  0.1620  0.9674 -0.3486
 2192TIP3    H227992   0.172   4.675   3.849 -0.1354 -2.7559  0.3414
 2193TIP3   OH227993   2.001   1.291   2.498  0.4503 -0.7715 -0.2980
 2193TIP3    H127994   2.023   1.246   2.579  0.3140 -1.2304 -0.5104
 2193TIP3    H227995   2.083   1.294   2.449  0.7227  0.2729  0.2219
 2194TIP3   OH227996   5.962   5.614  13.578 -0.2459 -0.2698  0.2277
 2194TIP3    H127997   6.012   5.532  13.576 -0.0445 -0.1376 -0.7769
 2194TIP3    H227998   5.990   5.658  13.658  1.0462 -0.3239 -0.1828
 2195TIP3   OH227999   4.847   3.508  16.105 -0.3740  0.3091  0.3051
 2195TIP3    H128000   4.902   3.481  16.177  0.1125  0.4653 -0.0091
 2195TIP3    H228001   4.888   3.588  16.071 -0.1530 -0.2037 -0.6531
 2196TIP3   OH228002   1.369   4.973  11.730  0.5468  0.2309  0.2627
 2196TIP3    H128003   1.312   5.032  11.779 -0.4129 -0.0710 -0.4876
 2196TIP3    H228004   1.327   4.888  11.735  1.4894 -0.2273  0.6099
 2197TIP3   OH228005   1.034   3.534  12.097 -0.8816 -0.5828  0.2038
 2197TIP3    H128006   1.056   3.613  12.146  2.2248  0.1290 -2.1608
 2197TIP3    H228007   0.994   3.567  12.016  0.4123 -1.3716 -0.7847
 2198TIP3   OH228008   6.620   5.892  13.648  0.4467  0.0007  0.2882
 2198TIP3    H128009   6.640   5.948  13.572  0.1611 -1.5905 -0.9741
 2198TIP3    H228010   6.549   5.835  13.618  0.3273 -0.6325  1.7614
 2199TIP3   OH228011   3.780   2.151   3.268  0.5674 -0.4769 -0.1661
 2199TIP3    H128012   3.862   2.183   3.306  0.1020  0.9087 -0.2683
 2199TIP3    H228013   3.790   2.168   3.174 -0.4370  1.1555 -0.0024
 2200TIP3   OH228014   3.128   6.436  13.701 -0.0775 -0.2524 -0.0688
 2200TIP3    H128015   3.155   6.525  13.725  0.2474 -0.5028  0.4947
 2200TIP3    H228016   3.104   6.395  13.784  0.2195 -0.8435 -0.2737
 2201TIP3   OH228017   4.282   4.388  15.557 -0.4260 -0.0692 -0.1321
 2201TIP3    H128018   4.241   4.473  15.540 -1.8047 -0.7535 -0.3474
 2201TIP3    H228019   4.324   4.398  15.642 -0.9844  0.6825  0.0643
 2202TIP3   OH228020   6.273   2.491   2.521  0.0080 -0.4131 -0.7846
 2202TIP3    H128021   6.208   2.557   2.496 -0.0553 -0.5810 -1.0508
 2202TIP3    H228022   6.271   2.426   2.451  0.4029 -0.4624 -0.7534
 2203TIP3   OH228023   0.479   4.497  13.961 -0.0822 -0.1825 -0.1243
 2203TIP3    H128024   0.565   4.487  14.003 -0.9628 -0.6632  1.6445
 2203TIP3    H228025   0.427   4.425  13.996 -0.8329 -0.6830 -2.2108
 2204TIP3   OH228026   4.458   4.197   0.676 -0.1391 -0.8453  0.0730
 2204TIP3    H128027   4.421   4.285   0.679 -1.6441 -1.4896  0.9433
 2204TIP3    H228028   4.447   4.170   0.584  0.9908  0.1308 -0.3657
 2205TIP3   OH228029   4.630   2.153  12.927 -0.2079 -0.2769 -0.1061
 2205TIP3    H128030   4.649   2.064  12.957  0.3581  0.4235  1.6755
 2205TIP3    H228031   4.541   2.148  12.892 -0.3544 -1.4421  0.4240
 2206TIP3   OH228032   3.666   6.441   5.362  0.4325 -0.2347 -0.0923
 2206TIP3    H128033   3.636   6.509   5.423 -0.1426 -1.8727  1.5160
 2206TIP3    H228034   3.760   6.456   5.354  0.0309  1.8771 -1.2364
 2207TIP3   OH228035   4.930   1.148  13.886  0.6798 -0.0474 -0.3010
 2207TIP3    H128036   4.999   1.122  13.947  0.9610  0.3327 -0.4524
 2207TIP3    H228037   4.890   1.225  13.927 -0.4983 -1.0262  0.4069
 2208TIP3   OH228038   3.043   2.911   2.792  0.3129  0.2006  0.0292
 2208TIP3    H128039   3.026   2.846   2.724  3.6283  0.1810 -0.8803
 2208TIP3    H228040   3.037   2.863   2.874 -1.3189 -0.3095 -0.3687
 2209TIP3   OH228041   1.317   6.320  11.861 -0.4218  0.5988  0.1792
 2209TIP3    H128042   1.350   6.405  11.832  1.9311 -0.3415 -0.0148
 2209TIP3    H228043   1.304   6.270  11.781  1.4853 -0.3682  0.4538
 2210TIP3   OH228044   2.159   5.203   2.093 -0.1782 -0.8076  0.0912
 2210TIP3    H128045   2.161   5.183   2.000 -0.1786  0.2050 -0.1265
 2210TIP3    H228046   2.240   5.165   2.128 -0.0835 -1.0083 -0.3514
 2211TIP3   OH228047   3.062   5.575  13.457  0.0071 -0.3676  0.1911
 2211TIP3    H128048   2.993   5.511  13.475 -0.4147 -0.1336 -0.5752
 2211TIP3    H228049   3.096   5.551  13.371  2.5908 -1.9860  1.5870
 2212TIP3   OH228050   1.763   2.987  11.522 -0.0139 -0.6156 -0.1744
 2212TIP3    H128051   1.723   2.925  11.461 -0.6686  0.9559 -1.3573
 2212TIP3    H228052   1.724   3.071  11.500  0.0148  0.0394  2.1825
 2213TIP3   OH228053   4.191   0.917  17.115 -0.3849 -0.3447 -0.2946
 2213TIP3    H128054   4.215   0.994  17.166 -0.7382 -0.3760 -0.0749
 2213TIP3    H228055   4.272   0.867  17.105 -0.7808 -1.6305  2.4654
 2214TIP3   OH228056   2.853   2.156  16.888  0.0565 -0.1292  0.0882
 2214TIP3    H128057   2.902   2.097  16.946  0.1073  0.0188  0.1963
 2214TIP3    H228058   2.779   2.104  16.857  0.6891 -0.5810 -0.6583
 2215TIP3   OH228059   0.062   3.982  14.257 -0.2305  0.0556 -0.3348
 2215TIP3    H128060   0.078   3.934  14.338 -0.1905  1.0329  0.2500
 2215TIP3    H228061  -0.029   4.011  14.264  0.0014  0.7824 -0.2874
 2216TIP3   OH228062   3.987   6.754  11.165 -0.4941 -0.3726  0.1512
 2216TIP3    H128063   3.923   6.683  11.163 -1.3027  0.1718  3.4493
 2216TIP3    H228064   3.934   6.834  11.157  0.2314 -0.0480 -1.6112
 2217TIP3   OH228065   5.693   2.179  14.254 -0.2727  0.5824 -0.5730
 2217TIP3    H128066   5.774   2.127  14.256  0.8630  2.3409  1.4274
 2217TIP3    H228067   5.682   2.202  14.162  0.1055 -1.7942 -1.2406
 2218TIP3   OH228068   6.755   6.488  16.864 -0.2754 -0.0258 -0.1168
 2218TIP3    H128069   6.742   6.428  16.938  0.4121 -0.5813 -0.4376
 2218TIP3    H228070   6.670   6.529  16.851  0.1063  1.6160  2.2982
 2219TIP3   OH228071   3.867   5.515   2.995  0.7070 -0.4511 -0.1945
 2219TIP3    H128072   3.894   5.598   2.956 -0.1571 -0.2034 -0.2642
 2219TIP3    H228073   3.817   5.471   2.926  1.2447 -1.0778 -0.1918
 2220TIP3   OH228074   6.164   1.841   0.131  0.3023  0.1710  0.3721
 2220TIP3    H128075   6.181   1.749   0.112 -0.5107 -0.2293  1.5346
 2220TIP3    H228076   6.130   1.842   0.220 -0.4818  1.5009  0.0871
 2221TIP3   OH228077   2.127   6.695  10.649  0.3751 -0.2408 -0.1710
 2221TIP3    H128078   2.102   6.782  10.619  1.9306  0.3610  0.2077
 2221TIP3    H228079   2.135   6.643  10.568 -0.7847 -0.0990 -0.3750
 2222TIP3   OH228080   0.675   1.652   6.396  0.2056 -0.2440  0.5327
 2222TIP3    H128081   0.589   1.616   6.374  0.1052  0.8474 -0.9205
 2222TIP3    H228082   0.655   1.731   6.446  0.2817  1.2721 -1.7498
 2223TIP3   OH228083   5.426   1.834   0.318  0.1584  0.1833  0.0777
 2223TIP3    H128084   5.440   1.926   0.344  1.7873 -0.2577  0.8435
 2223TIP3    H228085   5.334   1.818   0.337  0.1287  1.3368  0.9946
 2224TIP3   OH228086   4.717   2.522   5.565  0.7588 -0.3087  0.0253
 2224TIP3    H128087   4.797   2.507   5.515  1.3272  0.3584  0.7174
 2224TIP3    H228088   4.676   2.598   5.522 -0.1778 -1.4409 -1.1274
 2225TIP3   OH228089   0.743   1.198  15.171 -0.0871 -0.0052 -0.0946
 2225TIP3    H128090   0.668   1.256  15.162  0.4897  0.6783 -0.5643
 2225TIP3    H228091   0.752   1.157  15.084 -0.0799 -0.2907  0.0404
 2226TIP3   OH228092   5.778   1.675   0.749  0.2666 -0.3717 -0.0538
 2226TIP3    H128093   5.805   1.624   0.672  1.9502 -1.1224  0.9960
 2226TIP3    H228094   5.683   1.670   0.749  0.2046  0.0679 -2.3793
 2227TIP3   OH228095   4.830   1.424   0.371 -0.1977 -0.0050 -0.4143
 2227TIP3    H128096   4.891   1.354   0.396 -0.3590 -0.6438 -1.8138
 2227TIP3    H228097   4.775   1.386   0.303 -1.0884  1.1078 -0.3350
 2228TIP3   OH228098   3.845   0.213  11.152 -0.0768  0.5131 -0.3492
 2228TIP3    H128099   3.785   0.247  11.218 -0.6369 -0.7169 -0.1949
 2228TIP3    H228100   3.917   0.276  11.149 -0.2832  0.8332  1.0927
 2229TIP3   OH228101   1.101   4.008   0.077 -0.2372  0.0428 -0.0444
 2229TIP3    H128102   1.021   4.045   0.113 -0.4662 -1.3926  0.9603
 2229TIP3    H228103   1.171   4.060   0.115 -0.6040  0.0872  0.5699
 2230TIP3   OH228104   3.163   5.312   2.130 -0.2418 -0.2005 -0.0762
 2230TIP3    H128105   3.091   5.271   2.082 -0.0959 -0.3246 -0.1873
 2230TIP3    H228106   3.220   5.348   2.062 -0.1830 -0.1254  0.0125
 2231TIP3   OH228107   3.380   3.389  11.230 -0.2248  0.0520 -0.0046
 2231TIP3    H128108   3.465   3.397  11.187 -0.6514 -0.2836 -0.9187
 2231TIP3    H228109   3.339   3.475  11.220 -0.7685 -0.3404 -1.2280
 2232TIP3   OH228110   5.113   0.651  17.186  0.2728 -0.3116  0.0117
 2232TIP3    H128111   5.087   0.630  17.096  0.7984 -2.6541  0.3855
 2232TIP3    H228112   5.205   0.624  17.191 -0.1064 -1.3584  1.6077
 2233TIP3   OH228113   0.328   3.654  17.191  0.3619  0.0394 -0.2694
 2233TIP3    H128114   0.393   3.673  17.258 -0.1737  0.7059  0.0762
 2233TIP3    H228115   0.245   3.647  17.239  0.4628 -2.9264 -0.4171
 2234TIP3   OH228116   2.812   6.718   3.087  0.3393 -0.4252  0.7779
 2234TIP3    H128117   2.883   6.665   3.052  0.6708  0.1310  0.6173
 2234TIP3    H228118   2.732   6.676   3.053  0.6637  0.4998 -1.2274
 2235TIP3   OH228119   1.842   5.194   3.181  0.0815 -0.4883  0.7964
 2235TIP3    H128120   1.851   5.166   3.090 -3.3843 -0.3293  0.3342
 2235TIP3    H228121   1.868   5.286   3.181  0.4695 -0.5980  0.0477
 2236TIP3   OH228122   5.179   0.300  15.305  0.2128 -0.2118 -0.3279
 2236TIP3    H128123   5.139   0.216  15.282 -1.8922  0.5820  0.2873
 2236TIP3    H228124   5.239   0.319  15.233 -0.0697 -1.7393 -0.9854
 2237TIP3   OH228125   0.032   6.650   2.523 -0.1226  0.6473  0.1212
 2237TIP3    H128126   0.095   6.589   2.561  1.3633  2.3490  0.4370
 2237TIP3    H228127   0.025   6.720   2.587 -0.9366  1.3858 -0.7591
 2238TIP3   OH228128   3.566   6.139   3.644 -0.4665 -0.3968  0.6709
 2238TIP3    H128129   3.585   6.064   3.701  0.3765 -0.2452  0.5904
 2238TIP3    H228130   3.563   6.214   3.704  0.5120 -0.2234  0.5099
 2239TIP3   OH228131   0.542   2.733  11.744 -0.5241  0.2999 -0.7444
 2239TIP3    H128132   0.569   2.685  11.823 -0.8117  0.4650 -0.5443
 2239TIP3    H228133   0.539   2.666  11.676  0.2600  0.2538 -0.7386
 2240TIP3   OH228134   0.352   5.618   0.424  0.4539 -0.4014  0.5573
 2240TIP3    H128135   0.310   5.567   0.493  0.0251 -0.2075  0.4408
 2240TIP3    H228136   0.302   5.598   0.345 -0.0303  0.5824  0.6067
 2241TIP3   OH228137   6.536   2.944   5.422  0.0088 -0.7381 -0.4175
 2241TIP3    H128138   6.491   2.885   5.363 -0.7018 -0.4240 -0.1930
 2241TIP3    H228139   6.471   2.968   5.487  0.9095 -1.4131  0.7467
 2242TIP3   OH228140   4.910   1.008  14.345 -0.5867  0.2619  0.1259
 2242TIP3    H128141   4.882   1.010  14.254 -1.8596  1.0648  0.5339
 2242TIP3    H228142   4.974   1.079  14.353  0.8608 -0.9284 -0.5531
 2243TIP3   OH228143   6.160   2.696   0.186  0.4085  0.1722 -0.5039
 2243TIP3    H128144   6.131   2.608   0.208  0.0849  0.1560 -0.9760
 2243TIP3    H228145   6.208   2.685   0.104  1.7360  0.2013  0.2663
 2244TIP3   OH228146   5.723   1.071   3.488 -0.4726 -0.3883  0.7874
 2244TIP3    H128147   5.733   1.035   3.576 -1.8927 -3.2243 -0.1744
 2244TIP3    H228148   5.630   1.062   3.468 -0.1746  0.2772 -1.0118
 2245TIP3   OH228149   1.077   2.982   4.621  0.6003 -0.0075 -0.2725
 2245TIP3    H128150   1.041   2.908   4.572  1.1095  0.3371 -1.1645
 2245TIP3    H228151   1.076   3.055   4.559 -1.7014  1.2513  1.1530
 2246TIP3   OH228152   3.030   5.893  16.722  0.0881 -0.0581 -0.5311
 2246TIP3    H128153   3.033   5.987  16.706 -0.0855  0.2275  1.0505
 2246TIP3    H228154   3.053   5.884  16.814  0.6277 -1.6093 -0.8078
 2247TIP3   OH228155   5.392   4.051  15.211 -0.4117 -0.4943 -0.2523
 2247TIP3    H128156   5.387   4.107  15.134  0.6964  0.3285  0.2597
 2247TIP3    H228157   5.473   4.002  15.201  0.5772  0.7945  1.1561
 2248TIP3   OH228158   3.501   2.265  13.611  0.1399 -0.0956 -0.5176
 2248TIP3    H128159   3.422   2.227  13.572  0.6283  0.5586 -2.1673
 2248TIP3    H228160   3.468   2.331  13.672 -0.6177 -0.3665 -0.6344
 2249TIP3   OH228161   2.749   6.169  14.253  0.4849  0.6000  0.5053
 2249TIP3    H128162   2.813   6.105  14.222  0.0569  0.6490 -0.5067
 2249TIP3    H228163   2.669   6.119  14.267 -0.9269  1.4425 -3.7746
 2250TIP3   OH228164   6.269   2.846   1.993  0.1189  0.3600  0.3234
 2250TIP3    H128165   6.242   2.926   2.037  0.9400  1.1739 -0.6154
 2250TIP3    H228166   6.198   2.784   2.008 -1.0039  1.5997  0.1622
 2251TIP3   OH228167   0.365   3.295  16.046 -0.5512 -0.0819 -0.1621
 2251TIP3    H128168   0.458   3.302  16.067 -0.7091 -1.2063  0.9610
 2251TIP3    H228169   0.325   3.255  16.123 -2.1768  1.4761 -0.1670
 2252TIP3   OH228170   2.333   3.576   1.698  0.5038  0.1927 -0.1715
 2252TIP3    H128171   2.242   3.589   1.672 -0.2262 -2.8997  0.5469
 2252TIP3    H228172   2.333   3.589   1.793  0.7529 -0.0183 -0.1415
 2253TIP3   OH228173   3.266   5.611   3.432 -0.0453 -0.3297  0.0103
 2253TIP3    H128174   3.352   5.640   3.462  0.0893 -0.4852 -0.2232
 2253TIP3    H228175   3.209   5.687   3.447 -0.3316 -0.9422  2.1340
 2254TIP3   OH228176   6.259   5.766  12.421 -0.2961  0.2409 -0.2589
 2254TIP3    H128177   6.283   5.763  12.329 -1.4510 -0.2343 -0.5504
 2254TIP3    H228178   6.187   5.829  12.426 -0.0601  0.4704  0.3581
 2255TIP3   OH228179   3.481   2.695  14.564  0.0496 -0.2432  0.0079
 2255TIP3    H128180   3.478   2.730  14.653  1.5062  1.5316 -0.6178
 2255TIP3    H228181   3.563   2.645  14.561  0.9087  1.1976 -0.8579
 2256TIP3   OH228182   5.144   1.334   1.679  0.2875 -0.1838 -0.3257
 2256TIP3    H128183   5.095   1.252   1.686  0.0031 -0.0814 -1.0848
 2256TIP3    H228184   5.117   1.371   1.595  0.1759  0.8485  0.1605
 2257TIP3   OH228185   1.620   6.752  14.720  0.3393 -0.1172  0.7308
 2257TIP3    H128186   1.577   6.810  14.657 -0.9665 -1.1851  0.6366
 2257TIP3    H228187   1.687   6.707  14.669  1.2303  1.1455  0.7621
 2258TIP3   OH228188   5.268   3.034  16.364 -0.0113 -0.2267 -0.2414
 2258TIP3    H128189   5.231   2.986  16.439 -0.2652  1.3006  0.6213
 2258TIP3    H228190   5.340   2.978  16.333 -1.0810 -1.7603 -0.0359
 2259TIP3   OH228191   1.746   6.324  13.023 -0.1132 -0.8554  0.1535
 2259TIP3    H128192   1.782   6.383  13.090 -0.0706 -1.3111  0.5344
 2259TIP3    H228193   1.806   6.332  12.949  0.7464 -1.5691  0.7625
 2260TIP3   OH228194   2.830   0.285   2.933 -0.1460 -0.2214 -0.7130
 2260TIP3    H128195   2.814   0.197   2.900 -0.0626 -0.5118  0.0072
 2260TIP3    H228196   2.811   0.280   3.026  2.4740 -0.1825 -0.1231
 2261TIP3   OH228197   0.033   5.227  10.705 -0.1946  0.1954  0.2310
 2261TIP3    H128198   0.097   5.261  10.644 -0.0141 -0.4831  0.0326
 2261TIP3    H228199  -0.037   5.292  10.707  0.1881  0.6099 -0.0674
 2262TIP3   OH228200   0.740   1.755   4.525 -0.0130  0.2100  0.1863
 2262TIP3    H128201   0.669   1.819   4.532  0.0185  0.1202  1.5806
 2262TIP3    H228202   0.757   1.729   4.616  0.0761 -1.6619 -0.3328
 2263TIP3   OH228203   3.299   5.584  15.350  0.1508  0.2281 -0.0816
 2263TIP3    H128204   3.345   5.645  15.408  0.1513  2.6215 -2.5416
 2263TIP3    H228205   3.212   5.622  15.340 -0.1266 -0.6381 -0.9898
 2264TIP3   OH228206   3.350   1.402   3.613 -0.2269 -0.1155  0.0021
 2264TIP3    H128207   3.437   1.400   3.573 -0.0696 -0.6173  0.3642
 2264TIP3    H228208   3.362   1.446   3.697 -0.2253 -0.6121  0.2679
 2265TIP3   OH228209   4.216   0.662   5.551  0.2971  0.3683 -0.0899
 2265TIP3    H128210   4.260   0.636   5.470  0.8496  0.2472  0.2464
 2265TIP3    H228211   4.253   0.747   5.573  0.8576 -0.0403  0.5556
 2266TIP3   OH228212   5.686   0.342   5.143 -0.6097  0.3005  0.2229
 2266TIP3    H128213   5.641   0.371   5.063  1.7044  2.0427 -0.4912
 2266TIP3    H228214   5.779   0.349   5.122  0.0425  0.6699  3.0630
 2267TIP3   OH228215   4.450   4.648  12.463 -0.2251 -0.1050 -0.2789
 2267TIP3    H128216   4.440   4.616  12.553  0.5454  0.4662  0.0118
 2267TIP3    H228217   4.372   4.615  12.418  0.1760 -1.7728  0.1994
 2268TIP3   OH228218   1.775   6.225   2.638  0.2358  0.2237 -0.3521
 2268TIP3    H128219   1.732   6.147   2.674 -1.0001  1.6248  1.3265
 2268TIP3    H228220   1.705   6.269   2.589 -0.0178  2.0416  1.6117
 2269TIP3   OH228221   0.351   2.170   4.182 -0.3576 -0.0410  0.1186
 2269TIP3    H128222   0.415   2.103   4.207 -0.9353 -1.5838 -2.3111
 2269TIP3    H228223   0.395   2.222   4.115 -1.5817 -1.1182 -1.5813
 2270TIP3   OH228224   1.078   4.139  10.486 -0.0567  0.5893 -0.0936
 2270TIP3    H128225   1.146   4.073  10.470 -1.8936 -1.6158  0.8775
 2270TIP3    H228226   1.126   4.217  10.512  2.1553 -0.6244 -0.3884
 2271TIP3   OH228227   1.773   0.954  13.928 -0.3784  0.1264 -0.5933
 2271TIP3    H128228   1.820   1.019  13.876  1.9345 -0.1521  1.0745
 2271TIP3    H228229   1.770   0.991  14.016 -0.9964 -1.0330 -0.1221
 2272TIP3   OH228230   3.522   6.234   1.117  0.5182 -0.6133  0.0924
 2272TIP3    H128231   3.566   6.285   1.185 -0.3515 -1.1389  1.0676
 2272TIP3    H228232   3.538   6.143   1.142  0.5309 -0.8176 -0.6414
 2273TIP3   OH228233   0.711   4.227  14.017 -0.1489 -0.4221  0.2859
 2273TIP3    H128234   0.619   4.222  14.045  0.0492 -0.9497  0.8607
 2273TIP3    H228235   0.733   4.320  14.023 -0.6480 -0.2956  0.1541
 2274TIP3   OH228236   0.969   6.230  16.858  0.2528  0.4315 -1.0610
 2274TIP3    H128237   0.895   6.236  16.919  0.3357  0.5351 -0.9682
 2274TIP3    H228238   1.046   6.246  16.913  0.5027 -1.6020 -0.7897
 2275TIP3   OH228239   2.317   1.233   3.281  0.4979  0.0214  0.4735
 2275TIP3    H128240   2.334   1.284   3.360 -2.8236 -0.3967  1.5238
 2275TIP3    H228241   2.274   1.153   3.312 -0.2515 -0.4669 -1.6831
 2276TIP3   OH228242   4.921   4.856  16.798  0.4103 -0.0675 -0.0767
 2276TIP3    H128243   4.845   4.899  16.838  0.8197  0.0455  0.5897
 2276TIP3    H228244   4.929   4.897  16.712 -1.5718 -1.5754 -1.0421
 2277TIP3   OH228245   4.268   5.614  12.933  1.1596  0.1632 -0.2822
 2277TIP3    H128246   4.229   5.692  12.975  1.0967 -0.2308  0.4033
 2277TIP3    H228247   4.226   5.540  12.977  1.0193 -0.2610 -1.1188
 2278TIP3   OH228248   4.133   5.594  14.347  0.2392 -0.6340 -0.1655
 2278TIP3    H128249   4.055   5.612  14.296  0.3114  0.4725  0.1114
 2278TIP3    H228250   4.159   5.679  14.382  1.7334 -0.9331 -0.5060
 2279TIP3   OH228251   6.002   0.581  17.022 -0.2266 -0.7991 -0.9105
 2279TIP3    H128252   5.920   0.572  17.069  1.2948  0.0509  2.0170
 2279TIP3    H228253   6.034   0.491  17.012 -0.2391 -0.9540  0.3215
 2280TIP3   OH228254   4.365   1.854  11.899 -0.5962  0.1529  0.1692
 2280TIP3    H128255   4.445   1.802  11.886  0.3006  1.1375  1.5496
 2280TIP3    H228256   4.313   1.803  11.961 -1.0512 -0.4991 -0.7456
 2281TIP3   OH228257   4.053   1.589   3.763  0.2528 -0.5974  0.2378
 2281TIP3    H128258   4.108   1.660   3.729 -1.3354 -0.1495 -1.4840
 2281TIP3    H228259   3.996   1.631   3.826 -2.0483  0.1043 -2.2283
 2282TIP3   OH228260   3.965   6.597   4.949  0.0270  0.5661 -0.2518
 2282TIP3    H128261   4.052   6.558   4.947 -0.6146 -0.9622  0.9208
 2282TIP3    H228262   3.949   6.615   5.041 -1.8450 -1.3666 -0.1681
 2283TIP3   OH228263   2.637   4.012  14.884  0.0457 -0.4605  0.4433
 2283TIP3    H128264   2.542   4.000  14.882 -0.2849  1.8524  0.5081
 2283TIP3    H228265   2.667   3.981  14.799 -0.7704 -1.2484  0.4370
 2284TIP3   OH228266   2.131   2.188  10.960  0.6654 -0.2546 -0.0131
 2284TIP3    H128267   2.115   2.279  10.935  0.7188 -0.6027 -1.3476
 2284TIP3    H228268   2.195   2.156  10.895 -0.0068 -1.4922 -0.0768
 2285TIP3   OH228269   1.458   6.318  17.101  0.1993 -0.1781  0.2155
 2285TIP3    H128270   1.389   6.314  17.167  0.3823  1.4077  0.5300
 2285TIP3    H228271   1.530   6.267  17.137 -0.1883 -0.4336  0.6280
 2286TIP3   OH228272   3.140   6.190  12.243  0.1080 -0.1528  0.8495
 2286TIP3    H128273   3.218   6.229  12.203  1.1897 -2.8037  0.3324
 2286TIP3    H228274   3.172   6.146  12.321 -1.1925  0.3746  1.6975
 2287TIP3   OH228275   5.241   1.866  16.357  0.2123  0.5273 -0.3506
 2287TIP3    H128276   5.217   1.791  16.303 -1.4150 -0.9099  2.3153
 2287TIP3    H228277   5.327   1.844  16.393  0.2030  0.4164 -0.3954
 2288TIP3   OH228278   1.614   1.781   0.947 -0.0718  0.6870  0.0418
 2288TIP3    H128279   1.540   1.840   0.930 -0.4889  0.4837  1.1164
 2288TIP3    H228280   1.610   1.716   0.877 -1.2689  0.3326  0.4352
 2289TIP3   OH228281   4.427   6.350  16.734  0.0057  0.5529  0.0249
 2289TIP3    H128282   4.379   6.410  16.677 -1.7192 -2.3562 -1.6920
 2289TIP3    H228283   4.479   6.297  16.674  0.4380 -0.6260  1.4209
 2290TIP3   OH228284   5.107   1.780  11.452 -0.1129  0.1238 -0.2564
 2290TIP3    H128285   5.031   1.809  11.401 -0.8399  1.7453  1.6817
 2290TIP3    H228286   5.095   1.686  11.462  0.4187 -0.3682 -3.6459
 2291TIP3   OH228287   4.695   2.212   6.359  0.2349 -0.0154  0.8357
 2291TIP3    H128288   4.640   2.229   6.283  1.1265 -1.0456 -0.0557
 2291TIP3    H228289   4.657   2.266   6.429 -2.6143 -1.6038  0.5748
 2292TIP3   OH228290   1.590   0.992  15.766  0.4600 -0.0051  0.4518
 2292TIP3    H128291   1.633   1.075  15.743 -0.3568  0.9525  2.2823
 2292TIP3    H228292   1.661   0.937  15.800  1.5012 -1.0754 -3.2060
 2293TIP3   OH228293   1.198   5.644   0.732 -0.1568 -0.2378  0.0579
 2293TIP3    H128294   1.109   5.614   0.752 -0.0123 -1.2384 -0.7503
 2293TIP3    H228295   1.250   5.564   0.727  0.3178  0.1557 -1.7337
 2294TIP3   OH228296   0.713   1.734  14.225 -0.3205 -0.0263 -0.2966
 2294TIP3    H128297   0.749   1.736  14.136 -2.3435 -2.0875 -1.2141
 2294TIP3    H228298   0.707   1.641  14.247 -4.7495  0.1504 -0.1336
 2295TIP3   OH228299   4.526   2.683  14.765  0.5996 -0.1091 -0.6157
 2295TIP3    H128300   4.459   2.614  14.758 -1.0152  1.2802  0.5346
 2295TIP3    H228301   4.602   2.648  14.718 -1.0978 -1.5402 -2.3952
 2296TIP3   OH228302   6.475   2.384  15.149 -0.0868 -0.4576  0.1542
 2296TIP3    H128303   6.440   2.298  15.170  0.2880 -1.0283 -1.4507
 2296TIP3    H228304   6.491   2.381  15.054  0.1089  1.3028  0.1026
 2297TIP3   OH228305   4.133   2.341  16.340 -0.4788  0.2380  0.0250
 2297TIP3    H128306   4.100   2.261  16.298  0.3017 -0.1064  0.0391
 2297TIP3    H228307   4.141   2.404  16.269 -0.0130 -0.0617 -0.1897
 2298TIP3   OH228308   2.705   6.339   4.168 -0.5536 -0.0143  0.4361
 2298TIP3    H128309   2.663   6.346   4.254 -1.5334 -1.4987  0.0940
 2298TIP3    H228310   2.646   6.386   4.108  0.6320  1.8826  0.7233
 2299TIP3   OH228311   3.529   2.931   0.334 -0.0210  0.1633  0.0173
 2299TIP3    H128312   3.548   2.837   0.342  0.9976  0.4106  0.6066
 2299TIP3    H228313   3.496   2.956   0.420  2.5121  0.9568  0.8044
 2300TIP3   OH228314   0.002   1.568   5.110 -0.5110 -0.2394  0.1768
 2300TIP3    H128315   0.037   1.537   5.193 -1.8996  0.2612  0.9545
 2300TIP3    H228316  -0.088   1.538   5.109 -1.7168  3.1208  0.6497
 2301TIP3   OH228317   5.014   2.639  15.600  0.1966 -0.0368 -0.0382
 2301TIP3    H128318   5.066   2.676  15.528  1.1756 -2.2660 -0.5210
 2301TIP3    H228319   5.034   2.695  15.675  1.7600  0.3263 -0.7043
 2302TIP3   OH228320   0.755   1.995   2.272 -0.2263 -0.3866  0.0326
 2302TIP3    H128321   0.705   2.059   2.321  0.0895 -0.5594  0.5867
 2302TIP3    H228322   0.690   1.947   2.221 -0.5028  0.1022 -0.0791
 2303TIP3   OH228323   6.559   5.087   0.053 -0.0793  0.1724 -0.4199
 2303TIP3    H128324   6.618   5.125   0.117 -0.5665  1.5578 -0.7689
 2303TIP3    H228325   6.482   5.144   0.054 -1.0629 -1.1251 -0.5614
 2304TIP3   OH228326   0.144   0.473   1.102 -0.0337  0.7556  0.2895
 2304TIP3    H128327   0.224   0.430   1.072 -0.7631 -0.8566  0.5850
 2304TIP3    H228328   0.097   0.497   1.022  0.6147  1.4697  0.1196
 2305TIP3   OH228329   2.242   6.668  16.069 -0.2549 -0.0754 -0.3245
 2305TIP3    H128330   2.307   6.728  16.032  0.1048 -1.3954 -1.8958
 2305TIP3    H228331   2.287   6.626  16.142 -0.7343  2.0347  1.2384
 2306TIP3   OH228332   0.398   4.249   1.097 -0.3011  0.8216  0.0232
 2306TIP3    H128333   0.330   4.305   1.061 -0.5374  0.6621  0.2199
 2306TIP3    H228334   0.351   4.174   1.134 -0.0540  0.9209  0.5465
 2307TIP3   OH228335   5.395   6.507  14.762  0.2218  0.3915  0.1586
 2307TIP3    H128336   5.481   6.548  14.753 -0.4969  2.2143  1.2286
 2307TIP3    H228337   5.333   6.580  14.761 -1.1247 -0.6437  2.0481
 2308TIP3   OH228338   0.520   0.403   1.809  0.1221  0.8745  0.0426
 2308TIP3    H128339   0.583   0.334   1.830  0.8617  1.6676  0.4370
 2308TIP3    H228340   0.436   0.367   1.838  0.3167 -0.3357 -0.8322
 2309TIP3   OH228341   0.742   3.233   1.281 -0.2797 -0.0692 -0.3878
 2309TIP3    H128342   0.735   3.220   1.375 -2.4535  2.1538 -0.2085
 2309TIP3    H228343   0.679   3.302   1.261  0.8348  0.1710 -3.3317
 2310TIP3   OH228344   3.588   5.859   3.568  0.1369 -0.9731 -0.5786
 2310TIP3    H128345   3.510   5.915   3.574 -0.2933 -1.7439  1.1023
 2310TIP3    H228346   3.555   5.774   3.541  0.5148 -1.0905 -0.6778
 2311TIP3   OH228347   4.649   1.383   5.044 -0.4701 -0.3799  0.1628
 2311TIP3    H128348   4.710   1.457   5.039 -0.5477  0.0809  4.3180
 2311TIP3    H228349   4.706   1.306   5.044 -0.2948 -0.2902 -2.3842
 2312TIP3   OH228350   4.605   6.339  14.515 -0.4763  0.1856 -0.1881
 2312TIP3    H128351   4.514   6.367  14.509 -0.4699 -0.1759 -2.9013
 2312TIP3    H228352   4.602   6.244  14.497  0.5091  0.3688 -1.4660
 2313TIP3   OH228353   4.322   0.329   4.621  0.3077  0.5213 -0.0474
 2313TIP3    H128354   4.238   0.367   4.648  0.6729  1.4184 -0.1627
 2313TIP3    H228355   4.299   0.243   4.585 -0.5455  0.7039  0.0486
 2314TIP3   OH228356   1.153   1.591  16.287  0.4147 -0.4380 -0.0089
 2314TIP3    H128357   1.119   1.657  16.228  0.0202  0.5124  1.2514
 2314TIP3    H228358   1.183   1.520  16.230 -1.5994 -0.3309 -1.2414
 2315TIP3   OH228359   0.361   5.607  16.217 -0.0322  0.0625  0.5134
 2315TIP3    H128360   0.397   5.585  16.131  0.3735  2.2938  0.0695
 2315TIP3    H228361   0.287   5.548  16.228 -0.2414 -0.0817 -1.5004
 2316TIP3   OH228362   5.744   1.409  10.991  0.3871  0.0050  0.0286
 2316TIP3    H128363   5.675   1.422  10.925  0.4088 -0.3598 -0.0710
 2316TIP3    H228364   5.819   1.458  10.958  0.4508 -0.3101 -0.3083
 2317TIP3   OH228365   2.353   3.410   5.194  0.3982  0.1283  0.1362
 2317TIP3    H128366   2.407   3.339   5.229  2.1185  0.9598 -0.8185
 2317TIP3    H228367   2.379   3.487   5.243 -1.6893  0.0976  1.3822
 2318TIP3   OH228368   4.915   1.603  15.217  0.0506 -0.0294 -1.1622
 2318TIP3    H128369   4.883   1.517  15.188  0.5206 -0.1710 -1.2572
 2318TIP3    H228370   4.995   1.584  15.265 -1.6901  0.0383  1.8528
 2319TIP3   OH228371   0.976   4.313  12.501  0.3779 -0.1080  0.1767
 2319TIP3    H128372   1.060   4.322  12.456  0.5807  0.2998  0.6319
 2319TIP3    H228373   0.917   4.276  12.435  0.3728  1.5341 -0.7757
 2320TIP3   OH228374   0.656   1.779  12.427 -0.8100  0.2633  0.8743
 2320TIP3    H128375   0.624   1.858  12.470  1.1474  1.0238  0.9622
 2320TIP3    H228376   0.729   1.749  12.481 -0.2856 -0.4998 -0.2326
 2321TIP3   OH228377   3.576   3.303   4.852 -0.0567  0.6381 -0.0549
 2321TIP3    H128378   3.505   3.326   4.793 -1.0139 -0.3862  0.6731
 2321TIP3    H228379   3.588   3.380   4.907 -2.2570 -0.0342  1.4209
 2322TIP3   OH228380   4.974   6.404  15.350 -0.2261 -0.5291 -0.0690
 2322TIP3    H128381   5.057   6.445  15.327 -0.4466  0.8537  1.4726
 2322TIP3    H228382   4.939   6.370  15.268  1.7086 -0.8397 -0.7696
 2323TIP3   OH228383   1.975   3.028  12.966 -0.6410  0.0130  0.3397
 2323TIP3    H128384   2.057   3.073  12.986 -0.2022 -1.0063  0.8832
 2323TIP3    H228385   1.923   3.039  13.046 -1.8683  2.4157 -0.7193
 2324TIP3   OH228386   5.403   5.708  16.750 -0.3958  0.1113  0.5092
 2324TIP3    H128387   5.481   5.729  16.801 -0.2187 -0.4177  0.4672
 2324TIP3    H228388   5.334   5.698  16.815 -0.0698 -1.0199  0.7043
 2325TIP3   OH228389   5.087   4.885  16.998  0.0784  0.2078  0.4620
 2325TIP3    H128390   5.172   4.926  16.980 -1.4868  2.9967 -0.8761
 2325TIP3    H228391   5.047   4.873  16.913 -0.1282 -2.8848  0.9480
 2326TIP3   OH228392   2.288   1.388   1.996  0.3386  0.4461  0.8976
 2326TIP3    H128393   2.316   1.305   2.035  0.2045 -0.8649 -1.7028
 2326TIP3    H228394   2.353   1.452   2.026  1.4170 -0.9366  1.5424
 2327TIP3   OH228395   3.192   6.634   3.487 -0.0030  0.3418  0.4011
 2327TIP3    H128396   3.212   6.558   3.433 -2.3313  1.3471 -1.9624
 2327TIP3    H228397   3.185   6.706   3.425 -0.3743  2.0037  2.3282
 2328TIP3   OH228398   4.844   0.185   3.014  0.7903  1.1232  0.5667
 2328TIP3    H128399   4.778   0.217   2.953 -1.4593  0.0422  2.3539
 2328TIP3    H228400   4.824   0.230   3.096  1.1092 -0.6041  1.6102
 2329TIP3   OH228401   1.794   0.823   2.928 -0.2244  0.0300  0.2732
 2329TIP3    H128402   1.857   0.775   2.982  1.7549 -1.2611 -3.0454
 2329TIP3    H228403   1.724   0.760   2.912 -0.3890  0.1311  0.5853
 2330TIP3   OH228404   5.059   2.945  16.918 -0.3724  0.0702  0.0524
 2330TIP3    H128405   4.991   2.877  16.921 -0.0856 -0.1878  1.0384
 2330TIP3    H228406   5.011   3.028  16.926 -0.5290 -0.1459  1.5637
 2331TIP3   OH228407   0.260   3.371   0.208  0.0342 -0.4840 -0.2655
 2331TIP3    H128408   0.344   3.416   0.209  0.0398 -0.4687  2.0932
 2331TIP3    H228409   0.281   3.280   0.226 -0.3059 -0.7677 -1.3106
 2332TIP3   OH228410   6.726   4.082  15.059  0.6510  0.5435  0.2577
 2332TIP3    H128411   6.733   4.014  14.993 -0.3057 -0.2629  0.9692
 2332TIP3    H228412   6.801   4.066  15.117  0.9251  0.6373 -0.0703
 2333TIP3   OH228413   6.705   0.760  16.463 -0.0304 -0.3933  0.0308
 2333TIP3    H128414   6.742   0.676  16.434  0.8732  0.3662 -1.0522
 2333TIP3    H228415   6.775   0.823  16.448 -1.5688  0.9741 -1.4751
 2334TIP3   OH228416   4.836   5.323  11.678 -0.3014 -0.0459 -0.3045
 2334TIP3    H128417   4.879   5.247  11.638  0.6666  0.7630 -0.8372
 2334TIP3    H228418   4.864   5.321  11.769  1.3466  0.7775 -0.7654
 2335TIP3   OH228419   2.113   1.489  16.245 -0.0875  0.3227  0.5465
 2335TIP3    H128420   2.046   1.557  16.252 -0.4489 -0.0047  0.3303
 2335TIP3    H228421   2.065   1.407  16.255  0.0186  0.0151 -1.2924
 2336TIP3   OH228422   5.148   2.560  12.913 -0.4316 -0.3383  0.0845
 2336TIP3    H128423   5.068   2.514  12.940 -0.4332 -0.1611  0.3813
 2336TIP3    H228424   5.193   2.578  12.995 -0.2819 -0.0772 -0.0584
 2337TIP3   OH228425   1.108   4.644   0.805  0.4998  0.3858 -0.3738
 2337TIP3    H128426   1.172   4.690   0.752  0.8575  0.3003 -0.0187
 2337TIP3    H228427   1.061   4.588   0.743 -0.1914  1.4933 -0.8649
 2338TIP3   OH228428   5.264   5.352   4.961 -0.1064  0.0926  0.5652
 2338TIP3    H128429   5.271   5.339   4.866 -0.5435 -1.5026  0.7257
 2338TIP3    H228430   5.354   5.350   4.992 -0.0901 -2.0646  0.4777
 2339TIP3   OH228431   0.112   3.612  11.813 -0.3812 -0.0330  0.5483
 2339TIP3    H128432   0.137   3.519  11.813 -0.8752 -0.1687  0.6228
 2339TIP3    H228433   0.177   3.655  11.868 -0.0116 -0.2984  0.3241
 2340TIP3   OH228434   0.034   1.339   3.227  0.0926 -0.4364 -0.6269
 2340TIP3    H128435   0.050   1.415   3.282  0.8370 -1.8836  1.2298
 2340TIP3    H228436   0.029   1.373   3.138 -2.7747  2.1915  0.4517
 2341TIP3   OH228437   4.827   3.714  11.405 -0.1610  0.3974 -0.6062
 2341TIP3    H128438   4.838   3.809  11.410  2.5609  0.1429 -1.1872
 2341TIP3    H228439   4.870   3.689  11.323  0.0586 -1.4448  0.0515
 2342TIP3   OH228440   4.335   4.713   2.602  0.4117  0.4040 -0.2965
 2342TIP3    H128441   4.376   4.633   2.572  0.5419 -0.1310  1.2695
 2342TIP3    H228442   4.253   4.718   2.553  0.0790 -1.0491  0.0872
 2343TIP3   OH228443   4.823   6.243  13.304  0.1401  0.3467  0.4537
 2343TIP3    H128444   4.806   6.337  13.309  1.0484  0.6432 -1.6269
 2343TIP3    H228445   4.917   6.234  13.320  0.0587 -0.2124  0.6452
 2344TIP3   OH228446   1.463   2.520   5.089  0.2267  0.1614  0.3493
 2344TIP3    H128447   1.418   2.567   5.159  1.7951  2.1764  0.0677
 2344TIP3    H228448   1.540   2.481   5.131  0.0536 -0.3820  0.1634
 2345TIP3   OH228449   2.154   0.478   3.261 -0.1411  0.2057  0.0714
 2345TIP3    H128450   2.105   0.422   3.320 -1.5892  1.5860  0.2219
 2345TIP3    H228451   2.215   0.525   3.318 -0.7848  0.7374  0.3311
 2346TIP3   OH228452   3.916   2.395   0.248 -0.1219  0.7168  0.5373
 2346TIP3    H128453   3.922   2.462   0.180 -1.2788  1.1081  0.8153
 2346TIP3    H228454   4.007   2.378   0.273  0.2056  1.8032  0.0940
 2347TIP3   OH228455   4.220   6.062   0.198 -0.4579  0.0279 -0.6695
 2347TIP3    H128456   4.283   6.117   0.244 -1.2712  0.1230  0.3497
 2347TIP3    H228457   4.273   5.993   0.158  0.3039  0.1794  0.0746
 2348TIP3   OH228458   4.826   1.338   3.474  0.4760  0.5745 -0.1516
 2348TIP3    H128459   4.889   1.268   3.492  0.0918  1.2835  4.5741
 2348TIP3    H228460   4.745   1.291   3.451  0.3794 -0.6007  2.3807
 2349TIP3   OH228461   0.070   5.670   0.025  0.1007 -0.5838  0.4745
 2349TIP3    H128462  -0.025   5.659   0.022  0.1915 -1.0830 -1.7077
 2349TIP3    H228463   0.095   5.641   0.113 -1.8817  0.6390  1.4851
 2350TIP3   OH228464   3.861   0.944  10.301  0.5204  0.1144 -0.1983
 2350TIP3    H128465   3.881   0.872  10.361 -0.5332 -1.8624 -2.1564
 2350TIP3    H228466   3.861   1.022  10.356 -1.0438 -1.7202  2.5027
 2351TIP3   OH228467   6.755   0.205  13.412  0.1540 -0.1888  0.1727
 2351TIP3    H128468   6.722   0.205  13.323 -0.3550 -0.9773  0.3579
 2351TIP3    H228469   6.684   0.169  13.465 -1.1018  3.9517  1.4849
 2352TIP3   OH228470   5.226   1.347   5.218 -0.5102 -0.7204  0.3135
 2352TIP3    H128471   5.247   1.432   5.180 -1.0268  0.0635  1.7225
 2352TIP3    H228472   5.305   1.294   5.206  0.2464  0.3614  0.5223
 2353TIP3   OH228473   4.043   6.306  16.703  0.1485 -0.0267 -0.7223
 2353TIP3    H128474   4.061   6.311  16.609  0.2658  0.4363 -0.6775
 2353TIP3    H228475   4.119   6.260  16.739  0.5858  0.6778 -0.7254
 2354TIP3   OH228476   3.653   1.310  14.814  0.0858 -0.1056  0.5770
 2354TIP3    H128477   3.693   1.223  14.809  0.2338 -0.2085  3.0369
 2354TIP3    H228478   3.667   1.347  14.727 -0.0311 -2.5524 -0.5413
 2355TIP3   OH228479   5.958   5.948   5.399 -0.0712 -0.0054 -0.1581
 2355TIP3    H128480   6.014   5.926   5.473  0.8904  1.4153 -0.4585
 2355TIP3    H228481   5.880   5.894   5.412  0.4906 -0.4854  1.3597
 2356TIP3   OH228482   4.823   1.835   1.900  0.0962  0.0014  0.1741
 2356TIP3    H128483   4.848   1.909   1.845 -2.7192  1.0185  0.2067
 2356TIP3    H228484   4.892   1.831   1.967  0.2508  2.6833  0.2340
 2357TIP3   OH228485   1.322   4.426   0.798  0.0163 -0.0007 -0.1725
 2357TIP3    H128486   1.281   4.344   0.824 -1.1781  1.1174  1.5027
 2357TIP3    H228487   1.249   4.486   0.783  0.8735  0.7412 -1.5404
 2358TIP3   OH228488   4.347   4.631  16.421 -0.4272 -0.0707 -0.0733
 2358TIP3    H128489   4.401   4.709  16.415 -1.0850  0.3978  0.0798
 2358TIP3    H228490   4.309   4.634  16.509 -2.5915  0.8658 -0.9990
 2359TIP3   OH228491   2.466   5.995   1.459  0.6841 -0.3694  0.0028
 2359TIP3    H128492   2.411   6.023   1.385  1.0939  1.8639  0.5197
 2359TIP3    H228493   2.537   6.059   1.462  1.2183 -1.0141  1.7227
 2360TIP3   OH228494   5.776   6.776  14.271  0.2267  0.2442  0.7116
 2360TIP3    H128495   5.831   6.702  14.297 -0.1145  0.1887  1.2851
 2360TIP3    H228496   5.745   6.813  14.354  1.2509  1.6851  0.4812
 2361TIP3   OH228497   2.414   0.397   4.964 -0.2031 -0.0729  0.3058
 2361TIP3    H128498   2.471   0.345   4.907 -0.8314 -0.8346  0.3555
 2361TIP3    H228499   2.473   0.458   5.008  0.4751 -0.3812 -0.1638
 2362TIP3   OH228500   0.191   3.495   3.737  0.0753 -0.1916  0.2491
 2362TIP3    H128501   0.138   3.543   3.673  0.0285 -1.0336 -0.3481
 2362TIP3    H228502   0.173   3.538   3.820 -0.5872  0.3134 -0.1519
 2363TIP3   OH228503   3.308   6.351  14.339  0.3509  0.1375  0.3953
 2363TIP3    H128504   3.382   6.385  14.289 -0.4432  0.9117 -0.2964
 2363TIP3    H228505   3.313   6.256  14.329  0.5205  0.2524 -0.7267
 2364TIP3   OH228506   2.757   1.193   0.551  0.1730  0.1687  0.4303
 2364TIP3    H128507   2.765   1.268   0.610  0.0699  0.8838 -0.4606
 2364TIP3    H228508   2.665   1.193   0.524  0.0869 -0.4988  0.7155
 2365TIP3   OH228509   0.809   3.823  14.791 -0.1012 -0.0448  0.4766
 2365TIP3    H128510   0.781   3.738  14.757 -1.1242  0.2222  0.6215
 2365TIP3    H228511   0.889   3.844  14.742 -0.3013 -0.7114 -0.1389
 2366TIP3   OH228512   1.152   5.884   5.823  0.0629 -0.4004  0.1647
 2366TIP3    H128513   1.199   5.912   5.902  1.2165  1.4238 -1.1281
 2366TIP3    H228514   1.096   5.812   5.853  0.4300  0.2893  2.6553
 2367TIP3   OH228515   6.688   6.511  15.751 -0.2245  0.1217  0.2928
 2367TIP3    H128516   6.775   6.473  15.740 -0.2984  0.4051 -1.4852
 2367TIP3    H228517   6.704   6.605  15.754 -0.5890  0.2669 -1.6621
 2368TIP3   OH228518   5.210   1.903  15.794 -0.4621  0.1745 -0.0485
 2368TIP3    H128519   5.284   1.891  15.735 -0.8225 -0.0326 -0.4562
 2368TIP3    H228520   5.136   1.926  15.737 -0.3632  1.8945  0.4905
 2369TIP3   OH228521   2.060   2.991  11.111 -0.2530 -0.2123  0.8497
 2369TIP3    H128522   1.970   2.977  11.083 -0.3444  1.1995  0.3919
 2369TIP3    H228523   2.069   3.086  11.117  1.2506 -0.3328  0.7115
 2370TIP3   OH228524   0.382   0.180   4.191 -0.0483 -0.4109  1.0381
 2370TIP3    H128525   0.371   0.085   4.198  0.1139 -0.4093  1.2992
 2370TIP3    H228526   0.292   0.214   4.189 -0.1140 -0.6620 -0.3228
 2371TIP3   OH228527   4.125   4.150  15.727  0.3758  0.1142 -0.0089
 2371TIP3    H128528   4.109   4.191  15.812  0.4029  0.0171  0.0447
 2371TIP3    H228529   4.214   4.115  15.735 -0.3631 -1.6822  0.6642
 2372TIP3   OH228530   6.437   2.991   2.478  0.0122 -0.6748  0.1482
 2372TIP3    H128531   6.474   3.067   2.433 -0.9661  0.9143  1.9684
 2372TIP3    H228532   6.506   2.962   2.537  0.7618 -1.8598 -1.2859
 2373TIP3   OH228533   6.332   2.624   3.107 -0.5411  0.0986  0.0750
 2373TIP3    H128534   6.294   2.666   3.183 -1.5510 -0.9654  0.1750
 2373TIP3    H228535   6.273   2.551   3.088  1.1837 -1.2802 -0.0749
 2374TIP3   OH228536   1.052   0.562  16.600  0.5163  0.0734 -0.7631
 2374TIP3    H128537   1.091   0.552  16.513 -0.7344  0.2997 -1.3612
 2374TIP3    H228538   1.057   0.656  16.618  3.0848 -0.2521  0.5275
 2375TIP3   OH228539   2.034   3.293   1.637 -0.0976  0.5954 -0.1890
 2375TIP3    H128540   1.949   3.305   1.595 -1.0468 -1.1447  1.1491
 2375TIP3    H228541   2.050   3.198   1.630  1.6929  0.8965 -0.3451
 2376TIP3   OH228542   0.613   5.146  16.058 -0.4037  0.1042  0.4839
 2376TIP3    H128543   0.653   5.167  16.143 -2.1452 -2.6062  2.0396
 2376TIP3    H228544   0.687   5.127  16.001  0.8052  2.1775  1.3077
 2377TIP3   OH228545   3.070   3.114  14.575  0.0343 -0.1492 -0.1579
 2377TIP3    H128546   3.071   3.127  14.670  0.4040 -3.5380  0.3366
 2377TIP3    H228547   3.151   3.068  14.556  0.5825  1.6149 -2.3392
 2378TIP3   OH228548   0.366   2.351   1.693 -0.2049 -0.1655  0.5891
 2378TIP3    H128549   0.439   2.390   1.644 -0.1001 -1.7701 -0.5672
 2378TIP3    H228550   0.328   2.425   1.741 -0.0131  1.3858 -1.5624
 2379TIP3   OH228551   2.449   4.137   0.946 -0.2155  0.0189 -0.6719
 2379TIP3    H128552   2.524   4.188   0.916 -0.0906 -0.0194 -0.4295
 2379TIP3    H228553   2.474   4.046   0.931 -0.3428  0.0208 -0.8874
 2380TIP3   OH228554   4.859   4.892   5.668  0.4004 -0.2026  0.3619
 2380TIP3    H128555   4.840   4.964   5.729 -0.8061  0.0540 -0.3057
 2380TIP3    H228556   4.825   4.922   5.584  0.2087 -1.4069  0.0039
 2381TIP3   OH228557   5.097   3.230   0.798  0.2574 -0.0331 -0.1910
 2381TIP3    H128558   5.022   3.178   0.827  0.0793  0.8213  0.9194
 2381TIP3    H228559   5.060   3.291   0.733  0.1867 -0.2836 -0.3879
 2382TIP3   OH228560   4.392   4.843   2.169 -0.0845 -0.2911  0.3295
 2382TIP3    H128561   4.416   4.754   2.195 -0.6532 -0.0554  1.6921
 2382TIP3    H228562   4.421   4.849   2.078  3.6648 -0.5220  1.4101
 2383TIP3   OH228563   2.616   1.707   1.921  0.0353 -0.2025 -0.2928
 2383TIP3    H128564   2.684   1.643   1.900 -0.0943  0.0589 -1.5313
 2383TIP3    H228565   2.663   1.790   1.932  0.0746 -0.2920  0.2344
 2384TIP3   OH228566   4.561   4.777   3.896  0.2272  0.1129  0.3213
 2384TIP3    H128567   4.528   4.867   3.904 -2.7368 -0.8583 -0.3668
 2384TIP3    H228568   4.566   4.762   3.802 -1.0565 -1.0254  0.4155
 2385TIP3   OH228569   2.034   6.728  15.336  0.2881  0.4148 -0.3356
 2385TIP3    H128570   2.010   6.729  15.243 -2.4981  1.3911  0.3687
 2385TIP3    H228571   1.960   6.687  15.380  0.4578  2.2731  1.7399
 2386TIP3   OH228572   3.533   3.806  13.024  0.2346 -0.4224 -0.1994
 2386TIP3    H128573   3.473   3.731  13.023  1.4477 -1.4300 -0.8394
 2386TIP3    H228574   3.484   3.877  12.983 -0.7369 -1.0408 -0.1291
 2387TIP3   OH228575   2.462   4.877   1.378 -0.6757  0.7182 -0.2425
 2387TIP3    H128576   2.509   4.882   1.461 -0.5060  0.7508 -0.3389
 2387TIP3    H228577   2.504   4.942   1.322 -0.1859  0.0728 -0.6463
 2388TIP3   OH228578   0.724   2.452   6.747 -0.1907  0.4565  0.5116
 2388TIP3    H128579   0.817   2.451   6.771 -0.3288  0.3064  1.0488
 2388TIP3    H228580   0.702   2.545   6.741 -0.1327  0.4974  0.8981
 2389TIP3   OH228581   5.345   4.133   1.991  0.5379  0.2504  0.0730
 2389TIP3    H128582   5.307   4.114   1.905  0.8097 -0.6361  0.1446
 2389TIP3    H228583   5.440   4.128   1.977  0.5888  0.3974  0.3622
 2390TIP3   OH228584   4.390   2.685   0.946 -0.0748 -0.1511  0.2251
 2390TIP3    H128585   4.323   2.751   0.964 -0.3899 -0.3908 -0.0471
 2390TIP3    H228586   4.340   2.607   0.921  0.3287 -0.0322 -0.9965
 2391TIP3   OH228587   5.642   1.785  12.874  0.3149  0.1694 -0.1829
 2391TIP3    H128588   5.722   1.837  12.880 -1.2127  2.5812  0.2133
 2391TIP3    H228589   5.635   1.762  12.782  0.3400  1.8457 -0.6160
 2392TIP3   OH228590   0.449   6.708  17.027  0.0416 -0.2084 -0.2514
 2392TIP3    H128591   0.541   6.734  17.029 -0.5814  2.0609 -0.1427
 2392TIP3    H228592   0.450   6.619  16.992  2.2722 -0.1987 -0.2710
 2393TIP3   OH228593   0.278   0.689   0.346 -0.1317 -0.1157  0.2004
 2393TIP3    H128594   0.276   0.784   0.356  0.2686  0.1732 -2.1751
 2393TIP3    H228595   0.370   0.665   0.358 -0.4060 -0.3742  1.9636
 2394TIP3   OH228596   6.170   1.533  11.393 -0.0840 -0.0471 -0.5797
 2394TIP3    H128597   6.201   1.496  11.311 -0.4051 -0.6161 -0.4476
 2394TIP3    H228598   6.219   1.615  11.403  0.2066 -0.1511 -1.1606
 2395TIP3   OH228599   0.921   4.372  14.813 -0.1862 -0.0317 -0.0247
 2395TIP3    H128600   0.924   4.352  14.719  1.8144  0.5094 -0.1026
 2395TIP3    H228601   0.865   4.449  14.819  1.4563  1.2742 -1.0499
 2396TIP3   OH228602   1.378   1.356   4.979 -0.1513 -0.1266  0.1494
 2396TIP3    H128603   1.304   1.330   4.924  0.2294 -1.0057  0.0349
 2396TIP3    H228604   1.424   1.422   4.927  0.0505 -0.7555 -0.4782
 2397TIP3   OH228605   5.548   0.183   0.819 -0.5187 -0.2119  0.1241
 2397TIP3    H128606   5.487   0.255   0.832 -0.1265  0.4983 -1.6688
 2397TIP3    H228607   5.540   0.161   0.726 -0.9303 -2.7787  0.7232
 2398TIP3   OH228608   1.845   6.051   3.180  0.2865  0.0410  0.4614
 2398TIP3    H128609   1.809   6.122   3.232 -1.2168  0.0169 -0.4984
 2398TIP3    H228610   1.888   5.994   3.243 -0.9245  0.3531  1.6041
 2399TIP3   OH228611   3.633   3.909   4.998  0.3687 -0.4680 -0.3740
 2399TIP3    H128612   3.619   3.896   4.904 -2.2628  3.2367 -0.6227
 2399TIP3    H228613   3.579   3.841   5.039 -1.8915  0.5161 -1.5756
 2400TIP3   OH228614   5.836   5.668   3.015 -0.3770 -0.1683  0.5447
 2400TIP3    H128615   5.927   5.659   3.044 -0.4599 -2.2370  0.2256
 2400TIP3    H228616   5.842   5.715   2.932  0.4405 -0.6218  0.3360
 2401TIP3   OH228617   0.119   3.621   3.971 -0.1814  1.1501  0.0303
 2401TIP3    H128618   0.179   3.691   3.994  0.9202  0.0588  0.5552
 2401TIP3    H228619   0.032   3.657   3.986  0.3747  2.3882  0.2900
 2402TIP3   OH228620   3.179   1.465  15.818 -0.2106  0.5465 -0.2067
 2402TIP3    H128621   3.180   1.437  15.727  0.7331  0.9580 -0.3284
 2402TIP3    H228622   3.140   1.391  15.865 -0.9976  0.4591 -0.9768
 2403TIP3   OH228623   5.424   2.873   3.047  0.4994 -0.0044  0.1592
 2403TIP3    H128624   5.358   2.925   3.002  1.2567  0.8782  0.0594
 2403TIP3    H228625   5.377   2.831   3.119 -0.7740 -1.5550 -1.4955
 2404TIP3   OH228626   0.826   0.239  11.271 -0.0403 -0.1390  0.2697
 2404TIP3    H128627   0.752   0.195  11.314  0.1097 -1.3024 -0.6334
 2404TIP3    H228628   0.903   0.194  11.305  0.3994  2.3187  2.6517
 2405TIP3   OH228629   5.711   6.338   0.879 -0.5350  0.1793  0.0911
 2405TIP3    H128630   5.616   6.331   0.887 -0.9684  2.8663 -1.9838
 2405TIP3    H228631   5.725   6.374   0.791  2.4111 -0.1242  0.3788
 2406TIP3   OH228632   3.924   2.034   1.691  0.2507 -0.8404  0.5684
 2406TIP3    H128633   3.981   1.967   1.729 -1.1038 -1.3272  1.7773
 2406TIP3    H228634   3.909   2.004   1.601  1.9556 -0.6538  0.1977
 2407TIP3   OH228635   0.520   2.089   4.991 -0.1312 -0.5355  0.1394
 2407TIP3    H128636   0.578   2.121   4.922  1.1027 -1.7957  0.5566
 2407TIP3    H228637   0.434   2.120   4.967  0.9419  2.7975  0.3608
 2408TIP3   OH228638   6.181   2.134   2.348  0.6181  0.0583  0.3207
 2408TIP3    H128639   6.165   2.072   2.276 -4.2937  1.7107 -0.2056
 2408TIP3    H228640   6.262   2.178   2.325 -0.0868 -0.4940 -3.5051
 2409TIP3   OH228641   2.295   1.568   5.642 -0.0045  0.0665 -0.2011
 2409TIP3    H128642   2.355   1.506   5.683 -1.4432 -0.1778  1.6129
 2409TIP3    H228643   2.246   1.607   5.715 -0.8638  1.4954 -1.5008
 2410TIP3   OH228644   2.273   6.393   4.331  0.0701  0.1062  0.4739
 2410TIP3    H128645   2.240   6.306   4.308  0.3372  0.3678 -0.9677
 2410TIP3    H228646   2.199   6.451   4.315 -0.0966  0.1598  1.4047
 2411TIP3   OH228647   0.583   4.995   0.081 -1.2747  0.2885  0.4021
 2411TIP3    H128648   0.489   4.981   0.066 -1.5199  1.8166  0.4040
 2411TIP3    H228649   0.621   4.997  -0.007 -1.1885 -0.7221  0.4189
 2412TIP3   OH228650   3.755   0.720   0.539  0.0764  0.4011 -0.0039
 2412TIP3    H128651   3.734   0.746   0.629 -0.6103  1.5035 -0.4659
 2412TIP3    H228652   3.789   0.800   0.499  0.5350 -0.1311 -0.6786
 2413TIP3   OH228653   1.622   4.680   0.653 -0.0167 -0.0630 -0.4822
 2413TIP3    H128654   1.655   4.632   0.729 -1.5990  1.4537  1.2153
 2413TIP3    H228655   1.674   4.761   0.652  1.5132 -1.0094 -2.3614
 2414TIP3   OH228656   3.247   2.293  14.963 -0.0528 -0.0362  0.4884
 2414TIP3    H128657   3.279   2.315  15.050 -1.7154  3.8045  0.2299
 2414TIP3    H228658   3.314   2.325  14.903  0.2659 -1.1089  0.2473
 2415TIP3   OH228659   3.494   6.649   3.298 -0.1223 -0.0053 -0.2882
 2415TIP3    H128660   3.561   6.622   3.361  1.0512  0.5430 -1.2660
 2415TIP3    H228661   3.462   6.568   3.260  1.2561 -0.1882 -1.0712
 2416TIP3   OH228662   0.934   5.662  12.314 -0.1499  0.2936 -0.2994
 2416TIP3    H128663   1.022   5.671  12.278 -1.1012  0.5602 -2.6626
 2416TIP3    H228664   0.945   5.603  12.389  2.3899  2.1872  0.8879
 2417TIP3   OH228665   1.434   5.744  16.131 -0.1302 -0.0838 -0.0119
 2417TIP3    H128666   1.519   5.787  16.128  0.8048 -1.7779  0.9379
 2417TIP3    H228667   1.380   5.800  16.186  1.0730 -0.1270  1.2416
 2418TIP3   OH228668   4.805   3.174  14.376  0.1873 -0.0489 -0.0631
 2418TIP3    H128669   4.731   3.235  14.380  0.3326  0.2619 -1.7502
 2418TIP3    H228670   4.769   3.090  14.406 -0.8458  0.0936 -0.8823
 2419TIP3   OH228671   5.402   1.176  15.222  0.3935 -0.0770  0.0726
 2419TIP3    H128672   5.314   1.173  15.259  1.4455 -0.6443  2.6012
 2419TIP3    H228673   5.411   1.093  15.175 -0.4386  0.0295 -0.2856
 2420TIP3   OH228674   0.501   6.609   0.070  0.0393 -0.5198  0.4144
 2420TIP3    H128675   0.422   6.599   0.122  0.1499  1.0723  0.9104
 2420TIP3    H228676   0.476   6.670  -0.000  0.9174  0.3249  0.8189
 2421TIP3   OH228677   4.269   2.596   4.253 -0.1329  0.3619 -0.1740
 2421TIP3    H128678   4.259   2.503   4.270  0.2277  0.1054 -1.3566
 2421TIP3    H228679   4.363   2.609   4.243 -0.3011  0.5616 -1.6205
 2422TIP3   OH228680   5.926   2.734  13.455  0.0861  0.1088  0.0777
 2422TIP3    H128681   5.851   2.674  13.465  1.5208 -1.4131  2.1396
 2422TIP3    H228682   5.952   2.754  13.544  1.5597  1.4046 -0.6259
 2423TIP3   OH228683   3.990   4.121   5.194  0.0754 -0.6624 -0.3722
 2423TIP3    H128684   3.987   4.028   5.172 -1.4582 -0.8123  0.4176
 2423TIP3    H228685   3.901   4.152   5.180 -0.1590 -0.0184  2.3255
 2424TIP3   OH228686   0.419   0.372  14.915 -0.1783  1.1546 -0.0605
 2424TIP3    H128687   0.494   0.334  14.869  0.0238  3.6461 -1.8458
 2424TIP3    H228688   0.343   0.326  14.879  0.2761  0.3847 -0.0533
 2425TIP3   OH228689   5.967   5.847  12.944  0.3991  0.4695 -0.5433
 2425TIP3    H128690   5.929   5.798  13.017  2.0132 -0.2152 -0.1464
 2425TIP3    H228691   5.936   5.937  12.956 -0.5411  0.0672  0.1379
 2426TIP3   OH228692   2.960   1.673  12.174  0.0288  0.5048 -0.8340
 2426TIP3    H128693   2.925   1.608  12.235 -0.1291  2.1582  0.8972
 2426TIP3    H228694   3.029   1.627  12.127 -0.4586 -1.0791 -0.0347
 2427TIP3   OH228695   5.540   3.898   2.398 -0.1883 -0.0013 -0.0433
 2427TIP3    H128696   5.611   3.859   2.346 -0.1119 -0.9299  0.7272
 2427TIP3    H228697   5.479   3.934   2.334  0.2573 -0.5057 -0.7528
 2428TIP3   OH228698   4.903   1.471   2.339  0.1544 -0.4477 -0.8332
 2428TIP3    H128699   4.976   1.409   2.341  0.0759 -0.5198  0.1840
 2428TIP3    H228700   4.926   1.533   2.270  1.6460  0.0561  0.0689
 2429TIP3   OH228701   5.459   1.003   2.671  0.3686 -0.3286 -0.0146
 2429TIP3    H128702   5.382   1.059   2.662  0.5048 -0.0067  0.7842
 2429TIP3    H228703   5.438   0.944   2.744  2.0683  1.7598  2.2190
 2430TIP3   OH228704   1.909   4.007   3.944 -0.1141  0.7654 -0.9005
 2430TIP3    H128705   1.921   4.085   3.890 -0.7407  1.3677 -0.1854
 2430TIP3    H228706   1.864   3.945   3.887 -0.1441  1.1463 -1.2898
 2431TIP3   OH228707   1.591   5.558   4.547 -0.0557 -0.4996  0.3845
 2431TIP3    H128708   1.515   5.555   4.605  0.0010  1.1129  0.5856
 2431TIP3    H228709   1.557   5.598   4.466  0.5309  0.1212  0.4349
 2432TIP3   OH228710   3.369   1.236   0.301  0.3859  0.7139  0.3121
 2432TIP3    H128711   3.429   1.223   0.228  0.4717 -0.1847  0.5429
 2432TIP3    H228712   3.422   1.215   0.379 -0.0680  0.4697  0.5542
 2433TIP3   OH228713   1.055   1.711   0.295 -0.5802 -0.6506 -0.0598
 2433TIP3    H128714   1.142   1.679   0.274  0.4807  2.3592 -0.5157
 2433TIP3    H228715   1.069   1.778   0.362 -2.3244  1.1020 -1.3812
 2434TIP3   OH228716   5.801   6.031  16.359 -0.2247 -0.1483  0.1065
 2434TIP3    H128717   5.767   5.943  16.340 -0.6725 -0.5690  2.6226
 2434TIP3    H228718   5.730   6.075  16.406  0.3022  1.2770 -0.4117
 2435TIP3   OH228719   1.579   3.122  13.236  0.5953  0.4125 -0.0465
 2435TIP3    H128720   1.630   3.202  13.248  0.4486  0.4940  0.0408
 2435TIP3    H228721   1.491   3.146  13.265  1.0277 -0.3970  2.0043
 2436TIP3   OH228722   4.053   3.231   6.740 -0.2015  0.5572 -0.0668
 2436TIP3    H128723   4.068   3.321   6.712 -0.1620  0.9958  1.3234
 2436TIP3    H228724   3.964   3.231   6.775 -1.0818 -0.5028 -2.1929
 2437TIP3   OH228725   5.140   4.378   3.830 -0.4433 -0.0607 -0.1671
 2437TIP3    H128726   5.137   4.425   3.913  0.3437  0.1376 -0.2430
 2437TIP3    H228727   5.089   4.299   3.845 -1.9325  0.9047 -0.0892
 2438TIP3   OH228728   4.030   1.251   1.618  0.4052 -0.4069  0.3228
 2438TIP3    H128729   3.972   1.195   1.670 -0.2376 -1.1433 -1.1613
 2438TIP3    H228730   3.985   1.336   1.615 -0.8088 -1.0826 -1.1439
 2439TIP3   OH228731   3.110   6.043   5.760 -0.2360  0.1376  0.1387
 2439TIP3    H128732   3.113   6.117   5.698 -1.7683  0.0312 -0.0995
 2439TIP3    H228733   3.073   6.081   5.840 -2.0439 -0.5904 -0.3358
 2440TIP3   OH228734   5.044   1.025  11.895  0.4364  0.0983 -0.0904
 2440TIP3    H128735   4.981   1.090  11.863  1.4241  0.1083 -2.0283
 2440TIP3    H228736   5.057   1.049  11.987 -1.4035  0.8795 -0.0039
 2441TIP3   OH228737   0.447   5.276   3.957 -0.3043 -0.2752  0.2369
 2441TIP3    H128738   0.359   5.290   3.922 -0.0376  2.1582  0.4811
 2441TIP3    H228739   0.505   5.316   3.892  0.7008 -2.3769 -0.2220
 2442TIP3   OH228740   3.266   0.052  16.818  0.4878 -0.1065 -0.1491
 2442TIP3    H128741   3.276  -0.003  16.741 -1.6904 -0.3841 -0.2844
 2442TIP3    H228742   3.341   0.111  16.816  0.2145  0.2351 -2.7861
 2443TIP3   OH228743   1.093   3.213  16.809  0.1371  0.1045  0.3772
 2443TIP3    H128744   1.095   3.242  16.718  2.6518 -0.3284  0.2819
 2443TIP3    H228745   1.050   3.284  16.856  1.3137  1.5549 -0.7107
 2444TIP3   OH228746   5.678   2.280  10.607 -0.1955 -0.7262 -0.1125
 2444TIP3    H128747   5.706   2.294  10.697  0.5352 -1.5758 -0.2042
 2444TIP3    H228748   5.586   2.253  10.615 -0.8414  1.4586  0.2194
 2445TIP3   OH228749   1.281   2.025  13.445 -0.0942  0.0383 -0.2715
 2445TIP3    H128750   1.365   1.979  13.435 -0.0134  0.4527 -1.6296
 2445TIP3    H228751   1.277   2.083  13.369 -1.1433  0.7762  0.3473
 2446TIP3   OH228752   4.973   4.394  17.018 -0.0343 -0.6103 -0.1672
 2446TIP3    H128753   5.040   4.454  17.050 -0.5177 -0.4651  0.6012
 2446TIP3    H228754   4.919   4.446  16.960  0.5519 -0.7447 -0.8439
 2447TIP3   OH228755   3.582   5.083   0.175  0.6651 -0.0754  0.2464
 2447TIP3    H128756   3.520   5.150   0.205  1.1600  1.0293 -1.1392
 2447TIP3    H228757   3.526   5.009   0.151 -0.0082  0.3277  0.5377
 2448TIP3   OH228758   4.392   0.014  15.413  0.2599 -0.2630  0.5099
 2448TIP3    H128759   4.413  -0.078  15.429  1.7811 -0.2178 -1.0505
 2448TIP3    H228760   4.434   0.061  15.486  0.1512 -0.7458  0.8836
 2449TIP3   OH228761   2.011   3.246   0.219  0.1223  0.0985 -0.3000
 2449TIP3    H128762   1.961   3.177   0.177  0.2540 -0.4517  0.4360
 2449TIP3    H228763   2.096   3.245   0.174 -0.3222  0.6375 -1.1466
 2450TIP3   OH228764   2.025   2.016   2.420 -0.7045 -0.0585 -0.3233
 2450TIP3    H128765   1.969   2.006   2.343  0.8578 -0.3638 -1.4402
 2450TIP3    H228766   2.090   1.947   2.412  1.1004  1.5783 -0.1434
 2451TIP3   OH228767   2.112   4.753  15.502 -0.4181 -0.6005  0.1576
 2451TIP3    H128768   2.181   4.818  15.514 -1.3580  0.0473  2.3697
 2451TIP3    H228769   2.116   4.729  15.410  0.7863  1.6545 -0.3930
 2452TIP3   OH228770   6.050   0.992  13.698 -0.5296 -0.3356 -0.5066
 2452TIP3    H128771   6.046   1.034  13.612  0.7297 -0.0386 -0.4265
 2452TIP3    H228772   6.124   1.033  13.742 -0.7762 -0.9276  0.4988
 2453TIP3   OH228773   0.259   2.144  11.918  0.0781  0.4988  0.1677
 2453TIP3    H128774   0.248   2.192  11.835 -0.1661 -0.0006 -0.0877
 2453TIP3    H228775   0.261   2.052  11.892  1.2838  0.3974  0.5792
 2454TIP3   OH228776   4.419   0.191   2.877 -0.7297  0.1337  0.0648
 2454TIP3    H128777   4.490   0.249   2.850 -1.9645  0.5567 -2.3726
 2454TIP3    H228778   4.390   0.149   2.796 -1.9769 -1.5140  1.3220
 2455TIP3   OH228779   6.514   4.026  15.359  0.4470 -0.4674  0.2186
 2455TIP3    H128780   6.441   3.969  15.382  1.1612 -1.6566 -0.4256
 2455TIP3    H228781   6.480   4.080  15.287  0.5923 -1.9066 -0.9560
 2456TIP3   OH228782   2.058   0.343   4.480  0.4537 -0.3697 -0.0634
 2456TIP3    H128783   2.105   0.348   4.563  1.7992 -0.5550 -0.8002
 2456TIP3    H228784   1.967   0.322   4.505  0.7307  0.0767  1.3760
 2457TIP3   OH228785   5.825   1.416  17.078  0.1569  0.2862  0.3337
 2457TIP3    H128786   5.866   1.330  17.085 -0.4668  0.0371  0.9375
 2457TIP3    H228787   5.737   1.404  17.112 -0.7793  0.5988 -1.8942
 2458TIP3   OH228788   1.023   0.457  12.219 -0.3260 -0.2803  0.0133
 2458TIP3    H128789   1.055   0.399  12.150 -1.0239 -1.3463  0.5740
 2458TIP3    H228790   1.102   0.501  12.251  0.3481 -1.5840  0.1883
 2459TIP3   OH228791   1.598   0.173   4.670  0.0703 -0.0064 -0.0893
 2459TIP3    H128792   1.693   0.165   4.658 -0.1821 -1.7282 -1.2084
 2459TIP3    H228793   1.568   0.212   4.588 -0.3083 -0.4783 -0.1746
 2460TIP3   OH228794   5.164   2.295   3.841 -0.0934  0.2738  0.0439
 2460TIP3    H128795   5.089   2.348   3.867 -1.6040 -1.0528 -1.5597
 2460TIP3    H228796   5.165   2.299   3.746 -0.6926 -3.1243 -0.1739
 2461TIP3   OH228797   3.558   1.104   1.596  0.0643  0.1895 -0.0882
 2461TIP3    H128798   3.642   1.060   1.610  0.6160  1.0179 -0.7825
 2461TIP3    H228799   3.565   1.141   1.508 -0.2075  2.0711  0.6623
 2462TIP3   OH228800   0.735   3.012   3.529 -0.2899 -0.1651  0.1524
 2462TIP3    H128801   0.665   3.075   3.542 -0.1466 -0.2807  1.5948
 2462TIP3    H228802   0.783   3.045   3.453 -1.0145  0.7340  0.0762
 2463TIP3   OH228803   3.322   1.263  17.074  0.0899  0.1083  0.5003
 2463TIP3    H128804   3.237   1.241  17.037  0.2216  1.2792 -0.5458
 2463TIP3    H228805   3.372   1.297  16.999  0.7276  1.4814  1.5320
 2464TIP3   OH228806   0.421   5.479   2.888 -0.4541  0.6304 -0.7440
 2464TIP3    H128807   0.378   5.432   2.816  0.2581 -1.6977  0.3125
 2464TIP3    H228808   0.497   5.521   2.847  0.7571 -1.8551 -1.0982
 2465TIP3   OH228809   1.458   0.414   2.352  0.4767  0.7694  0.5280
 2465TIP3    H128810   1.423   0.353   2.417 -1.8092  0.4142 -0.9972
 2465TIP3    H228811   1.547   0.432   2.382  0.0192 -0.6549  2.8581
 2466TIP3   OH228812   2.082   2.590  13.054  0.3062  0.0993 -0.0215
 2466TIP3    H128813   2.036   2.537  13.119  0.5322  0.6295  0.5724
 2466TIP3    H228814   2.138   2.527  13.008 -0.0621 -0.3235  0.1053
 2467TIP3   OH228815   4.321   0.063   4.258 -0.2285  0.3811 -0.0710
 2467TIP3    H128816   4.344   0.101   4.342  0.0214 -3.1618  1.5433
 2467TIP3    H228817   4.232   0.095   4.240 -0.1724  1.3665  1.4012
 2468TIP3   OH228818   2.067   6.337   2.619 -0.0939  0.1751  0.4214
 2468TIP3    H128819   2.035   6.381   2.698  0.7086  0.8731  0.3562
 2468TIP3    H228820   1.995   6.278   2.594 -0.5355  0.2858  1.4061
 2469TIP3   OH228821   0.496   4.559   3.428 -0.5576  0.3929 -0.7856
 2469TIP3    H128822   0.531   4.473   3.448  1.3356  1.2866 -0.1005
 2469TIP3    H228823   0.544   4.588   3.351  0.3636  1.6859  0.2370
 2470TIP3   OH228824   5.308   3.488  15.817  0.3814 -0.7760  0.5253
 2470TIP3    H128825   5.336   3.577  15.798 -0.2996 -0.8363 -0.8795
 2470TIP3    H228826   5.388   3.436  15.814  0.7676 -0.2344  1.2538
 2471TIP3   OH228827   1.730   5.832  14.348 -0.3872 -0.9533  0.4745
 2471TIP3    H128828   1.690   5.919  14.345  0.0829 -0.7462  0.1032
 2471TIP3    H228829   1.793   5.832  14.276  0.6544 -1.0819  1.3608
 2472TIP3   OH228830   3.100   0.823  13.633 -0.2331  0.3560 -0.4172
 2472TIP3    H128831   3.009   0.816  13.605 -0.9394  1.4896  1.5017
 2472TIP3    H228832   3.113   0.750  13.692 -0.1158  0.6106 -0.1284
 2473TIP3   OH228833   2.328   3.161  12.161  0.0891 -0.0530  0.0203
 2473TIP3    H128834   2.379   3.225  12.111  1.9405 -1.2383  0.3449
 2473TIP3    H228835   2.280   3.112  12.094  1.6234 -0.8299 -0.5498
 2474TIP3   OH228836   1.980   2.336   2.444 -0.5131  0.1527  0.3380
 2474TIP3    H128837   1.905   2.299   2.398 -2.0022  2.3356  0.9311
 2474TIP3    H228838   2.043   2.355   2.374 -1.0593 -0.4195 -0.3262
 2475TIP3   OH228839   2.810   6.484   1.663  0.0024 -0.0302 -0.0344
 2475TIP3    H128840   2.735   6.536   1.692 -2.4178 -1.9927 -2.5174
 2475TIP3    H228841   2.782   6.393   1.673  2.3631 -0.8147 -0.2541
 2476TIP3   OH228842   4.977   3.407  15.832  0.0230  0.0964 -0.6376
 2476TIP3    H128843   4.944   3.330  15.877  0.1793  0.5837  0.3221
 2476TIP3    H228844   5.005   3.466  15.902 -1.9827  1.8877 -1.2629
 2477TIP3   OH228845   1.040   3.123   2.187  0.1436 -0.8117 -0.1961
 2477TIP3    H128846   0.993   3.041   2.173  0.4559 -1.3554  1.7241
 2477TIP3    H228847   1.056   3.125   2.282 -1.3871  2.2841  0.0722
 2478TIP3   OH228848   6.010   5.106   4.274  0.3453 -0.6458 -0.0503
 2478TIP3    H128849   6.046   5.096   4.362 -0.5312 -1.1186  0.2640
 2478TIP3    H228850   5.963   5.024   4.258 -1.3272  0.2844 -0.0887
 2479TIP3   OH228851   5.970   6.601   1.920  0.6962 -0.1817  0.2945
 2479TIP3    H128852   5.940   6.544   1.990  1.8874 -0.2084  0.8088
 2479TIP3    H228853   5.959   6.690   1.956  1.7534 -0.2109  0.7214
 2480TIP3   OH228854   1.239   5.224  12.458 -0.4385 -0.0744  0.5139
 2480TIP3    H128855   1.273   5.139  12.486 -0.7748 -1.2428 -2.4499
 2480TIP3    H228856   1.224   5.214  12.364 -0.8694  3.1528  0.1876
 2481TIP3   OH228857   2.633   3.507  14.616 -0.1426 -0.0667 -0.0686
 2481TIP3    H128858   2.608   3.513  14.524  1.8120  2.2355 -0.4883
 2481TIP3    H228859   2.634   3.413  14.634  0.5423 -0.6133 -2.7234
 2482TIP3   OH228860   3.251   5.166  13.746 -0.4062  0.2681 -0.7682
 2482TIP3    H128861   3.280   5.158  13.655  1.8463  1.8368 -0.2508
 2482TIP3    H228862   3.333   5.169  13.797 -1.6094  0.2525  1.2171
 2483TIP3   OH228863   5.652   2.046   5.461 -0.0652  0.4558  0.7157
 2483TIP3    H128864   5.621   2.119   5.515 -0.5455  1.6445 -1.1112
 2483TIP3    H228865   5.670   2.086   5.376  0.0341 -1.4974 -0.2008
 2484TIP3   OH228866   2.223   1.900   6.611 -0.6725 -0.2269  0.2716
 2484TIP3    H128867   2.273   1.922   6.690 -0.5922  0.6032 -0.0129
 2484TIP3    H228868   2.156   1.838   6.642 -0.7781  0.2572  1.0312
 2485TIP3   OH228869   6.608   0.615  11.010  0.1164  0.3394 -0.2616
 2485TIP3    H128870   6.608   0.519  11.006  0.3634  0.2994  0.6650
 2485TIP3    H228871   6.565   0.642  10.929 -0.0276 -0.5550 -0.4907
 2486TIP3   OH228872   4.040   0.292   2.552  0.0752 -0.1903  0.6091
 2486TIP3    H128873   4.008   0.363   2.607  0.6472  0.3219  0.2958
 2486TIP3    H228874   4.009   0.212   2.594  1.2210  0.1506  2.1423
 2487TIP3   OH228875   3.363   3.278   4.041 -0.1297  0.1086  0.3099
 2487TIP3    H128876   3.268   3.287   4.030  0.0105 -0.1611 -1.3226
 2487TIP3    H228877   3.374   3.242   4.129 -1.6188 -1.0148  0.0558
 2488TIP3   OH228878   1.591   3.102  15.482 -0.1477 -0.2319 -0.1042
 2488TIP3    H128879   1.624   3.013  15.472  0.8965  0.2155 -0.6816
 2488TIP3    H228880   1.661   3.158  15.450 -0.9305  0.7919 -0.0720
 2489TIP3   OH228881   0.196   2.321   2.480  0.7516 -0.2450 -0.4571
 2489TIP3    H128882   0.180   2.413   2.459 -0.2601  0.0320  1.4128
 2489TIP3    H228883   0.287   2.306   2.454  1.5273  1.8173  0.9371
 2490TIP3   OH228884   1.776   6.763   3.600  0.0231  0.1308  0.6216
 2490TIP3    H128885   1.685   6.751   3.570 -0.0266  0.9853  0.4371
 2490TIP3    H228886   1.767   6.791   3.691  0.1511 -1.3645  1.1226
 2491TIP3   OH228887   1.523   0.592   1.302  0.1491 -0.0311  0.3645
 2491TIP3    H128888   1.463   0.591   1.227 -1.4222  1.4232  1.5555
 2491TIP3    H228889   1.549   0.683   1.310 -0.5721  0.0352  2.2343
 2492TIP3   OH228890   6.706   6.063   1.586  0.4189  0.3395 -0.4005
 2492TIP3    H128891   6.776   6.107   1.633  0.0673  1.4052 -0.8639
 2492TIP3    H228892   6.651   6.025   1.655  0.8133  0.4889 -0.0057
 2493TIP3   OH228893   1.940   1.527  12.840 -0.2735  0.1068  0.0126
 2493TIP3    H128894   2.010   1.592  12.836  1.1689 -1.4002  0.1807
 2493TIP3    H228895   1.933   1.506  12.933  0.2198 -0.9884 -0.1936
 2494TIP3   OH228896   0.619   6.099  17.121  0.5039  0.2269 -0.3902
 2494TIP3    H128897   0.525   6.083  17.132  0.4583  0.0794 -1.0074
 2494TIP3    H228898   0.657   6.012  17.111  0.6829  0.3022 -0.3642
 2495TIP3   OH228899   6.545   2.992   0.732  0.0889 -0.4996 -0.2444
 2495TIP3    H128900   6.565   2.975   0.640  1.1743 -0.1562 -0.0771
 2495TIP3    H228901   6.630   3.009   0.772 -0.2831 -1.6514  1.0398
 2496TIP3   OH228902   1.693   2.699  12.692  0.1189 -0.2319  0.3479
 2496TIP3    H128903   1.780   2.723  12.723  0.0816  0.3538  0.0056
 2496TIP3    H228904   1.707   2.621  12.639  0.3362 -0.5554  0.8791
 2497TIP3   OH228905   2.867   1.470  12.357 -0.5164 -0.0703  0.3958
 2497TIP3    H128906   2.928   1.517  12.414 -1.0366 -0.5722  1.3680
 2497TIP3    H228907   2.906   1.383  12.347 -0.4318  0.0112 -0.0239
 2498TIP3   OH228908   1.456   0.258  15.718  0.3596  0.2659  0.0004
 2498TIP3    H128909   1.464   0.353  15.709  1.6629  0.0912 -0.7571
 2498TIP3    H228910   1.526   0.234  15.778 -0.9952 -0.0290  1.4955
 2499TIP3   OH228911   5.006   3.733   0.532  0.5041  0.4537  0.0449
 2499TIP3    H128912   4.939   3.793   0.566  1.2422  0.1504  2.1115
 2499TIP3    H228913   5.043   3.778   0.456 -1.4973  0.9770 -0.6555
 2500TIP3   OH228914   0.857   0.687  14.587  0.0985  0.7040  0.6486
 2500TIP3    H128915   0.847   0.706  14.680 -1.4514 -0.3908  0.7359
 2500TIP3    H228916   0.788   0.738  14.545 -1.2498 -1.2188  0.4479
 2501TIP3   OH228917   2.436   6.057  15.938  0.1330 -0.0969  0.0677
 2501TIP3    H128918   2.461   6.062  16.030  2.6396  0.7447 -0.6073
 2501TIP3    H228919   2.386   6.137  15.922 -0.4972 -0.3529  0.7368
 2502TIP3   OH228920   0.725   6.400  15.890  0.4480 -0.2888 -0.2122
 2502TIP3    H128921   0.658   6.413  15.823  1.1933  1.2378 -0.6938
 2502TIP3    H228922   0.708   6.469  15.955  1.3191 -0.1169 -0.1562
 2503TIP3   OH228923   0.610   6.090  16.555 -0.0658 -0.0012 -0.5764
 2503TIP3    H128924   0.642   6.008  16.592  0.2396  0.5481  0.3807
 2503TIP3    H228925   0.584   6.143  16.630 -1.3679  0.3364 -1.2369
 2504TIP3   OH228926   2.555   3.355   4.578  0.3656  0.0507  0.0292
 2504TIP3    H128927   2.502   3.434   4.589 -1.1346 -0.9089 -0.1319
 2504TIP3    H228928   2.509   3.304   4.511  0.5444 -1.5995  1.1245
 2505TIP3   OH228929   3.632   1.191   6.354  0.5489 -0.0981  0.0596
 2505TIP3    H128930   3.639   1.097   6.371 -0.4978  0.1186  1.7617
 2505TIP3    H228931   3.551   1.201   6.304  1.0128 -0.1619 -0.7192
 2506TIP3   OH228932   2.663   1.744  11.824  0.4560  0.4658 -0.0079
 2506TIP3    H128933   2.739   1.705  11.781 -0.1422 -0.4339 -0.2584
 2506TIP3    H228934   2.680   1.732  11.918  0.0471 -0.8588 -0.0911
 2507TIP3   OH228935   3.493   4.365  16.806  0.1256 -0.0438  0.2982
 2507TIP3    H128936   3.400   4.347  16.793 -0.4354  1.7879  1.6853
 2507TIP3    H228937   3.510   4.444  16.754  1.0557 -0.7080 -0.4279
 2508TIP3   OH228938   6.202   1.073   5.503  0.5158  0.2509 -0.4934
 2508TIP3    H128939   6.245   0.993   5.473  0.9402  1.1903 -2.4382
 2508TIP3    H228940   6.163   1.111   5.424 -2.8246  0.1020  1.0054
 2509TIP3   OH228941   5.914   0.558  10.454  0.0023 -0.1593  0.1065
 2509TIP3    H128942   5.882   0.648  10.448  0.8521  0.0752 -1.2572
 2509TIP3    H228943   5.983   0.562  10.521  0.0746  0.2254  0.0128
 2510TIP3   OH228944   3.242   4.147   4.000  0.0019  0.7660  0.2641
 2510TIP3    H128945   3.262   4.086   3.929 -0.7277  0.8703 -0.0367
 2510TIP3    H228946   3.328   4.178   4.030  0.4453 -1.3519  1.2645
 2511TIP3   OH228947   3.303   1.739   2.285  0.3552 -0.0841 -0.6908
 2511TIP3    H128948   3.324   1.831   2.274  1.7419 -0.4563 -1.2686
 2511TIP3    H228949   3.382   1.693   2.257  0.0661 -1.4090  0.6305
 2512TIP3   OH228950   1.614   1.277  12.058 -0.5254 -0.4029 -0.0615
 2512TIP3    H128951   1.627   1.183  12.048 -0.5491 -0.2613 -1.5323
 2512TIP3    H228952   1.545   1.285  12.124 -1.2890 -1.4530 -0.7172
 2513TIP3   OH228953   2.545   3.450   0.738 -0.3558 -0.1573 -0.3702
 2513TIP3    H128954   2.522   3.490   0.654 -0.5641  0.3554 -0.0735
 2513TIP3    H228955   2.465   3.402   0.764  0.4415 -2.1645 -1.5222
 2514TIP3   OH228956   2.218   1.181   1.252  0.1256 -0.0501 -0.3223
 2514TIP3    H128957   2.250   1.227   1.329  2.4284 -0.4641 -0.9963
 2514TIP3    H228958   2.239   1.240   1.179  0.5650 -0.9145 -0.9050
 2515TIP3   OH228959   5.174   1.263  12.483 -0.0628 -0.1773  0.6477
 2515TIP3    H128960   5.171   1.176  12.444  2.0012 -0.7848  1.8020
 2515TIP3    H228961   5.090   1.304  12.457 -0.4651 -1.9883 -1.0053
 2516TIP3   OH228962   1.505   2.019  13.986 -0.2179  0.7283 -0.3383
 2516TIP3    H128963   1.512   2.108  13.950 -1.1775  1.3579  1.0221
 2516TIP3    H228964   1.412   1.998  13.982  0.2306 -1.0418 -2.5653
 2517TIP3   OH228965   5.878   3.528   3.713  0.8948 -0.3590  0.2725
 2517TIP3    H128966   5.952   3.589   3.713  1.9615 -1.6340 -1.0249
 2517TIP3    H228967   5.835   3.544   3.629  1.2714 -1.5105 -0.1381
 2518TIP3   OH228968   1.357   4.592  13.592 -0.7617  0.1118  0.4032
 2518TIP3    H128969   1.308   4.658  13.640 -0.9440 -1.3562  2.2943
 2518TIP3    H228970   1.434   4.637  13.558 -1.7354  1.6609  0.2273
 2519TIP3   OH228971   4.309   5.149  17.219 -0.2742  0.0010 -0.5182
 2519TIP3    H128972   4.351   5.224  17.263 -1.8105  0.7752 -0.3321
 2519TIP3    H228973   4.222   5.181  17.195 -0.8121 -1.6099 -0.7885
 2520TIP3   OH228974   4.465   1.530   1.964 -0.5639  0.0597  0.2471
 2520TIP3    H128975   4.505   1.447   1.990 -1.0844 -0.1105  0.5045
 2520TIP3    H228976   4.430   1.567   2.045 -0.9450  0.2039  0.0176
 2521TIP3   OH228977   0.309   4.633  14.811 -0.0678  0.1102  0.3516
 2521TIP3    H128978   0.282   4.560  14.867 -0.5551  0.7806  1.0061
 2521TIP3    H228979   0.228   4.680  14.792  0.3942  1.1485  0.9108
 2522TIP3   OH228980   1.884   1.654   6.359 -0.4401 -0.4206  0.6892
 2522TIP3    H128981   1.877   1.749   6.370  2.7353 -0.4105  3.2416
 2522TIP3    H228982   1.938   1.643   6.280 -0.7363 -0.1314  0.4420
 2523TIP3   OH228983   0.165   0.788  12.691  0.5714 -0.8670  0.3087
 2523TIP3    H128984   0.241   0.773  12.747  1.3441 -0.2583 -0.5479
 2523TIP3    H228985   0.124   0.702  12.683  2.7268 -1.8153 -1.3853
 2524TIP3   OH228986   5.379   1.550  16.778  0.2373 -0.4627  0.1697
 2524TIP3    H128987   5.378   1.482  16.845  1.9088 -2.4109 -1.7457
 2524TIP3    H228988   5.471   1.574  16.769 -0.1093  0.6201 -0.6066
 2525TIP3   OH228989   4.824   6.132  12.409  0.2280 -0.1827 -0.1684
 2525TIP3    H128990   4.916   6.140  12.384  0.5240 -0.3040  0.8365
 2525TIP3    H228991   4.816   6.187  12.487 -0.3326 -0.9160  0.2931
 2526TIP3   OH228992   4.345   2.094  12.869  0.0603  0.4927 -0.2899
 2526TIP3    H128993   4.308   2.127  12.787 -0.5856  1.0202  0.2081
 2526TIP3    H228994   4.333   1.999  12.865 -2.5013  0.7608  0.4196
 2527TIP3   OH228995   0.721   6.763  17.091 -0.2817  0.0489 -0.1945
 2527TIP3    H128996   0.773   6.825  17.040 -2.0041 -0.3889 -2.5499
 2527TIP3    H228997   0.753   6.774  17.181  1.5991  2.0889 -1.0525
 2528TIP3   OH228998   0.511   3.605   2.552  0.2294 -0.4365  0.1074
 2528TIP3    H128999   0.586   3.608   2.493  0.2404  0.3662  0.1590
 2528TIP3    H229000   0.514   3.517   2.590  2.1463  0.1437  1.3892
 2529TIP3   OH229001   5.707   0.098  17.025  0.4007  0.3905 -0.4298
 2529TIP3    H129002   5.737   0.160  17.092  1.4686  0.9580 -1.4307
 2529TIP3    H229003   5.636   0.144  16.980 -0.9280 -0.3337  0.8718
 2530TIP3   OH229004   2.458   6.046   2.807 -0.1587  0.7070  0.7124
 2530TIP3    H129005   2.384   6.056   2.746 -0.9326  0.8608  1.6580
 2530TIP3    H229006   2.535   6.069   2.756 -0.3338 -2.9697 -1.4069
 2531TIP3   OH229007   2.512   3.065   0.591  0.4538  0.1635 -0.2732
 2531TIP3    H129008   2.516   3.158   0.614  0.0172  0.4683 -1.3553
 2531TIP3    H229009   2.593   3.049   0.542 -0.2577  0.4026 -1.5491
 2532TIP3   OH229010   3.164   0.234  13.360  0.5046 -0.3544 -0.0318
 2532TIP3    H129011   3.076   0.254  13.328  0.6341  0.3856  0.0809
 2532TIP3    H229012   3.149   0.191  13.444  0.3111  1.5934  0.9500
 2533TIP3   OH229013   4.019   3.039   4.311 -0.1625  0.6981  0.2566
 2533TIP3    H129014   4.092   3.097   4.331 -1.4570  1.3760  3.1974
 2533TIP3    H229015   4.046   2.954   4.346 -0.3065  0.6830  0.3310
 2534TIP3   OH229016   3.153   5.259   6.960  0.0095  0.2031  0.2539
 2534TIP3    H129017   3.223   5.325   6.967  1.0444 -0.7838 -0.5510
 2534TIP3    H229018   3.195   5.185   6.915 -1.2689 -0.8164  0.7160
 2535TIP3   OH229019   2.254   2.433   1.316 -0.1206  0.2714  0.2863
 2535TIP3    H129020   2.291   2.439   1.405 -0.4996 -2.8495  0.7314
 2535TIP3    H229021   2.227   2.341   1.308 -1.7464  0.9317 -2.4299
 2536TIP3   OH229022   0.442   5.641  15.130  0.2817 -0.4444  0.0615
 2536TIP3    H129023   0.431   5.579  15.058  1.2723 -0.8060  0.2137
 2536TIP3    H229024   0.371   5.705  15.117  0.6821 -0.2786 -1.4546
 2537TIP3   OH229025   5.638   1.923  15.162  0.0674  0.5010  0.0532
 2537TIP3    H129026   5.706   1.921  15.094  0.8336  0.8064  0.7971
 2537TIP3    H229027   5.577   1.853  15.137  1.6203 -0.9977  0.3490
 2538TIP3   OH229028   4.870   1.912   1.181  0.0627  0.2726  0.6023
 2538TIP3    H129029   4.908   1.966   1.112 -0.3664 -1.5512 -1.0920
 2538TIP3    H229030   4.776   1.910   1.162 -0.0032 -0.5821  1.0221
 2539TIP3   OH229031   1.152   3.152   6.409 -0.0086 -0.1339 -0.2275
 2539TIP3    H129032   1.113   3.079   6.360  0.6720 -0.2887 -0.5452
 2539TIP3    H229033   1.178   3.112   6.492  1.3957 -0.5362 -0.8347
 2540TIP3   OH229034   0.302   6.335   1.246  0.5538  0.0510  0.1171
 2540TIP3    H129035   0.394   6.315   1.263  0.8153  0.8182 -0.3646
 2540TIP3    H229036   0.274   6.270   1.182  0.4027 -0.9652  1.1836
 2541TIP3   OH229037   6.697   4.344   4.287 -0.1882  0.0763 -0.1161
 2541TIP3    H129038   6.780   4.296   4.282 -0.6056 -0.5114 -1.7529
 2541TIP3    H229039   6.632   4.278   4.310 -0.4493  0.2083 -0.4564
 2542TIP3   OH229040   4.259   3.175   4.356  0.8640  0.1069 -0.0437
 2542TIP3    H129041   4.307   3.253   4.328 -0.0176  0.0611 -1.7660
 2542TIP3    H229042   4.309   3.102   4.320  0.4830 -0.0205 -0.3137
 2543TIP3   OH229043   6.180   1.192  12.509 -0.0923 -0.6522 -0.0881
 2543TIP3    H129044   6.223   1.265  12.554 -0.4336  0.6948 -1.8989
 2543TIP3    H229045   6.252   1.136  12.479  0.2654 -0.0001 -0.4457
 2544TIP3   OH229046   2.078   2.201   3.151  0.3516 -0.3305 -0.5431
 2544TIP3    H129047   2.108   2.221   3.062 -1.5617  1.5471 -0.8170
 2544TIP3    H229048   2.052   2.286   3.187 -0.4286 -1.2896  1.2242
 2545TIP3   OH229049   4.597   1.525   1.712 -0.3344 -0.2876  0.0566
 2545TIP3    H129050   4.513   1.502   1.751 -0.1201 -0.8846  0.1765
 2545TIP3    H229051   4.645   1.442   1.709  0.1269 -0.0085 -0.3053
 2546TIP3   OH229052   1.890   5.604  16.040  0.2672 -0.2916 -0.1579
 2546TIP3    H129053   1.910   5.649  15.958  0.6800  1.6904  0.9925
 2546TIP3    H229054   1.798   5.579  16.031  0.3660 -0.2527 -1.3112
 2547TIP3   OH229055   1.141   1.663  14.970 -0.5604 -0.2063  0.4455
 2547TIP3    H129056   1.109   1.573  14.976  1.9003 -1.1860 -0.2024
 2547TIP3    H229057   1.171   1.683  15.059  0.7643 -0.8144  0.1610
 2548TIP3   OH229058   1.326   3.758  11.828  0.0181  0.5015  0.5186
 2548TIP3    H129059   1.244   3.804  11.815 -0.6774 -0.9294 -0.3503
 2548TIP3    H229060   1.303   3.665  11.820  1.6895  0.0755  0.3477
 2549TIP3   OH229061   2.906   5.195   2.049 -0.1434  0.1464 -0.3749
 2549TIP3    H129062   2.947   5.144   1.979  1.4325 -0.0879  0.7037
 2549TIP3    H229063   2.861   5.130   2.103 -1.1955  0.3095 -1.0179
 2550TIP3   OH229064   5.506   6.215  12.337 -0.7653  0.4761 -0.0290
 2550TIP3    H129065   5.495   6.179  12.424  0.5584 -0.9791 -0.4341
 2550TIP3    H229066   5.490   6.141  12.278  1.2863  0.6649 -0.8917
 2551TIP3   OH229067   0.211   4.416   3.249 -0.2416  0.4842 -0.0384
 2551TIP3    H129068   0.250   4.355   3.187 -2.0148 -0.7601  0.0353
 2551TIP3    H229069   0.238   4.385   3.335  2.8665  2.6630 -0.1561
 2552TIP3   OH229070   5.260   6.480   0.061 -0.3239 -0.0476 -0.4011
 2552TIP3    H129071   5.167   6.491   0.083 -0.4748 -3.0712  0.7582
 2552TIP3    H229072   5.261   6.406   0.000  1.2865  0.2609 -0.7573
 2553TIP3   OH229073   6.297   1.015  14.510  0.5561  0.1382 -0.3126
 2553TIP3    H129074   6.278   0.980  14.423 -1.6995 -0.1668  0.2715
 2553TIP3    H229075   6.375   0.969  14.538 -0.7018 -2.3431 -0.7545
 2554TIP3   OH229076   4.100   1.251   0.547 -0.1579  0.6172 -0.2387
 2554TIP3    H129077   4.119   1.345   0.554  1.7910  0.0455  2.9627
 2554TIP3    H229078   4.168   1.218   0.488  1.1290  0.6904  1.1938
 2555TIP3   OH229079   2.065   6.091  15.129  0.1524 -0.1672 -0.3467
 2555TIP3    H129080   1.983   6.133  15.152  0.2874  0.4058 -0.8817
 2555TIP3    H229081   2.103   6.064  15.212 -0.5305 -0.3573 -0.0939
 2556TIP3   OH229082   0.207   2.402   4.749 -0.4054  0.2414  0.9923
 2556TIP3    H129083   0.208   2.490   4.713 -0.6545  0.3245  1.1842
 2556TIP3    H229084   0.269   2.405   4.822 -0.1118  0.1486  0.7463
 2557TIP3   OH229085   6.388   0.681  12.780  0.6533 -0.2870 -0.0672
 2557TIP3    H129086   6.381   0.690  12.875  1.1068 -0.0060 -0.0590
 2557TIP3    H229087   6.300   0.656  12.752  0.0091  1.6446  0.2032
 2558TIP3   OH229088   6.225   3.516  11.173  0.1012  0.3992  0.2425
 2558TIP3    H129089   6.141   3.481  11.144  0.2999  0.4789 -0.4600
 2558TIP3    H229090   6.283   3.501  11.098  0.5335  0.9639  0.4672
 2559TIP3   OH229091   1.917   3.803   2.922 -0.2476 -0.3586  0.1649
 2559TIP3    H129092   1.997   3.808   2.869 -0.9009 -2.2404 -1.0792
 2559TIP3    H229093   1.853   3.760   2.864 -1.0306 -2.3141  2.4131
 2560TIP3   OH229094   1.336   3.880  12.266  0.0311 -0.0422 -0.3165
 2560TIP3    H129095   1.381   3.852  12.186  0.7695 -0.8709  0.3808
 2560TIP3    H229096   1.407   3.892  12.330 -0.5290  0.9112  0.1218
 2561TIP3   OH229097   4.532   6.167   2.406  0.1890  0.2984  0.3781
 2561TIP3    H129098   4.453   6.120   2.433  0.8318 -1.2519 -0.3544
 2561TIP3    H229099   4.542   6.145   2.313  1.2587  0.7903  0.3716
 2562TIP3   OH229100   2.789   4.330   5.638  0.5419 -0.0923 -0.0277
 2562TIP3    H129101   2.716   4.385   5.611  1.2695  1.1148  0.4154
 2562TIP3    H229102   2.759   4.241   5.622 -0.9275  0.3975 -0.0971
 2563TIP3   OH229103   6.367   0.153   2.330  0.0398 -0.0940 -0.0616
 2563TIP3    H129104   6.380   0.087   2.398 -0.6277 -0.8301 -0.6399
 2563TIP3    H229105   6.443   0.144   2.273  0.1140 -0.1318  0.0432
 2564TIP3   OH229106   2.104   0.171  16.017 -0.1452 -0.6324  0.4446
 2564TIP3    H129107   2.129   0.107  15.950 -0.1757 -0.7332  0.5289
 2564TIP3    H229108   2.049   0.234  15.971 -0.4222 -0.8734  0.4399
 2565TIP3   OH229109   0.775   3.933  11.641 -0.4359 -0.0004  0.6079
 2565TIP3    H129110   0.784   4.012  11.695 -1.0252 -1.0805  2.3371
 2565TIP3    H229111   0.751   3.864  11.703  0.7134 -1.6944 -0.7556
 2566TIP3   OH229112   5.640   3.072  15.768  0.3728 -0.2054 -0.2838
 2566TIP3    H129113   5.545   3.079  15.778  0.5011 -1.3475  1.8646
 2566TIP3    H229114   5.672   3.160  15.790 -0.0713 -0.2056  0.3734
 2567TIP3   OH229115   1.400   4.684   5.611 -0.0102  0.1321  0.1293
 2567TIP3    H129116   1.370   4.592   5.608  0.3368  0.0754 -2.3461
 2567TIP3    H229117   1.365   4.717   5.694 -1.4433 -1.8055  0.3453
 2568TIP3   OH229118   4.260   1.384  10.406 -0.1364  0.6527  0.7331
 2568TIP3    H129119   4.355   1.373  10.410 -0.0104  1.6766  0.7698
 2568TIP3    H229120   4.228   1.306  10.362  0.6542 -0.0493  1.4017
 2569TIP3   OH229121   0.864   1.287   0.506 -0.3907  0.3285 -0.0614
 2569TIP3    H129122   0.877   1.297   0.600 -0.8219  3.1470 -0.2581
 2569TIP3    H229123   0.787   1.231   0.498  0.8873 -1.6898  1.2026
 2570TIP3   OH229124   2.222   3.657  12.797 -0.3971  0.0051  0.3777
 2570TIP3    H129125   2.152   3.719  12.775 -0.6382 -0.7261 -0.9247
 2570TIP3    H229126   2.233   3.667  12.892 -0.7477  1.7036  0.2482
 2571TIP3   OH229127   5.832   3.716  15.850  0.6658 -0.4870 -0.2764
 2571TIP3    H129128   5.831   3.628  15.812  1.0988  0.2825 -2.0978
 2571TIP3    H229129   5.909   3.716  15.907  0.1603 -1.5565  0.4439
 2572TIP3   OH229130   2.973   1.246   3.184 -0.1520 -0.0485  0.4647
 2572TIP3    H129131   2.982   1.340   3.194 -0.4637  0.0482 -0.1383
 2572TIP3    H229132   3.025   1.225   3.107 -2.7310  0.1082 -1.3616
 2573TIP3   OH229133   2.906   5.151   6.058  0.1806  0.0464  0.0083
 2573TIP3    H129134   2.915   5.219   6.124 -0.3836 -0.3139  0.4720
 2573TIP3    H229135   2.841   5.186   5.996 -0.1968 -0.1112  0.3098
 2574TIP3   OH229136   3.895   3.541   5.558  0.6029  0.8685  0.1784
 2574TIP3    H129137   3.973   3.500   5.523  0.2115  1.0088 -0.8667
 2574TIP3    H229138   3.925   3.583   5.639  1.4578  0.3640  0.1339
 2575TIP3   OH229139   1.864   4.756  12.484  0.4090 -0.1608 -0.0346
 2575TIP3    H129140   1.856   4.851  12.474  0.7412 -0.0171  1.0357
 2575TIP3    H229141   1.802   4.734  12.553  0.6824 -0.6617  0.0549
 2576TIP3   OH229142   5.419   5.740  11.477 -0.3859 -0.2248  0.1113
 2576TIP3    H129143   5.332   5.706  11.460 -0.7579  0.6882  0.1615
 2576TIP3    H229144   5.476   5.662  11.477 -0.8405 -0.6058 -2.1348
 2577TIP3   OH229145   0.223   6.158   1.619 -0.7149  0.1662  0.0452
 2577TIP3    H129146   0.261   6.209   1.691 -0.2877  0.1728 -0.1845
 2577TIP3    H229147   0.177   6.223   1.566  0.4222  0.4117 -0.6311
 2578TIP3   OH229148   0.113   4.214  12.191 -0.3848  0.1944  0.2468
 2578TIP3    H129149   0.107   4.126  12.230 -1.4707  0.4880  0.7437
 2578TIP3    H229150   0.206   4.224  12.170 -0.3588 -1.3646 -0.4767
 2579TIP3   OH229151   5.256   0.565   2.289 -0.0195 -0.2280  0.5416
 2579TIP3    H129152   5.211   0.480   2.289  2.1562 -1.4255 -0.1693
 2579TIP3    H229153   5.348   0.543   2.304  0.4765  2.0794  1.0353
 2580TIP3   OH229154   4.214   1.349   5.930  0.0353  0.1589 -0.4436
 2580TIP3    H129155   4.209   1.266   5.978 -0.1951  0.1543 -0.4718
 2580TIP3    H229156   4.250   1.411   5.993 -1.6745  0.5088  0.2144
 2581TIP3   OH229157   3.300   2.931  13.179  0.1511 -0.1554  0.3820
 2581TIP3    H129158   3.271   3.012  13.221 -2.0462 -0.2178 -0.9133
 2581TIP3    H229159   3.335   2.958  13.094  0.7171 -0.4418  0.5179
 2582TIP3   OH229160   2.748   2.922   0.489 -0.1279  0.0818 -0.6457
 2582TIP3    H129161   2.785   2.935   0.402  0.7074 -0.4436 -0.3797
 2582TIP3    H229162   2.683   2.853   0.477 -0.9594  0.9362 -1.0965
 2583TIP3   OH229163   3.732   2.967  15.246  0.4959  0.0074 -0.2830
 2583TIP3    H129164   3.641   2.971  15.214  0.5789  1.5070 -0.3852
 2583TIP3    H229165   3.769   2.890  15.203 -0.6047 -0.3643 -0.5863
 2584TIP3   OH229166   3.267   4.692   5.028  0.4680 -0.4181  0.3849
 2584TIP3    H129167   3.283   4.635   4.952  0.3259  1.7283 -1.2948
 2584TIP3    H229168   3.354   4.708   5.065  0.3672 -3.0138  1.8791
 2585TIP3   OH229169   0.118   6.245  16.693  0.1951 -0.2205  0.0491
 2585TIP3    H129170   0.117   6.249  16.598 -1.0295  2.2596  0.1194
 2585TIP3    H229171   0.178   6.315  16.720 -2.0602  1.3952  1.1097
 2586TIP3   OH229172   2.031   0.685  12.470 -0.3668 -0.1469  0.6282
 2586TIP3    H129173   1.971   0.636  12.526 -0.5642 -2.7992 -1.7991
 2586TIP3    H229174   2.084   0.619  12.427  1.2054  1.9324 -0.7354
 2587TIP3   OH229175   4.488   0.129  11.883  0.6318  0.1544  0.1186
 2587TIP3    H129176   4.397   0.102  11.873  0.6544 -0.2180  0.8908
 2587TIP3    H229177   4.527   0.115  11.797 -0.1500  0.7337 -0.3374
 2588TIP3   OH229178   2.039   2.751   6.452 -0.0587 -0.2194 -0.2607
 2588TIP3    H129179   2.088   2.671   6.439 -0.7175 -0.6351 -0.1999
 2588TIP3    H229180   2.017   2.751   6.545 -1.0068 -0.5213 -0.4790
 2589TIP3   OH229181   4.505   1.658  11.233 -0.0104  0.1475  0.5359
 2589TIP3    H129182   4.497   1.734  11.292  1.5270 -0.1216  1.1263
 2589TIP3    H229183   4.583   1.677  11.181  0.3143 -0.9637  0.6017
 2590TIP3   OH229184   0.610   4.993  11.131  0.3757 -0.0434 -0.3959
 2590TIP3    H129185   0.675   5.061  11.113  1.1272 -0.7378 -0.3573
 2590TIP3    H229186   0.544   5.004  11.062  1.4489 -0.4638 -1.5002
 2591TIP3   OH229187   2.183   1.867   4.257  0.1113  1.1394 -0.6766
 2591TIP3    H129188   2.221   1.840   4.174  1.9736  1.0934  0.1592
 2591TIP3    H229189   2.151   1.956   4.242  0.5359  1.1731 -1.3994
 2592TIP3   OH229190   5.598   5.399  13.734  0.3491  0.3232  0.1782
 2592TIP3    H129191   5.513   5.401  13.690  0.5658  0.2295 -0.2486
 2592TIP3    H229192   5.660   5.374  13.665  1.0259  2.4410 -0.0342
 2593TIP3   OH229193   6.708   5.192  15.527  0.5706 -0.0344  0.2039
 2593TIP3    H129194   6.742   5.197  15.438  0.6048  1.9798  0.2920
 2593TIP3    H229195   6.735   5.106  15.559  0.5701 -0.7586 -1.7127
 2594TIP3   OH229196   1.546   3.788   5.517  0.0571  0.3644  0.0623
 2594TIP3    H129197   1.548   3.873   5.473  0.6262 -0.4964 -1.6509
 2594TIP3    H229198   1.454   3.774   5.538 -0.4524  0.2132 -2.1168
 2595TIP3   OH229199   1.696   3.418  15.229  0.3604 -0.0781 -0.0559
 2595TIP3    H129200   1.624   3.459  15.276 -0.1964 -0.6656 -0.3866
 2595TIP3    H229201   1.771   3.426  15.288  0.5522  2.4316 -0.5848
 2596TIP3   OH229202   5.636   3.757  11.452  0.1875  0.3014 -0.2282
 2596TIP3    H129203   5.683   3.686  11.407  0.4742  0.1443  0.3163
 2596TIP3    H229204   5.705   3.819  11.475  0.2251 -0.2568  1.1934
 2597TIP3   OH229205   4.124   1.168   6.303 -0.6010 -0.0552  0.3079
 2597TIP3    H129206   4.169   1.125   6.375  1.2535  2.0273  0.4422
 2597TIP3    H229207   4.079   1.242   6.344 -2.9746 -1.2190 -0.0646
 2598TIP3   OH229208   1.556   4.426   5.872  0.0241  0.2611  0.0270
 2598TIP3    H129209   1.551   4.506   5.924  1.0406 -0.1240  0.7538
 2598TIP3    H229210   1.545   4.356   5.936 -1.2593 -0.1749 -0.6670
 2599TIP3   OH229211   0.034   5.438  10.997  0.5335  0.2650 -0.0179
 2599TIP3    H129212  -0.015   5.518  11.020  1.5126  0.8399  0.0831
 2599TIP3    H229213   0.106   5.436  11.060 -1.8097 -2.9326  2.7173
 2600TIP3   OH229214   6.678   0.717  13.887 -0.0061  0.1603 -0.5401
 2600TIP3    H129215   6.622   0.782  13.930  0.3283 -0.5032  0.9202
 2600TIP3    H229216   6.618   0.653  13.851 -0.1864 -1.1077  1.9273
 2601TIP3   OH229217   4.615   6.492  14.837 -0.1467 -0.1979  0.1385
 2601TIP3    H129218   4.666   6.412  14.827  0.7659  0.3209  0.5908
 2601TIP3    H229219   4.614   6.531  14.750  0.1978 -0.2263  0.1213
 2602TIP3   OH229220   4.201   0.756  15.181 -0.3131  0.3063  0.3872
 2602TIP3    H129221   4.282   0.723  15.142  0.6255  0.1796  2.3877
 2602TIP3    H229222   4.222   0.846  15.207 -0.8359  0.3087  0.8133
 2603TIP3   OH229223   4.534   0.988   5.542 -0.5629  0.4414  0.4935
 2603TIP3    H129224   4.520   1.080   5.562 -0.3818  0.4416  0.6186
 2603TIP3    H229225   4.447   0.949   5.546 -1.0762  1.1467 -2.3465
 2604TIP3   OH229226   4.360   6.569  16.993  0.3479 -0.1631  0.3665
 2604TIP3    H129227   4.349   6.492  17.049  0.8182 -1.4154 -1.2316
 2604TIP3    H229228   4.448   6.600  17.012  1.4713 -2.0713 -1.4224
 2605TIP3   OH229229   0.557   1.647   0.808  0.5372 -0.0212 -0.0417
 2605TIP3    H129230   0.505   1.727   0.798  0.5871 -0.3425 -3.1613
 2605TIP3    H229231   0.494   1.582   0.841 -0.1128  0.5892 -0.0640
 2606TIP3   OH229232   0.465   3.497  15.741  0.0506 -0.2991  0.1476
 2606TIP3    H129233   0.525   3.566  15.770  0.2717  0.1966 -1.4436
 2606TIP3    H229234   0.517   3.417  15.743 -0.0273 -0.3283  1.3948
 2607TIP3   OH229235   5.986   4.602  14.619 -0.0726  0.4393  0.5184
 2607TIP3    H129236   6.061   4.654  14.589 -0.9997  0.6040 -1.6573
 2607TIP3    H229237   5.940   4.580  14.538 -2.1247 -0.0322  1.8059
 2608TIP3   OH229238   0.671   0.552   2.820 -0.2337  0.2241  1.0223
 2608TIP3    H129239   0.730   0.488   2.861  0.0185 -1.8258 -2.3775
 2608TIP3    H229240   0.592   0.502   2.799 -0.9730  1.5988  0.4891
 2609TIP3   OH229241   5.811   6.216  15.537 -0.5137  0.3273  0.1529
 2609TIP3    H129242   5.865   6.137  15.535  2.2534  2.1386 -0.3044
 2609TIP3    H229243   5.865   6.281  15.582 -2.4403  2.1482 -0.0627
 2610TIP3   OH229244   2.948   3.959  16.672 -0.1883 -0.2136  0.1017
 2610TIP3    H129245   2.859   3.993  16.685 -1.2287 -2.8853  0.2124
 2610TIP3    H229246   2.991   4.026  16.619 -2.0948  1.3613  0.4621
 2611TIP3   OH229247   6.770   4.924  12.326  0.0381 -0.2544 -0.8029
 2611TIP3    H129248   6.838   4.864  12.358 -0.3162 -0.3028 -0.1484
 2611TIP3    H229249   6.750   4.980  12.401  1.8750  2.0906 -1.9897
 2612TIP3   OH229250   2.594   1.984   2.742  0.1739  0.0095  0.2398
 2612TIP3    H129251   2.530   1.982   2.670  0.2756 -0.2447  0.1561
 2612TIP3    H229252   2.569   2.061   2.794 -1.2362 -1.0255  1.1349
 2613TIP3   OH229253   5.314   0.504   4.730  0.0534 -0.7144  0.1169
 2613TIP3    H129254   5.394   0.501   4.679 -0.4571 -1.7489 -0.6350
 2613TIP3    H229255   5.245   0.521   4.666 -0.3925 -0.3913  0.6815
 2614TIP3   OH229256   6.615   4.628   5.582 -0.6748 -0.5181  0.5483
 2614TIP3    H129257   6.623   4.666   5.495  0.2430 -0.6195  0.5748
 2614TIP3    H229258   6.587   4.701   5.637 -1.4732 -0.5085  0.1269
 2615TIP3   OH229259   3.782   6.085  16.456 -1.0115  0.1274  0.4909
 2615TIP3    H129260   3.689   6.105  16.470 -1.0702 -0.0408  0.3538
 2615TIP3    H229261   3.808   6.035  16.533 -0.8622  0.7458  0.8417
 2616TIP3   OH229262   4.629   0.836  12.296  0.0449 -0.1974  0.3625
 2616TIP3    H129263   4.663   0.870  12.214 -1.8842  0.6519 -0.1289
 2616TIP3    H229264   4.669   0.750  12.305  0.2359 -0.3312 -1.5200
 2617TIP3   OH229265   1.096   2.330  14.416 -0.1028  0.1712 -0.0514
 2617TIP3    H129266   1.087   2.276  14.495  1.1172 -1.3824 -0.9198
 2617TIP3    H229267   1.069   2.272  14.345 -1.2483  1.5803 -0.7777
 2618TIP3   OH229268   2.411   1.146   1.867  0.6879 -0.9393  0.0633
 2618TIP3    H129269   2.432   1.216   1.804  0.2251 -1.6209 -0.8548
 2618TIP3    H229270   2.492   1.133   1.916  0.6733  0.4952  0.4908
 2619TIP3   OH229271   1.400   1.799  12.844 -0.6821 -0.1073 -0.3265
 2619TIP3    H129272   1.465   1.852  12.891  1.1658 -3.3761  0.9751
 2619TIP3    H229273   1.332   1.781  12.910 -0.5831 -0.5347 -0.3395
 2620TIP3   OH229274   4.895   4.297   2.712 -0.1652 -0.1211  0.0233
 2620TIP3    H129275   4.853   4.258   2.635 -0.1327 -1.2433  0.5641
 2620TIP3    H229276   4.866   4.243   2.785  1.9892 -0.7669  0.4490
 2621TIP3   OH229277   4.880   1.341   0.705 -0.3078 -0.0217 -0.1929
 2621TIP3    H129278   4.878   1.426   0.660  0.0154 -0.0611 -0.2833
 2621TIP3    H229279   4.957   1.345   0.761 -0.4676 -0.1389  0.0361
 2622TIP3   OH229280   2.219   2.606   4.986  0.0310  0.3467 -0.4002
 2622TIP3    H129281   2.228   2.518   4.949  0.1561  0.0366  0.3632
 2622TIP3    H229282   2.182   2.659   4.914  2.0569  0.1928 -1.6022
 2623TIP3   OH229283   2.121   5.053  12.068  0.3187  0.1161 -0.1471
 2623TIP3    H129284   2.101   5.145  12.079 -0.0981 -0.1758  1.6904
 2623TIP3    H229285   2.214   5.051  12.043  0.2157  1.0365 -0.6043
 2624TIP3   OH229286   2.888   1.464   0.402 -0.2351  0.3985  0.4575
 2624TIP3    H129287   2.805   1.425   0.431 -0.7965  1.7470  0.7055
 2624TIP3    H229288   2.862   1.532   0.340  0.8901 -1.6094 -2.2955
 2625TIP3   OH229289   3.343   3.935  13.810  0.4140 -0.3706 -0.1990
 2625TIP3    H129290   3.413   3.869  13.813  0.5124 -0.2725 -0.3401
 2625TIP3    H229291   3.389   4.019  13.807  0.2884 -0.2989 -0.1409
 2626TIP3   OH229292   0.167   3.248   5.740 -0.5358 -0.4217  0.1154
 2626TIP3    H129293   0.208   3.175   5.694  0.9116 -0.2965  1.1627
 2626TIP3    H229294   0.238   3.312   5.752 -1.3977  0.4525  0.6458
 2627TIP3   OH229295   6.630   4.355   5.523  0.1596 -0.0884  0.4447
 2627TIP3    H129296   6.636   4.450   5.533 -0.8037 -0.2164  2.4154
 2627TIP3    H229297   6.552   4.341   5.469  0.6997  0.2655 -0.4279
 2628TIP3   OH229298   3.095   1.430  11.088  0.2052 -0.2146  0.0552
 2628TIP3    H129299   3.054   1.353  11.047 -0.5122  0.0768  0.2094
 2628TIP3    H229300   3.034   1.501  11.070  0.8038  0.2961  0.0271
 2629TIP3   OH229301   6.513   0.561   3.699 -0.4453 -0.2021  0.4991
 2629TIP3    H129302   6.471   0.647   3.697 -0.5453 -0.2281  1.2900
 2629TIP3    H229303   6.505   0.533   3.791 -1.7222 -1.7031 -0.0550
 2630TIP3   OH229304   4.608   5.823  13.427  0.2821 -0.9317  0.3817
 2630TIP3    H129305   4.644   5.870  13.502  0.9800 -1.6850  0.5210
 2630TIP3    H229306   4.658   5.855  13.352  0.4346 -1.1112  0.4080
 2631TIP3   OH229307   5.535   2.565  16.485  0.3684 -0.6303  0.0379
 2631TIP3    H129308   5.542   2.656  16.514 -0.6767 -0.1423 -1.1813
 2631TIP3    H229309   5.611   2.552  16.427  0.4850 -0.5183  0.1642
 2632TIP3   OH229310   2.121   1.065  15.186 -0.0106 -0.5572  0.0585
 2632TIP3    H129311   2.138   1.083  15.278  1.2751 -0.7425 -0.1381
 2632TIP3    H229312   2.097   0.972  15.184  0.8106 -0.7719  0.0971
 2633TIP3   OH229313   6.460   5.148   1.991  0.3230 -0.0448 -0.3595
 2633TIP3    H129314   6.478   5.241   1.998  0.8809 -0.0990 -0.9377
 2633TIP3    H229315   6.411   5.126   2.070  1.7591  0.3702  0.6596
 2634TIP3   OH229316   2.103   5.856   0.001 -0.1284 -0.3513 -0.1291
 2634TIP3    H129317   2.013   5.824  -0.002 -0.2905  0.0864  0.0960
 2634TIP3    H229318   2.149   5.803  -0.065 -0.2719 -1.4114  0.6083
 2635TIP3   OH229319   1.051   0.365   3.592 -0.5027  0.0222  0.0589
 2635TIP3    H129320   1.141   0.398   3.589 -0.0706 -1.1024  0.2767
 2635TIP3    H229321   1.057   0.284   3.643 -1.3425 -0.9348 -1.3095
 2636TIP3   OH229322   0.611   2.190   2.029  0.9487  0.1740 -0.6318
 2636TIP3    H129323   0.555   2.163   2.102  0.5972 -1.8519 -1.6201
 2636TIP3    H229324   0.639   2.279   2.052  0.7483 -0.3863  1.8881
 2637TIP3   OH229325   1.945   4.849   2.518 -0.4933 -0.2404  0.3123
 2637TIP3    H129326   2.002   4.890   2.582  0.9876 -1.7579  0.0128
 2637TIP3    H229327   2.000   4.781   2.477 -1.5877  0.2603 -2.0779
 2638TIP3   OH229328   2.949   1.559   6.237  0.3235  0.6147  0.0761
 2638TIP3    H129329   2.889   1.600   6.299 -0.5781  2.3269 -1.8426
 2638TIP3    H229330   2.989   1.633   6.190  0.8645 -0.6244 -1.4494
 2639TIP3   OH229331   6.475   3.599   1.033 -0.2544 -0.3575  0.4216
 2639TIP3    H129332   6.442   3.559   1.114  0.2360  0.2657  0.9281
 2639TIP3    H229333   6.432   3.549   0.963 -1.5317 -0.1846  1.0712
 2640TIP3   OH229334   3.534   4.709  13.429  0.7669 -0.1941  0.3405
 2640TIP3    H129335   3.579   4.646  13.485  1.1462  0.6784  1.0251
 2640TIP3    H229336   3.514   4.783  13.486 -1.8127 -0.6887  0.1340
 2641TIP3   OH229337   6.677   3.998   0.365 -0.1029 -0.0912 -0.2308
 2641TIP3    H129338   6.639   3.999   0.277 -0.0708  1.0004 -0.2363
 2641TIP3    H229339   6.613   3.951   0.418  0.2168 -1.4080 -0.9819
 2642TIP3   OH229340   0.208   5.116  14.025 -0.7235 -0.1699  0.1349
 2642TIP3    H129341   0.139   5.183  14.025 -0.1471  0.4281 -0.1368
 2642TIP3    H229342   0.290   5.166  14.022 -0.2308 -0.8221  2.1707
 2643TIP3   OH229343   2.497   3.388   3.487  0.4524 -0.6499 -0.4941
 2643TIP3    H129344   2.438   3.315   3.467  0.4178 -0.9539  0.6661
 2643TIP3    H229345   2.456   3.464   3.445 -0.1762 -1.0644 -0.6339
 2644TIP3   OH229346   3.018   6.415   1.919  0.1227  0.5322  0.3140
 2644TIP3    H129347   2.931   6.377   1.928 -0.5593  2.4932  2.5485
 2644TIP3    H229348   3.054   6.413   2.008  1.9156  0.7258 -0.3922
 2645TIP3   OH229349   1.669   0.694   4.795 -0.3474 -0.1621 -0.0754
 2645TIP3    H129350   1.592   0.728   4.841  1.3183  2.1359  1.1212
 2645TIP3    H229351   1.679   0.604   4.828 -3.1876 -0.9471 -1.1799
 2646TIP3   OH229352   4.973   4.726   5.856  0.4097 -0.0057  0.3338
 2646TIP3    H129353   4.970   4.784   5.779 -1.6781  0.4180  0.7138
 2646TIP3    H229354   4.888   4.683   5.857  0.2619  0.3078  2.6552
 2647TIP3   OH229355   2.173   6.276  17.050  0.5102  0.2304  0.0025
 2647TIP3    H129356   2.123   6.251  16.972 -1.8621  0.4248  1.4268
 2647TIP3    H229357   2.264   6.272  17.022 -0.3436  1.4849 -3.1282
 2648TIP3   OH229358   3.427   0.531  16.703 -0.6036  0.1572  0.0662
 2648TIP3    H129359   3.408   0.587  16.779 -2.2515 -0.9725  0.5138
 2648TIP3    H229360   3.366   0.560  16.636 -0.9552 -0.6099  0.0563
 2649TIP3   OH229361   5.149   5.691   5.205 -0.6226  0.1517 -0.6754
 2649TIP3    H129362   5.241   5.664   5.211 -0.2692  1.3341 -0.4998
 2649TIP3    H229363   5.134   5.702   5.111 -0.4181  0.4924 -0.6695
 2650TIP3   OH229364   3.699   6.381  13.799 -0.1805  0.0161  0.2862
 2650TIP3    H129365   3.639   6.441  13.754 -1.1278 -1.7109 -0.7896
 2650TIP3    H229366   3.741   6.436  13.865 -0.0351  2.2061 -1.5447
 2651TIP3   OH229367   1.369   0.861   4.751 -0.1591 -1.0235  0.2911
 2651TIP3    H129368   1.277   0.853   4.779 -0.8612 -0.1851 -1.6496
 2651TIP3    H229369   1.405   0.929   4.807 -1.4682  0.4450 -0.5691
 2652TIP3   OH229370   6.476   1.512  14.808 -0.1362 -0.1774 -0.2591
 2652TIP3    H129371   6.486   1.422  14.779  0.6759 -0.2493  0.2232
 2652TIP3    H229372   6.391   1.514  14.853  0.6794 -1.1623  1.3857
 2653TIP3   OH229373   3.427   1.184  12.124 -0.0501  0.7005  0.0061
 2653TIP3    H129374   3.465   1.184  12.036  0.2776  0.2576  0.1468
 2653TIP3    H229375   3.339   1.220  12.112 -0.9836 -1.7240 -0.9282
 2654TIP3   OH229376   0.860   5.498   2.171 -0.3178  0.3400 -0.1729
 2654TIP3    H129377   0.818   5.538   2.247  0.3993 -0.1768  0.5048
 2654TIP3    H229378   0.823   5.410   2.167  0.0598  0.1799 -0.0949
 2655TIP3   OH229379   5.261   2.756   0.004 -0.2688 -0.2822  0.7638
 2655TIP3    H129380   5.295   2.680   0.051 -2.4909 -2.3959 -0.9123
 2655TIP3    H229381   5.172   2.766   0.037  0.3309  2.2595  1.6924
 2656TIP3   OH229382   4.588   0.762  11.926 -0.0414 -0.0496  0.4113
 2656TIP3    H129383   4.590   0.718  12.011 -0.0456 -1.8807 -0.5061
 2656TIP3    H229384   4.496   0.776  11.908 -0.1311 -1.0161  0.0564
 2657TIP3   OH229385   5.660   4.618   4.882  0.1570 -0.0792  0.0712
 2657TIP3    H129386   5.735   4.649   4.832  1.9302 -0.0699  2.6338
 2657TIP3    H229387   5.696   4.595   4.967 -2.2248 -3.1671  0.3126
 2658TIP3   OH229388   2.548   2.883  16.658  0.2951 -0.1808 -0.2730
 2658TIP3    H129389   2.598   2.883  16.577 -0.7397  1.5866 -0.9438
 2658TIP3    H229390   2.610   2.854  16.725  0.8705 -2.6875 -1.8294
 2659TIP3   OH229391   2.663   6.049   5.248  0.4912  0.3477 -0.1601
 2659TIP3    H129392   2.757   6.062   5.236  0.5340  0.7591  0.5784
 2659TIP3    H229393   2.639   6.112   5.316  0.2076 -1.6598  1.6744
 2660TIP3   OH229394   2.729   0.475   1.004 -0.0298 -0.0463 -0.2599
 2660TIP3    H129395   2.822   0.454   1.017 -0.2953 -1.2817 -0.2254
 2660TIP3    H229396   2.684   0.427   1.073 -0.6785  0.7756 -0.1109
 2661TIP3   OH229397   0.508   1.812   0.050 -0.4503 -0.0351  0.4987
 2661TIP3    H129398   0.581   1.779   0.102 -0.2220 -0.5222 -0.1152
 2661TIP3    H229399   0.474   1.887   0.099 -0.7505 -0.9700  1.7432
 2662TIP3   OH229400   4.028   2.886  12.558  0.7571  0.3479  0.2759
 2662TIP3    H129401   4.066   2.967  12.523  0.8718  0.3783  0.4707
 2662TIP3    H229402   3.977   2.915  12.634 -0.6410  0.4667 -0.6909
 2663TIP3   OH229403   3.668   0.246   2.092  0.2090 -0.1253 -0.3228
 2663TIP3    H129404   3.609   0.286   2.029  1.3721  0.4061 -1.0914
 2663TIP3    H229405   3.752   0.290   2.078  0.5089 -0.0418  1.5526
 2664TIP3   OH229406   2.327   0.777   3.619 -0.0110 -0.0948  0.0790
 2664TIP3    H129407   2.402   0.808   3.671  0.4619 -1.0181 -0.0358
 2664TIP3    H229408   2.272   0.730   3.683  1.2067 -2.3356 -0.4721
 2665TIP3   OH229409   4.203   1.932  10.867  0.3633 -0.2377  0.5259
 2665TIP3    H129410   4.110   1.921  10.845  0.9174 -0.7590 -1.5632
 2665TIP3    H229411   4.238   1.844  10.871  1.5110  0.0842 -1.9595
 2666TIP3   OH229412   5.783   6.291  16.061  1.1910  0.2898  0.1354
 2666TIP3    H129413   5.712   6.249  16.110  1.1877 -0.3899 -0.4476
 2666TIP3    H229414   5.749   6.378  16.040 -0.1115 -0.6035 -1.5362
 2667TIP3   OH229415   6.044   0.683  13.056  0.0590  0.4249 -0.0010
 2667TIP3    H129416   5.981   0.613  13.036  0.5769 -0.4100  1.1965
 2667TIP3    H229417   6.037   0.744  12.983 -1.0686 -0.4231 -0.6104
 2668TIP3   OH229418   1.748   5.338   1.247 -0.0179  0.0854 -0.2173
 2668TIP3    H129419   1.714   5.322   1.335 -1.0600  1.0132 -0.4508
 2668TIP3    H229420   1.808   5.265   1.231 -0.0956 -0.2736  1.1239
 2669TIP3   OH229421   3.197   1.304   4.548  0.4234  0.5144  0.8258
 2669TIP3    H129422   3.208   1.272   4.638 -0.3374  2.0327  1.4686
 2669TIP3    H229423   3.283   1.341   4.526  0.7987 -0.4284  0.6953
 2670TIP3   OH229424   5.948   6.294  10.655 -0.3280 -0.8604  0.2752
 2670TIP3    H129425   5.860   6.258  10.659 -1.3532  1.3436 -1.2237
 2670TIP3    H229426   5.949   6.362  10.722  0.8123 -2.0422  1.4800
 2671TIP3   OH229427   1.364   2.630  13.944 -0.0177  0.9539  0.6307
 2671TIP3    H129428   1.416   2.621  13.865 -1.2318 -0.3196 -0.0539
 2671TIP3    H229429   1.393   2.712  13.984  2.7556  0.0758  0.4947
 2672TIP3   OH229430   1.073   0.211  12.056  0.2110 -1.1552 -0.4709
 2672TIP3    H129431   1.138   0.144  12.035 -0.1541 -0.8596 -2.7190
 2672TIP3    H229432   1.040   0.239  11.971 -1.2726  0.2738  0.5472
 2673TIP3   OH229433   3.136   4.955  16.579  0.0409  0.5118  0.0546
 2673TIP3    H129434   3.048   4.987  16.601 -0.0535  0.3888 -0.1447
 2673TIP3    H229435   3.121   4.883  16.518  0.2156 -0.5211  1.2166
 2674TIP3   OH229436   3.997   6.296  14.941 -0.1975 -0.0324  0.3528
 2674TIP3    H129437   4.056   6.355  14.895  0.4959  0.2217  1.5357
 2674TIP3    H229438   3.950   6.353  15.003  0.3532 -0.6809  1.3870
 2675TIP3   OH229439   5.541   3.786  15.993  0.0222  0.0722  0.0501
 2675TIP3    H129440   5.609   3.852  16.008 -0.3437  0.7990 -1.4864
 2675TIP3    H229441   5.498   3.777  16.079  1.4481  0.2700  0.8027
 2676TIP3   OH229442   5.353   5.928  13.137  0.2662 -0.2381  0.1484
 2676TIP3    H129443   5.341   5.904  13.229  0.3347  0.4260  0.3300
 2676TIP3    H229444   5.276   5.892  13.093  1.9838 -3.7411 -0.1584
 2677TIP3   OH229445   4.250   3.291   5.412 -0.1686  0.2389 -1.2019
 2677TIP3    H129446   4.295   3.209   5.391 -1.2089 -0.7040  0.1250
 2677TIP3    H229447   4.164   3.282   5.370 -1.3054 -0.5698  1.1355
 2678TIP3   OH229448   1.348   0.873  10.974  0.6420 -0.0514 -0.2630
 2678TIP3    H129449   1.337   0.805  10.908  0.7650  1.3255 -1.7328
 2678TIP3    H229450   1.269   0.926  10.968  0.7441  0.2077  0.5675
 2679TIP3   OH229451   6.487   2.108   0.835  0.3806  0.1492  0.5515
 2679TIP3    H129452   6.576   2.123   0.867  0.4080 -0.7710  0.9461
 2679TIP3    H229453   6.498   2.083   0.743  0.4679  0.7648  0.3924
 2680TIP3   OH229454   2.561   3.797  13.959  0.0931 -0.1870  0.7254
 2680TIP3    H129455   2.654   3.820  13.966  1.0522 -3.2690 -1.2022
 2680TIP3    H229456   2.546   3.735  14.030 -0.4552  0.0513  0.8220
 2681TIP3   OH229457   0.574   2.888   5.631  0.4053  0.3307  0.0795
 2681TIP3    H129458   0.605   2.926   5.548 -0.9149  2.1716  0.4162
 2681TIP3    H229459   0.504   2.827   5.604 -0.7511  1.7164 -0.0876
 2682TIP3   OH229460   4.012   3.444  13.526  0.1549 -0.3205 -0.4730
 2682TIP3    H129461   3.967   3.410  13.449  1.9482 -2.2047 -0.7361
 2682TIP3    H229462   4.093   3.393  13.531 -0.1872 -0.6477  3.0017
 2683TIP3   OH229463   6.700   5.763  16.273  0.7048  0.2722 -0.3820
 2683TIP3    H129464   6.619   5.766  16.223 -0.3763  0.1824  1.3259
 2683TIP3    H229465   6.769   5.753  16.207 -0.5885  1.2180 -1.9062
 2684TIP3   OH229466   2.090   5.699   5.399  0.2992  0.4822 -0.0308
 2684TIP3    H129467   2.045   5.646   5.465  0.5291 -0.1931 -0.4115
 2684TIP3    H229468   2.020   5.747   5.356 -0.2082 -1.4132 -1.3838
 2685TIP3   OH229469   5.315   3.694   2.287  0.6029  0.7921 -0.2052
 2685TIP3    H129470   5.275   3.645   2.215 -0.2527 -0.6048  1.1821
 2685TIP3    H229471   5.350   3.626   2.345 -1.7499  1.7052  2.4113
 2686TIP3   OH229472   5.951   6.698   2.882 -0.2959 -0.1681 -0.8718
 2686TIP3    H129473   6.006   6.776   2.888  0.7852 -0.7458 -2.6118
 2686TIP3    H229474   5.914   6.701   2.794 -2.8920  0.0663  0.1975
 2687TIP3   OH229475   3.339   3.036   0.124  0.1269 -0.1744 -0.0314
 2687TIP3    H129476   3.359   3.055   0.033  1.9878  1.0765  0.6171
 2687TIP3    H229477   3.420   2.999   0.160  0.4856  2.3814  1.9258
 2688TIP3   OH229478   1.587   5.998   4.754 -0.2398  0.6437  0.0935
 2688TIP3    H129479   1.645   5.985   4.680 -0.6875  1.0574 -0.3286
 2688TIP3    H229480   1.642   5.981   4.831 -0.4331 -2.3949 -0.3864
 2689TIP3   OH229481   2.547   3.494   0.441 -0.3748  0.2656 -0.5469
 2689TIP3    H129482   2.573   3.402   0.441 -3.1347 -0.5868  0.3804
 2689TIP3    H229483   2.615   3.539   0.391  1.1663 -2.2277 -0.7754
 2690TIP3   OH229484   3.930   3.003   5.450 -0.1617  0.0186  0.3502
 2690TIP3    H129485   3.944   2.975   5.360 -1.6548 -0.7741  0.3491
 2690TIP3    H229486   4.018   3.011   5.487  0.4394 -0.0971 -1.0320
 2691TIP3   OH229487   0.053   0.646  11.620  0.0139  0.0103  0.2450
 2691TIP3    H129488   0.137   0.617  11.585  0.1624  0.0807  0.5448
 2691TIP3    H229489   0.001   0.566  11.628 -0.1975  0.0519 -0.6073
 2692TIP3   OH229490   6.225   0.635   3.826  0.1993  0.6077  0.0342
 2692TIP3    H129491   6.183   0.700   3.883  0.5632  0.0494  0.9542
 2692TIP3    H229492   6.303   0.608   3.875 -1.8421 -3.1930  1.3693
 2693TIP3   OH229493   1.897   2.298   4.213 -0.4512  0.2804  0.2619
 2693TIP3    H129494   1.916   2.357   4.286  1.0931 -1.6862  1.4952
 2693TIP3    H229495   1.805   2.316   4.191  0.0177  3.2139  0.4914
 2694TIP3   OH229496   1.074   3.608  15.292 -0.6603 -0.2077  0.1968
 2694TIP3    H129497   1.151   3.663  15.308 -0.6339 -0.1215 -0.2333
 2694TIP3    H229498   1.000   3.664  15.316 -0.6832  0.3673 -1.2172
 2695TIP3   OH229499   5.223   2.653  16.339 -0.2263  0.1651  0.3879
 2695TIP3    H129500   5.317   2.668  16.352  0.0417 -0.3072 -0.9270
 2695TIP3    H229501   5.185   2.741  16.342  0.3322  0.4158  0.3859
 2696TIP3   OH229502   3.617   0.342  15.737 -0.0658 -0.2301 -0.0905
 2696TIP3    H129503   3.548   0.294  15.691  0.0789  0.8694 -1.5091
 2696TIP3    H229504   3.654   0.400  15.670  1.8851 -0.4268  0.7805
 2697TIP3   OH229505   6.636   3.928   1.527 -0.0567 -0.0861  0.7763
 2697TIP3    H129506   6.597   3.999   1.475  2.8053  0.4542 -0.7330
 2697TIP3    H229507   6.653   3.859   1.463 -0.0527 -0.9620  1.7129
 2698TIP3   OH229508   2.901   5.620   5.988  0.8238 -0.0148  0.1239
 2698TIP3    H129509   2.960   5.597   6.059 -1.4558 -0.9993  1.7507
 2698TIP3    H229510   2.887   5.714   5.998 -0.8141 -0.4321  2.0670
 2699TIP3   OH229511   2.811   4.622   6.986  0.8039 -0.6091 -0.3301
 2699TIP3    H129512   2.863   4.585   6.915  0.1115 -0.8618 -0.7039
 2699TIP3    H229513   2.841   4.713   6.993  0.6002 -0.4708 -1.2063
 2700TIP3   OH229514   2.753   0.309  15.758  0.4666 -0.0546  0.3113
 2700TIP3    H129515   2.712   0.235  15.803  0.5073 -0.2097  0.0916
 2700TIP3    H229516   2.680   0.366  15.733  0.5315  0.6808  1.7206
 2701TIP3   OH229517   2.153   5.061  13.922 -0.7153  0.1275  0.3405
 2701TIP3    H129518   2.234   5.073  13.872 -1.5539 -1.3724 -1.4348
 2701TIP3    H229519   2.108   5.145  13.915 -0.4579  0.1833 -0.7674
 2702TIP3   OH229520   1.509   3.403  14.047  0.0848 -0.1576  0.2353
 2702TIP3    H129521   1.452   3.393  13.970 -1.9082  0.1115  1.6303
 2702TIP3    H229522   1.509   3.497  14.064 -0.0001 -0.2824  0.9404
 2703TIP3   OH229523   0.513   2.486  14.583  0.0242  0.8720  0.1452
 2703TIP3    H129524   0.505   2.394  14.561 -1.0874  1.1751 -0.7289
 2703TIP3    H229525   0.590   2.516  14.534 -0.8492  0.9001 -1.2268
 2704TIP3   OH229526   1.574   0.513   4.250 -0.7323 -0.2206  0.5193
 2704TIP3    H129527   1.627   0.593   4.249 -0.6944 -0.2290  1.1799
 2704TIP3    H229528   1.604   0.462   4.175 -1.7115  1.0024 -0.7080
 2705TIP3   OH229529   6.198   3.368  14.608 -0.2569  0.5408  0.2069
 2705TIP3    H129530   6.178   3.303  14.541  2.2246 -0.1471  0.0796
 2705TIP3    H229531   6.237   3.318  14.680 -0.7626  1.5673  1.2216
 2706TIP3   OH229532   6.091   5.323  14.171  0.0387 -0.1795  0.3613
 2706TIP3    H129533   6.109   5.240  14.125  0.2014  0.2545 -0.3598
 2706TIP3    H229534   6.120   5.307  14.261 -1.9041 -1.6331  0.7562
 2707TIP3   OH229535   3.890   0.775  11.754 -0.2229  0.3857  0.3089
 2707TIP3    H129536   3.842   0.795  11.834 -2.8995  0.5021 -1.2850
 2707TIP3    H229537   3.905   0.681  11.757  2.1230  0.7786  2.2314
 2708TIP3   OH229538   5.387   4.273  15.636  0.0695  0.2093 -0.5680
 2708TIP3    H129539   5.387   4.180  15.658  1.1080 -0.2552 -2.3632
 2708TIP3    H229540   5.315   4.284  15.574 -0.5467  0.7580  0.2437
 2709TIP3   OH229541   1.938   0.691  15.322 -0.0927 -0.1089 -0.1976
 2709TIP3    H129542   1.985   0.739  15.391 -0.6437  0.0185  0.0926
 2709TIP3    H229543   1.989   0.707  15.243  0.1237  0.3682  0.0339
 2710TIP3   OH229544   3.708   6.740  12.525 -0.0834 -0.3759  0.2093
 2710TIP3    H129545   3.780   6.771  12.469 -0.5485  2.1198  0.9509
 2710TIP3    H229546   3.632   6.739  12.468 -0.3734  1.3011  0.5634
 2711TIP3   OH229547   4.782   1.310   2.062 -0.0575  0.2219  0.2903
 2711TIP3    H129548   4.699   1.288   2.019  0.9667 -0.2338 -1.5234
 2711TIP3    H229549   4.780   1.405   2.072 -1.3134  0.0848  1.3548
 2712TIP3   OH229550   3.857   3.434  16.525 -0.7523  0.1939  0.3846
 2712TIP3    H129551   3.937   3.397  16.487 -1.8767 -0.8563 -1.0597
 2712TIP3    H229552   3.804   3.459  16.449 -1.6784  1.1277  1.3156
 2713TIP3   OH229553   6.550   0.297   0.493 -0.4916  0.4284 -0.5487
 2713TIP3    H129554   6.636   0.323   0.459 -1.4461  0.9216 -2.6422
 2713TIP3    H229555   6.559   0.204   0.513  0.5648  0.5142 -0.5838
 2714TIP3   OH229556   0.506   2.958   2.460 -0.2216  0.3011  0.1947
 2714TIP3    H129557   0.421   2.985   2.424 -0.7201 -0.5461  0.7300
 2714TIP3    H229558   0.563   2.948   2.383 -0.9408 -0.3008 -0.2655
 2715TIP3   OH229559   3.373   5.886   3.750 -0.1114 -0.1637  0.1785
 2715TIP3    H129560   3.304   5.948   3.777 -0.3391 -0.4065  0.1506
 2715TIP3    H229561   3.454   5.926   3.782 -0.2925 -0.0209  0.4648
 2716TIP3   OH229562   6.117   2.957   0.270 -0.2962  0.2580  0.5463
 2716TIP3    H129563   6.119   2.869   0.232 -1.4544  0.8818 -1.0145
 2716TIP3    H229564   6.207   2.987   0.266  0.0426 -0.7213  0.7481
 2717TIP3   OH229565   5.678   4.871   2.617  0.8138  0.0342  0.3432
 2717TIP3    H129566   5.689   4.927   2.694  1.4630 -2.2210  1.9519
 2717TIP3    H229567   5.702   4.783   2.648 -3.4238 -1.7826 -1.1829
 2718TIP3   OH229568   3.602   1.273  11.557  0.3761 -0.0956 -0.2535
 2718TIP3    H129569   3.662   1.281  11.632 -0.0345  2.2063 -0.1480
 2718TIP3    H229570   3.659   1.258  11.482  0.8715 -1.1301  0.3187
 2719TIP3   OH229571   1.355   5.447  13.486 -0.1513 -0.5866  0.4173
 2719TIP3    H129572   1.350   5.474  13.395  1.3998 -2.4951 -0.2644
 2719TIP3    H229573   1.413   5.511  13.528 -0.6755  0.1492  0.0347
 2720TIP3   OH229574   5.435   1.589  15.499 -0.7439  0.1701 -0.3825
 2720TIP3    H129575   5.490   1.645  15.443 -0.8378  0.9732  0.3247
 2720TIP3    H229576   5.350   1.633  15.501 -0.6480  0.3065  0.6555
 2721TIP3   OH229577   0.114   2.398   0.640  0.4786 -0.2796  0.1966
 2721TIP3    H129578   0.142   2.465   0.702 -1.2326 -0.3934  1.1315
 2721TIP3    H229579   0.097   2.321   0.694 -2.1382 -0.0488 -0.1943
 2722TIP3   OH229580   3.917   3.520  15.369 -0.1005 -0.2749 -0.0985
 2722TIP3    H129581   3.888   3.516  15.278  1.3467 -0.8634 -0.5335
 2722TIP3    H229582   3.864   3.453  15.414  1.2482 -2.0465 -1.0927
 2723TIP3   OH229583   3.806   2.331  15.439  0.1721  0.0091  0.3926
 2723TIP3    H129584   3.838   2.257  15.489  0.8844  1.3065  1.8674
 2723TIP3    H229585   3.878   2.355  15.381  0.3270  0.2406  0.6836
 2724TIP3   OH229586   3.731   0.216   2.988  0.0186  0.5065  0.3720
 2724TIP3    H129587   3.720   0.275   3.062  1.5238 -0.2238  1.1803
 2724TIP3    H229588   3.688   0.135   3.016 -0.3609  0.5817  0.0137
 2725TIP3   OH229589   5.662   3.479   3.911 -0.0176  0.0502  0.2065
 2725TIP3    H129590   5.747   3.483   3.867  0.1116  0.7301  0.5086
 2725TIP3    H229591   5.676   3.526   3.993 -1.1699  1.7930 -0.5638
 2726TIP3   OH229592   1.829   4.289   3.187  0.2584  0.7272 -0.0562
 2726TIP3    H129593   1.899   4.227   3.207 -0.6755  0.1517  1.4355
 2726TIP3    H229594   1.755   4.235   3.160  0.2397  1.3184 -1.2552
 2727TIP3   OH229595   0.876   5.869   5.971  0.2228 -0.0253  0.4939
 2727TIP3    H129596   0.812   5.805   5.939  0.6557 -0.6736  0.9099
 2727TIP3    H229597   0.938   5.817   6.022  1.0455  0.6134  0.1541
 2728TIP3   OH229598   6.461   6.196  16.805  0.0158 -0.3330 -0.4958
 2728TIP3    H129599   6.534   6.161  16.755 -1.4021 -1.0075 -2.1299
 2728TIP3    H229600   6.389   6.201  16.742 -1.7351 -0.9648  1.4110
 2729TIP3   OH229601   2.645   2.023   1.910 -0.2447  0.2408  0.0387
 2729TIP3    H129602   2.702   2.094   1.941 -0.5208 -0.4192  2.1414
 2729TIP3    H229603   2.700   1.973   1.849  0.7484  0.8188  0.4445
 2730TIP3   OH229604   5.326   4.305   0.676  0.3092  0.3709 -0.1395
 2730TIP3    H129605   5.255   4.291   0.739  0.2274  0.5257 -0.1960
 2730TIP3    H229606   5.354   4.217   0.651 -1.5587  0.2807 -2.0334
 2731TIP3   OH229607   6.509   4.400  12.797  0.1036 -0.7884  0.0219
 2731TIP3    H129608   6.513   4.311  12.762 -1.7839 -0.1971 -1.8465
 2731TIP3    H229609   6.449   4.394  12.871  0.0961 -1.0832 -0.0067
 2732TIP3   OH229610   4.515   3.705  14.447  0.2000  0.0577 -0.0787
 2732TIP3    H129611   4.506   3.800  14.440 -1.1568 -0.0239  0.3336
 2732TIP3    H229612   4.541   3.677  14.360  1.5510  0.8985  0.0341
 2733TIP3   OH229613   2.692   6.638  15.049 -0.3949  0.0691  0.0545
 2733TIP3    H129614   2.689   6.669  14.958  0.2893  0.8026  0.2750
 2733TIP3    H229615   2.617   6.679  15.091  0.4981  1.4383  0.3408
 2734TIP3   OH229616   1.224   5.893  16.378 -0.8742 -0.2510  0.4315
 2734TIP3    H129617   1.204   5.968  16.322  0.1458 -0.2737  0.0446
 2734TIP3    H229618   1.139   5.851  16.392 -1.1996  0.0189 -0.7072
 2735TIP3   OH229619   3.585   1.050   2.881  0.6594 -0.0035  0.8453
 2735TIP3    H129620   3.626   1.094   2.955  1.4348  0.0225  0.4001
 2735TIP3    H229621   3.573   0.960   2.910  0.3579  0.1611  1.2408
 2736TIP3   OH229622   0.870   1.347   4.600 -0.1837  0.0181 -0.0064
 2736TIP3    H129623   0.906   1.259   4.588  0.7721  0.4764 -0.5623
 2736TIP3    H229624   0.945   1.405   4.585 -1.3515  1.0295 -2.1253
 2737TIP3   OH229625   0.212   0.846   5.120 -1.3225  0.0570  0.0282
 2737TIP3    H129626   0.133   0.900   5.123 -1.6661 -0.5116  2.3356
 2737TIP3    H229627   0.261   0.869   5.199 -0.1356 -1.0118 -0.3666
 2738TIP3   OH229628   3.617   3.511   1.124 -0.3053 -0.7271 -0.1517
 2738TIP3    H129629   3.671   3.544   1.053  0.3035 -1.8255 -0.1986
 2738TIP3    H229630   3.527   3.524   1.093 -0.0695  0.3458 -0.4084
 2739TIP3   OH229631   5.573   6.086  11.175 -0.2771  0.2425 -0.0202
 2739TIP3    H129632   5.566   6.050  11.087 -0.2824  2.3631 -0.9306
 2739TIP3    H229633   5.544   6.016  11.233 -2.0301 -0.5681 -1.8382
 2740TIP3   OH229634   5.219   4.948   0.735  0.2414 -0.0621 -0.5336
 2740TIP3    H129635   5.149   5.013   0.742  0.5163  0.1460  0.3854
 2740TIP3    H229636   5.295   4.990   0.775  0.4531 -0.9036 -0.0513
 2741TIP3   OH229637   2.104   6.485  15.868 -0.5565  0.2456 -0.2703
 2741TIP3    H129638   2.008   6.492  15.876 -0.5516  1.0979 -0.8566
 2741TIP3    H229639   2.137   6.554  15.926 -0.3162  0.3205 -0.4981
 2742TIP3   OH229640   4.770   1.619   2.087  0.2588  0.0880 -0.1569
 2742TIP3    H129641   4.836   1.689   2.094 -0.7945  1.1072 -0.3382
 2742TIP3    H229642   4.709   1.650   2.020  0.7007 -1.7740 -1.4593
 2743TIP3   OH229643   6.537   5.344   5.257  0.4989 -0.0037  0.1886
 2743TIP3    H129644   6.478   5.416   5.280  2.0312  1.3856 -0.1025
 2743TIP3    H229645   6.520   5.276   5.322 -1.9942  0.0257 -0.3853
 2744TIP3   OH229646   0.674   6.477   5.499  0.5353 -0.0359 -0.0985
 2744TIP3    H129647   0.627   6.531   5.563  0.2583  1.0088 -1.1529
 2744TIP3    H229648   0.606   6.423   5.459  0.6906 -0.6051  0.4009
 2745TIP3   OH229649   1.136   2.885  16.715 -0.0188  0.0802 -0.5442
 2745TIP3    H129650   1.176   2.930  16.640 -0.4122  2.4564  0.6263
 2745TIP3    H229651   1.200   2.895  16.785 -0.8790  0.3280  0.2146
 2746TIP3   OH229652   1.501   1.916  13.668 -0.2423  0.7485  0.1265
 2746TIP3    H129653   1.570   1.920  13.734  2.3452  0.7201 -2.4886
 2746TIP3    H229654   1.483   2.008  13.647 -0.2502  0.7282  0.0466
 2747TIP3   OH229655   0.146   1.600   5.953 -0.2236  0.4788 -0.0672
 2747TIP3    H129656   0.238   1.575   5.942 -0.3135  0.0267  0.2172
 2747TIP3    H229657   0.101   1.518   5.973 -0.4962  0.8842  1.0014
 2748TIP3   OH229658   1.018   0.625   2.024  0.1784  0.1877  0.7806
 2748TIP3    H129659   0.928   0.621   2.058  0.5051  0.1257  1.6454
 2748TIP3    H229660   1.071   0.583   2.092  0.8090 -0.1772  0.0763
 2749TIP3   OH229661   0.210   3.070  13.674 -0.0017 -0.0404 -0.2159
 2749TIP3    H129662   0.157   3.108  13.604  0.5280  1.5093  0.1974
 2749TIP3    H229663   0.291   3.044  13.631 -0.5322 -1.1215 -0.5808
 2750TIP3   OH229664   0.303   1.446   3.507 -0.6724  0.0273 -0.5464
 2750TIP3    H129665   0.317   1.454   3.601 -0.4014  2.9982 -0.7675
 2750TIP3    H229666   0.213   1.474   3.493 -0.7032 -0.3590 -1.1581
 2751TIP3   OH229667   4.592   0.221  13.268 -0.5319 -0.1930 -0.8296
 2751TIP3    H129668   4.668   0.241  13.323 -1.0543 -0.1112 -0.1252
 2751TIP3    H229669   4.520   0.207  13.331 -1.4286  1.1180 -1.5314
 2752TIP3   OH229670   4.048   1.853   5.289 -0.7353 -0.0855 -0.1495
 2752TIP3    H129671   4.128   1.903   5.305 -0.8262  0.1429 -0.3848
 2752TIP3    H229672   4.078   1.773   5.245 -0.5776 -0.2878  0.3296
 2753TIP3   OH229673   0.632   5.456  11.883  0.7255  0.1269 -0.3913
 2753TIP3    H129674   0.698   5.521  11.905  0.3136  0.1553  0.7803
 2753TIP3    H229675   0.627   5.459  11.788  2.9745 -0.4353 -0.5557
 2754TIP3   OH229676   1.940   0.911  10.395  0.2534 -0.8664  0.4740
 2754TIP3    H129677   1.949   0.831  10.344 -0.9177  0.7631 -2.4060
 2754TIP3    H229678   1.981   0.979  10.341 -1.1964  0.9571  1.5829
 2755TIP3   OH229679   3.209   5.350   0.146 -0.0397  0.1052  0.3389
 2755TIP3    H129680   3.163   5.322   0.067  1.0829  0.0442 -0.2965
 2755TIP3    H229681   3.280   5.407   0.114  0.7620 -0.3662  1.2578
 2756TIP3   OH229682   6.022   1.486   5.542  0.2913  0.6493 -0.0081
 2756TIP3    H129683   5.936   1.514   5.511  1.1381  2.2917 -0.9807
 2756TIP3    H229684   6.004   1.421   5.610 -1.6872  0.2615 -0.8858
 2757TIP3   OH229685   3.300   3.715  17.032  0.0721 -0.2347  0.3121
 2757TIP3    H129686   3.250   3.638  17.007 -1.2584  0.7155 -0.0292
 2757TIP3    H229687   3.299   3.715  17.128  0.3248 -0.8000  0.3134
 2758TIP3   OH229688   6.240   2.884   3.591 -0.3201 -0.3477  0.1341
 2758TIP3    H129689   6.332   2.887   3.617  0.1263 -0.9267 -1.3070
 2758TIP3    H229690   6.199   2.829   3.657  0.7556 -1.6825 -0.2852
 2759TIP3   OH229691   0.240   0.600   1.332 -0.2249 -0.8557  0.1655
 2759TIP3    H129692   0.218   0.559   1.249 -0.4904 -1.9547  0.7681
 2759TIP3    H229693   0.273   0.687   1.308  2.0556 -2.0718 -1.2709
 2760TIP3   OH229694   6.765   5.535  13.793 -0.9881 -0.3637  0.4468
 2760TIP3    H129695   6.741   5.479  13.868 -0.5352  0.2415  1.0529
 2760TIP3    H229696   6.745   5.624  13.822 -1.4724 -0.1819 -0.4258
 2761TIP3   OH229697   4.613   6.137   4.779 -0.0278 -0.1724  0.5095
 2761TIP3    H129698   4.627   6.104   4.691 -0.2784 -0.5240  0.5999
 2761TIP3    H229699   4.624   6.061   4.836 -1.2072 -0.2388  0.6663
 2762TIP3   OH229700   5.648   1.565  16.082 -0.2331 -0.0565 -0.3343
 2762TIP3    H129701   5.601   1.552  16.000 -0.2611  0.7458 -0.4426
 2762TIP3    H229702   5.716   1.498  16.081  0.1190  0.3141 -1.2687
 2763TIP3   OH229703   2.312   6.351  12.128 -0.2998 -0.5486  0.0141
 2763TIP3    H129704   2.356   6.390  12.053 -0.4975  0.3948  0.3862
 2763TIP3    H229705   2.255   6.284  12.090  0.0165 -0.4523 -0.6286
 2764TIP3   OH229706   5.330   4.326  12.940  0.2906  0.1821  0.3069
 2764TIP3    H129707   5.399   4.325  13.006  0.3018 -0.8143  0.2898
 2764TIP3    H229708   5.264   4.264  12.972  0.5480 -0.7281 -0.8739
 2765TIP3   OH229709   3.431   6.281  12.989  0.0484 -0.6284  0.4882
 2765TIP3    H129710   3.451   6.373  12.970  1.2310 -1.2118 -1.2093
 2765TIP3    H229711   3.459   6.269  13.080 -0.2684  0.7155  0.7850
 2766TIP3   OH229712   2.988   0.495  11.510 -0.6606  0.1039 -0.2158
 2766TIP3    H129713   3.016   0.413  11.469  1.5779  1.9223 -2.4503
 2766TIP3    H229714   2.950   0.468  11.593  2.1826 -3.0590  0.1749
 2767TIP3   OH229715   3.022   5.039  13.645 -0.4037  0.0714 -0.3584
 2767TIP3    H129716   3.103   5.068  13.687  0.9882 -2.1045 -1.4643
 2767TIP3    H229717   3.017   5.092  13.565 -0.7371  1.0572  0.2978
 2768TIP3   OH229718   1.214   1.151  13.572 -0.2063  0.1786  0.0445
 2768TIP3    H129719   1.146   1.131  13.507  0.3313 -0.6856 -0.2604
 2768TIP3    H229720   1.284   1.191  13.521 -0.0056 -0.0060  0.1766
 2769TIP3   OH229721   5.372   4.336  16.934  0.6743  0.3254  0.3193
 2769TIP3    H129722   5.453   4.386  16.924  0.0221  0.7126 -4.2668
 2769TIP3    H229723   5.303   4.396  16.908 -0.3883 -1.9730 -2.3786
 2770TIP3   OH229724   4.044   6.502  13.794 -0.4510 -0.0369 -0.4171
 2770TIP3    H129725   3.982   6.571  13.818  0.2836  0.2805  0.6134
 2770TIP3    H229726   4.091   6.482  13.875 -1.3498 -2.4970 -0.4792
 2771TIP3   OH229727   5.263   0.823   0.623 -0.5997  0.1252  0.3937
 2771TIP3    H129728   5.196   0.786   0.565  0.1860  0.2949 -0.6338
 2771TIP3    H229729   5.342   0.825   0.570  0.4089 -0.7650  1.8464
 2772TIP3   OH229730   5.312   6.438   5.217 -0.6316  0.1568  0.4188
 2772TIP3    H129731   5.222   6.435   5.248 -0.2891  1.7632  1.6432
 2772TIP3    H229732   5.354   6.362   5.257 -1.7378 -1.3656 -1.2275
 2773TIP3   OH229733   0.428   3.393  15.450  0.4667  0.3994  0.4123
 2773TIP3    H129734   0.354   3.334  15.464  0.2705 -0.0372 -2.3395
 2773TIP3    H229735   0.506   3.340  15.470  0.2095 -0.2870 -0.3985
 2774TIP3   OH229736   5.549   6.204  11.850  0.1018 -0.0794 -0.1135
 2774TIP3    H129737   5.613   6.203  11.779 -0.5282  2.0643 -0.7652
 2774TIP3    H229738   5.561   6.290  11.891 -3.8495  1.3687 -1.7009
 2775TIP3   OH229739   5.825   5.086  17.033  0.2355 -0.2600 -0.0114
 2775TIP3    H129740   5.800   5.086  16.941 -0.3095  0.9940  0.1240
 2775TIP3    H229741   5.919   5.069  17.033  0.5213  1.1802 -0.9033
 2776TIP3   OH229742   4.359   1.851   2.732  0.6675  0.1509 -0.3264
 2776TIP3    H129743   4.399   1.778   2.686  0.5437  0.4572 -0.9175
 2776TIP3    H229744   4.266   1.827   2.740  0.5314  0.4733 -0.9629
 2777TIP3   OH229745   0.777   1.317   2.988 -0.1513 -0.2825  0.2589
 2777TIP3    H129746   0.726   1.238   2.968  1.6637 -2.2505  3.0245
 2777TIP3    H229747   0.728   1.388   2.947 -3.3468 -2.4949  0.0337
 2778TIP3   OH229748   0.176   6.506  10.946  0.2689  0.2968  0.0587
 2778TIP3    H129749   0.243   6.562  10.907 -0.0904  0.5262 -0.2397
 2778TIP3    H229750   0.169   6.431  10.886  0.7229 -0.0512  0.4375
 2779TIP3   OH229751   5.493   1.574   0.248 -0.4027 -0.2360 -0.2919
 2779TIP3    H129752   5.480   1.573   0.154  0.2741 -1.9267 -0.3795
 2779TIP3    H229753   5.465   1.661   0.275 -3.9046 -0.8753 -1.5801
 2780TIP3   OH229754   1.616   5.487  11.913  0.2248 -0.1213  0.4154
 2780TIP3    H129755   1.633   5.395  11.895 -0.8403 -0.0526 -1.0091
 2780TIP3    H229756   1.702   5.528  11.914  0.7460 -1.2315  1.6625
 2781TIP3   OH229757   6.350   3.453   1.226 -0.1680 -1.1555  0.1916
 2781TIP3    H129758   6.413   3.446   1.298  0.5082  0.3713 -0.2213
 2781TIP3    H229759   6.288   3.520   1.256  0.1097 -0.5226 -0.6225
 2782TIP3   OH229760   2.265   0.565  13.096  0.1175 -0.0631 -0.0014
 2782TIP3    H129761   2.344   0.531  13.054 -0.8051 -0.7259 -1.2015
 2782TIP3    H229762   2.297   0.636  13.152  1.1818  2.0875 -3.2067
 2783TIP3   OH229763   1.753   3.967  14.284  0.0802 -0.5756 -0.1030
 2783TIP3    H129764   1.731   4.059  14.269  0.1684 -0.4199  0.7308
 2783TIP3    H229765   1.829   3.951  14.228 -0.1840 -0.2559 -0.5560
 2784TIP3   OH229766   0.475   3.225   2.987  0.5419  0.5572 -0.5433
 2784TIP3    H129767   0.463   3.301   3.044  1.0694  1.2490 -1.3493
 2784TIP3    H229768   0.391   3.214   2.943  0.0578 -0.1245  0.5384
 2785TIP3   OH229769   6.421   3.029  12.409  0.0410 -0.5473  0.0021
 2785TIP3    H129770   6.514   3.049  12.425  0.3977 -2.1992  0.0702
 2785TIP3    H229771   6.423   2.950  12.355 -1.3420 -0.8270  0.3546
 2786TIP3   OH229772   3.381   5.143   2.658  0.3690  0.1322 -0.1854
 2786TIP3    H129773   3.442   5.140   2.584 -0.4202  1.7217 -0.9322
 2786TIP3    H229774   3.376   5.052   2.688  2.8557 -0.0770 -0.2792
 2787TIP3   OH229775   3.690   0.383  16.832 -0.0442 -0.2773  0.0084
 2787TIP3    H129776   3.686   0.314  16.766  1.7175 -0.2685 -0.1496
 2787TIP3    H229777   3.780   0.417  16.826 -0.7536  1.7329  0.3870
 2788TIP3   OH229778   5.733   4.194  17.041  0.0944  0.6309 -0.1852
 2788TIP3    H129779   5.711   4.212  17.132  1.4726  0.4555  0.1941
 2788TIP3    H229780   5.811   4.139  17.045 -0.6929 -0.6259 -1.4488
 2789TIP3   OH229781   5.812   5.588  12.886 -0.0908 -0.2163  0.2661
 2789TIP3    H129782   5.882   5.605  12.948 -0.6232  0.4738  0.6840
 2789TIP3    H229783   5.732   5.612  12.933 -0.3329  2.7641 -1.5380
 2790TIP3   OH229784   1.868   3.640   5.131  0.3695 -0.1217 -0.0643
 2790TIP3    H129785   1.954   3.679   5.148  0.3867 -0.4111  0.5294
 2790TIP3    H229786   1.806   3.700   5.172  0.2469  0.3411 -0.9106
 2791TIP3   OH229787   0.019   3.380   3.005 -0.2145  0.4570  0.1524
 2791TIP3    H129788   0.006   3.343   3.093  0.1476 -1.4040 -0.5638
 2791TIP3    H229789  -0.023   3.466   3.009  1.2039  1.0893  2.6440
 2792TIP3   OH229790   5.037   3.335   0.389 -0.3620 -0.4797 -0.3116
 2792TIP3    H129791   5.034   3.427   0.362 -1.3458 -0.4040  0.0356
 2792TIP3    H229792   4.978   3.331   0.464  1.4598 -0.9147  1.1265
 2793TIP3   OH229793   4.188   5.132  15.286  0.3829  0.0862  0.2529
 2793TIP3    H129794   4.245   5.055  15.296 -0.1508 -0.6793 -2.1311
 2793TIP3    H229795   4.101   5.095  15.271  0.4029  1.0757 -2.5703
 2794TIP3   OH229796   0.235   1.404   2.732 -0.4450 -0.0403 -0.1951
 2794TIP3    H129797   0.149   1.430   2.697 -1.5855 -2.6080  0.6125
 2794TIP3    H229798   0.224   1.408   2.827  0.6755  0.5990 -0.0799
 2795TIP3   OH229799   3.269   1.820   0.323 -0.2188 -0.1193  0.9024
 2795TIP3    H129800   3.236   1.777   0.244  1.2451  0.7034 -0.1931
 2795TIP3    H229801   3.190   1.855   0.365 -1.2428 -2.3355  0.9166
 2796TIP3   OH229802   6.675   1.153   1.036  0.0437  0.0996 -0.3719
 2796TIP3    H129803   6.731   1.148   0.958 -1.5622  0.2083 -1.5606
 2796TIP3    H229804   6.707   1.230   1.083  0.4184  0.5996 -1.4211
 2797TIP3   OH229805   2.102   1.801   4.729  0.3025 -0.3839  0.5673
 2797TIP3    H129806   2.094   1.897   4.733  0.7546 -0.2919 -0.6604
 2797TIP3    H229807   2.024   1.769   4.775 -0.4316  0.5730  0.0051
 2798TIP3   OH229808   3.730   5.513   6.047  0.0490 -0.1324 -0.6707
 2798TIP3    H129809   3.768   5.433   6.084  0.1578 -0.3437 -1.2393
 2798TIP3    H229810   3.769   5.584   6.099 -0.4176 -0.4718  0.1529
 2799TIP3   OH229811   0.589   6.623   5.706  0.1279 -0.3285 -0.1710
 2799TIP3    H129812   0.581   6.698   5.765 -0.6961 -0.4254 -0.1538
 2799TIP3    H229813   0.551   6.550   5.754  0.6138 -0.6846 -0.3235
 2800TIP3   OH229814   5.021   4.224   2.096  0.0744  0.4481 -0.3187
 2800TIP3    H129815   4.986   4.213   2.008 -0.3953  0.2394 -0.1085
 2800TIP3    H229816   5.115   4.234   2.084  0.2724 -1.7038 -0.6718
 2801TIP3   OH229817   1.136   0.357   2.118 -0.4907  0.3331 -0.4292
 2801TIP3    H129818   1.203   0.425   2.111  1.0917 -1.3245 -2.0944
 2801TIP3    H229819   1.173   0.292   2.179 -0.7771 -0.3665 -0.9884
 2802TIP3   OH229820   2.185   2.843   2.561  0.2929  0.4536  0.0636
 2802TIP3    H129821   2.226   2.929   2.564  1.3810 -0.0922  1.6268
 2802TIP3    H229822   2.251   2.786   2.522  0.3992 -0.0887  1.0204
 2803TIP3   OH229823   5.037   0.092  11.692 -0.0798 -0.1115 -0.7079
 2803TIP3    H129824   5.030   0.006  11.650  2.6258  0.7794 -3.1555
 2803TIP3    H229825   5.104   0.138  11.641  0.0725  2.6799  1.8865
 2804TIP3   OH229826   5.284   6.329  14.098  0.3841 -0.4403 -0.1438
 2804TIP3    H129827   5.343   6.262  14.133  0.0432  0.4499  2.2266
 2804TIP3    H229828   5.341   6.403  14.079  0.6267 -1.0518 -1.9278
 2805TIP3   OH229829   5.438   2.069   3.223 -0.3414  0.2922 -0.8597
 2805TIP3    H129830   5.465   1.978   3.207 -1.0393  0.0657 -0.7707
 2805TIP3    H229831   5.520   2.118   3.226 -0.0023 -0.1961 -1.7861
 2806TIP3   OH229832   2.280   1.440  11.922 -0.2782 -0.1339 -0.5230
 2806TIP3    H129833   2.232   1.467  11.844 -1.5647 -0.6987  0.0619
 2806TIP3    H229834   2.237   1.360  11.950  0.7430 -0.4166  0.2638
 2807TIP3   OH229835   2.876   4.820  16.986  0.0775 -0.0614 -0.3095
 2807TIP3    H129836   2.810   4.808  17.054  0.2634  1.1200  0.0907
 2807TIP3    H229837   2.945   4.871  17.028  1.5013 -1.7556 -0.5706
 2808TIP3   OH229838   4.695   2.558  15.017 -0.1803 -0.6140 -0.1543
 2808TIP3    H129839   4.672   2.650  15.005  0.5337 -0.4565 -0.3443
 2808TIP3    H229840   4.718   2.551  15.110 -0.1146 -0.5730 -0.1673
 2809TIP3   OH229841   3.783   0.200  14.956 -0.0002 -0.1461 -0.3155
 2809TIP3    H129842   3.766   0.223  14.864 -0.0393  0.1580 -0.2355
 2809TIP3    H229843   3.718   0.249  15.005 -0.1549 -0.5257 -0.1419
 2810TIP3   OH229844   6.477   5.487  10.467 -0.1441  0.1486 -0.2878
 2810TIP3    H129845   6.485   5.495  10.372 -0.5903  0.3644 -0.3106
 2810TIP3    H229846   6.390   5.450  10.481  0.0227 -0.1265  0.0268
 2811TIP3   OH229847   4.963   5.100   5.258 -0.1149  0.4067 -0.0869
 2811TIP3    H129848   4.979   5.166   5.190 -1.8718  1.5294  0.5470
 2811TIP3    H229849   5.015   5.130   5.332  1.4602 -0.5814 -0.7666
 2812TIP3   OH229850   4.531   3.184   0.240 -0.3439  0.3038 -0.0272
 2812TIP3    H129851   4.596   3.222   0.299  0.7908 -0.1684 -0.9586
 2812TIP3    H229852   4.572   3.189   0.153 -1.4504 -0.2207 -0.5871
 2813TIP3   OH229853   0.532   6.374   2.692 -0.1165 -0.1975 -0.2196
 2813TIP3    H129854   0.622   6.385   2.661  0.8198  0.7879  2.7529
 2813TIP3    H229855   0.534   6.296   2.747 -1.2361 -0.5393 -0.6340
 2814TIP3   OH229856   0.885   3.821   2.354  0.0680  0.2177  0.2402
 2814TIP3    H129857   0.898   3.910   2.386 -1.1095  0.7548 -0.7100
 2814TIP3    H229858   0.899   3.828   2.259 -0.8725 -0.4262  0.0500
 2815TIP3   OH229859   3.248   5.095  17.175 -0.1228  0.2850 -0.0329
 2815TIP3    H129860   3.288   5.140  17.101 -1.0141  1.5613  0.2462
 2815TIP3    H229861   3.160   5.134  17.182  0.6415  1.6013  2.9413
 2816TIP3   OH229862   0.290   4.799   4.610  0.1210 -0.0406 -0.3483
 2816TIP3    H129863   0.377   4.816   4.575  0.8790 -1.2221  0.9164
 2816TIP3    H229864   0.300   4.811   4.705 -1.7138  2.3888 -0.4172
 2817TIP3   OH229865   1.458   2.057  15.947 -0.3046  0.2611 -0.0781
 2817TIP3    H129866   1.461   2.150  15.972 -0.6165  0.3111 -0.2279
 2817TIP3    H229867   1.422   2.056  15.859 -1.7006 -0.1030  0.4876
 2818TIP3   OH229868   5.699   2.674   0.395 -0.3330 -1.0167  0.0695
 2818TIP3    H129869   5.778   2.725   0.415 -0.0667 -1.5826  0.4387
 2818TIP3    H229870   5.720   2.585   0.421 -1.3064 -1.0647  0.7089
 2819TIP3   OH229871   6.681   4.378  10.551 -0.3462 -0.2639  0.1524
 2819TIP3    H129872   6.730   4.452  10.586 -1.2073 -0.4725  1.8332
 2819TIP3    H229873   6.610   4.418  10.501 -1.2810  0.0706  1.7180
 2820TIP3   OH229874   1.900   1.042   5.329  0.1288 -0.0076  0.0942
 2820TIP3    H129875   1.910   1.125   5.283 -0.0198  0.7105  1.3422
 2820TIP3    H229876   1.805   1.031   5.337  0.1073 -1.0205 -1.3437
 2821TIP3   OH229877   5.251   5.715  17.006  0.6221 -0.8355 -0.4859
 2821TIP3    H129878   5.215   5.634  16.968  0.6852 -1.4082  0.6401
 2821TIP3    H229879   5.218   5.715  17.096  1.2750 -0.0081 -0.2422
 2822TIP3   OH229880   4.603   0.756  13.091 -0.2525  0.1008  0.2494
 2822TIP3    H129881   4.621   0.746  13.185  2.6422 -1.2733 -0.3793
 2822TIP3    H229882   4.642   0.840  13.067 -0.3269  0.1069  0.1490
 2823TIP3   OH229883   4.872   4.949   1.503  0.1328 -0.2571 -0.2907
 2823TIP3    H129884   4.926   5.003   1.445  1.5998 -1.3618  0.0149
 2823TIP3    H229885   4.811   5.011   1.543  0.4357  0.8436 -1.4869
 2824TIP3   OH229886   1.156   0.050   4.038 -0.5462  0.1828 -0.0089
 2824TIP3    H129887   1.123   0.115   4.100 -1.2854  1.1565 -1.3817
 2824TIP3    H229888   1.120  -0.033   4.068 -2.6274  0.9412 -0.2969
 2825TIP3   OH229889   1.674   5.882   0.253  0.0109  0.2206  0.3249
 2825TIP3    H129890   1.674   5.911   0.162  2.9400  1.9636  0.8099
 2825TIP3    H229891   1.665   5.787   0.249 -3.5380  0.5423 -1.5815
 2826TIP3   OH229892   4.354   1.245  16.650  0.1142 -0.0936  0.2398
 2826TIP3    H129893   4.377   1.160  16.610 -2.9980 -0.7285 -0.3230
 2826TIP3    H229894   4.431   1.300  16.633  1.7516 -2.4434 -0.3821
 2827TIP3   OH229895   3.789   3.233  12.103 -0.9623  0.8584 -0.3671
 2827TIP3    H129896   3.743   3.230  12.019 -1.0263  0.2004 -0.3082
 2827TIP3    H229897   3.855   3.302  12.092 -1.7242  1.5523 -0.5660
 2828TIP3   OH229898   0.196   1.523  17.148 -0.5496 -0.1479  0.5430
 2828TIP3    H129899   0.291   1.518  17.157 -0.6887 -0.5757  1.9670
 2828TIP3    H229900   0.174   1.613  17.173 -0.3724  0.4732 -1.4477
 2829TIP3   OH229901   2.825   4.022  15.497 -0.5157 -0.2124 -0.2785
 2829TIP3    H129902   2.855   4.057  15.413  1.4171 -2.0739 -0.4045
 2829TIP3    H229903   2.832   3.927  15.487  3.7804 -0.4307  3.3384
 2830TIP3   OH229904   3.838   4.716   6.284 -0.2626  0.5772 -0.8929
 2830TIP3    H129905   3.883   4.676   6.359 -1.3550 -0.6387 -0.8539
 2830TIP3    H229906   3.907   4.736   6.222  0.7306  2.0999  0.6466
 2831TIP3   OH229907   2.053   6.482  12.557  0.3511 -0.4918 -0.5642
 2831TIP3    H129908   2.098   6.412  12.511 -1.8871 -0.9821 -2.1062
 2831TIP3    H229909   1.992   6.437  12.615 -0.9870  0.1303 -1.4515
 2832TIP3   OH229910   0.218   0.202  13.546  0.3064 -0.3668  0.0741
 2832TIP3    H129911   0.132   0.192  13.504  0.6742  3.8486 -1.9332
 2832TIP3    H229912   0.272   0.134  13.505 -1.1332 -0.6819 -1.3765
 2833TIP3   OH229913   3.504   1.062  17.047  0.8646 -0.5373  0.6343
 2833TIP3    H129914   3.449   1.131  17.010  1.3950 -0.0787  0.6903
 2833TIP3    H229915   3.442   0.999  17.083  0.3501 -1.0546 -1.1527
 2834TIP3   OH229916   3.082   3.623   2.380 -0.0121  0.2444 -0.0121
 2834TIP3    H129917   3.135   3.612   2.458 -0.3104 -2.6796 -0.1719
 2834TIP3    H229918   3.144   3.621   2.307  0.0258  0.6813  0.0037
 2835TIP3   OH229919   4.448   0.438   5.718 -0.3640  0.5801  0.0526
 2835TIP3    H129920   4.384   0.368   5.709  1.8320 -1.4727 -0.2112
 2835TIP3    H229921   4.469   0.439   5.811  2.4852 -1.8696 -0.4758
 2836TIP3   OH229922   1.676   6.160  16.261  0.3785  0.1926  0.4368
 2836TIP3    H129923   1.592   6.157  16.215 -0.1056  1.4856  1.1999
 2836TIP3    H229924   1.738   6.191  16.195 -0.2186  1.5542  0.4889
 2837TIP3   OH229925   2.219   3.096   2.790  0.3656 -0.4663  0.4902
 2837TIP3    H129926   2.128   3.125   2.798  0.5593  0.3507 -0.1686
 2837TIP3    H229927   2.239   3.107   2.697  0.7782 -1.7323  0.4241
 2838TIP3   OH229928   1.211   1.306   4.739 -0.2959  0.0304  0.7196
 2838TIP3    H129929   1.149   1.362   4.693 -0.7478  0.4957  1.8763
 2838TIP3    H229930   1.293   1.317   4.691 -0.6813  0.7521  0.2157
 2839TIP3   OH229931   3.243   0.931  13.233 -0.5823 -0.4633  0.0608
 2839TIP3    H129932   3.304   0.936  13.159 -0.5628 -1.8697 -0.0198
 2839TIP3    H229933   3.176   0.868  13.205  0.3127 -2.2572  1.8693
 2840TIP3   OH229934   4.974   6.719  11.250 -0.3930 -0.4267 -0.5864
 2840TIP3    H129935   4.972   6.715  11.345  1.0133  0.4827 -0.5062
 2840TIP3    H229936   4.957   6.811  11.229 -0.4815 -0.5809 -1.1973
 2841TIP3   OH229937   3.627   4.051   6.321 -0.5330  0.0592 -0.1904
 2841TIP3    H129938   3.609   4.034   6.413 -0.2233  0.0436 -0.1341
 2841TIP3    H229939   3.585   3.978   6.274 -1.5598  0.5955 -0.1323
 2842TIP3   OH229940   5.446   4.584   3.603  0.0328  0.1768 -0.0785
 2842TIP3    H129941   5.449   4.517   3.535  2.7052  0.5952 -0.4287
 2842TIP3    H229942   5.521   4.640   3.585  1.7180 -0.5562  4.0432
 2843TIP3   OH229943   4.219   0.865  13.036 -0.6041 -0.1123  0.2356
 2843TIP3    H129944   4.257   0.778  13.050 -1.1690 -0.0650  2.2319
 2843TIP3    H229945   4.161   0.854  12.960  0.9900 -0.9264 -0.8869
 2844TIP3   OH229946   2.406   2.038   0.236  0.2826  0.1424  0.0193
 2844TIP3    H129947   2.495   2.072   0.234  0.1350  0.4548 -1.9981
 2844TIP3    H229948   2.353   2.112   0.266  0.6461  0.0538  0.8953
 2845TIP3   OH229949   5.178   3.463   5.091  0.2023 -0.3751  0.3215
 2845TIP3    H129950   5.223   3.496   5.013  1.9041 -2.4164  0.4131
 2845TIP3    H229951   5.230   3.496   5.164 -0.2356 -0.1595  0.5366
 2846TIP3   OH229952   2.146   0.243   2.482  0.1304 -1.0713 -0.1189
 2846TIP3    H129953   2.086   0.282   2.545 -0.1377 -2.8242  0.7361
 2846TIP3    H229954   2.122   0.281   2.398 -1.0765 -0.5140  0.4770
 2847TIP3   OH229955   5.045   3.004   5.405 -0.1540 -0.5293  0.2684
 2847TIP3    H129956   4.978   2.964   5.349  2.6086 -1.4912 -2.4589
 2847TIP3    H229957   5.050   3.095   5.376 -1.1594 -0.1105  1.3670
 2848TIP3   OH229958   4.303   3.059  14.899 -0.0112 -0.2689  0.2450
 2848TIP3    H129959   4.313   3.133  14.959 -1.6954 -0.9713  1.4421
 2848TIP3    H229960   4.209   3.054  14.884  0.0873 -2.1431  0.1665
 2849TIP3   OH229961   5.506   0.251  16.890  0.6909  0.2128  0.3027
 2849TIP3    H129962   5.457   0.248  16.808  1.9582 -1.0565 -0.4477
 2849TIP3    H229963   5.564   0.326  16.880 -0.6780  1.3843  0.9621
 2850TIP3   OH229964   3.089   3.745   5.720  0.1612 -0.4981 -0.0259
 2850TIP3    H129965   3.131   3.685   5.658 -1.4188 -1.7535  0.0736
 2850TIP3    H229966   3.072   3.691   5.797 -0.1317  0.4116  0.5490
 2851TIP3   OH229967   5.776   1.026  11.598  0.5178 -1.2664 -0.1031
 2851TIP3    H129968   5.738   0.971  11.529 -0.5771  0.6785 -1.0939
 2851TIP3    H229969   5.845   1.075  11.553 -0.6642  0.5266  0.0151
 2852TIP3   OH229970   5.279   1.948   4.182  0.0968  0.4734 -0.3734
 2852TIP3    H129971   5.225   1.961   4.104 -0.2344 -0.2875 -0.2770
 2852TIP3    H229972   5.323   2.032   4.195 -0.9886  1.0756 -0.5211
 2853TIP3   OH229973   3.420   0.320  15.564 -0.5040  0.2480  0.1296
 2853TIP3    H129974   3.389   0.408  15.540  0.4075  0.6729  0.4649
 2853TIP3    H229975   3.341   0.273  15.590 -0.7242  1.7907  2.4221
 2854TIP3   OH229976   4.116   0.128  10.899  0.8141  0.5016  0.2578
 2854TIP3    H129977   4.175   0.055  10.916  0.8344  0.6578  0.8794
 2854TIP3    H229978   4.040   0.088  10.856  1.0170  0.1818  0.1991
 2855TIP3   OH229979   3.593   0.674   1.850  0.4986  0.2512 -0.2810
 2855TIP3    H129980   3.519   0.703   1.797 -0.2840 -0.0441  0.6294
 2855TIP3    H229981   3.616   0.751   1.903  0.6651  0.2613 -0.3687
 2856TIP3   OH229982   4.977   0.717  16.942 -0.0600  0.3032 -0.5140
 2856TIP3    H129983   5.001   0.777  17.012 -1.4818  0.7963 -0.4389
 2856TIP3    H229984   5.048   0.725  16.878 -0.1217  1.9090 -0.4041
 2857TIP3   OH229985   1.981   3.894   3.308 -0.2827 -0.0885 -0.3960
 2857TIP3    H129986   2.062   3.856   3.276  0.1328 -0.4011  1.0138
 2857TIP3    H229987   1.927   3.906   3.229  0.4556 -1.4749 -1.1221
 2858TIP3   OH229988   0.000   5.481  15.787 -0.6794  0.0672  0.1992
 2858TIP3    H129989  -0.083   5.447  15.756 -0.7573 -0.2277  0.7345
 2858TIP3    H229990   0.066   5.421  15.752 -0.7645 -0.2434  0.5692
 2859TIP3   OH229991   5.298   6.541  14.344  0.3857  0.5488  0.1533
 2859TIP3    H129992   5.336   6.614  14.392  1.9154  1.3718 -2.1993
 2859TIP3    H229993   5.355   6.466  14.363  1.6793  1.1544 -1.2844
 2860TIP3   OH229994   4.216   0.664   0.451 -0.0485 -0.0640 -0.2243
 2860TIP3    H129995   4.226   0.708   0.367  1.3410 -1.7898 -0.9874
 2860TIP3    H229996   4.130   0.622   0.446  0.1107 -0.3132 -0.8434
 2861TIP3   OH229997   0.805   0.787  11.687  0.2010  0.0297  0.1973
 2861TIP3    H129998   0.855   0.753  11.613  0.1179  0.7157 -0.1777
 2861TIP3    H229999   0.761   0.865  11.653  0.9664  0.9301  1.2475
 2862TIP3   OH230000   0.895   5.904  14.594 -0.6095 -0.5222  0.2552
 2862TIP3    H130001   0.941   5.987  14.598 -0.1343 -0.7249 -0.8911
 2862TIP3    H230002   0.947   5.845  14.648  0.8236 -0.9097 -1.5245
 2863TIP3   OH230003   1.099   4.543   5.475  0.2196  0.2825 -0.3245
 2863TIP3    H130004   1.095   4.635   5.450  0.2017 -0.0125 -1.4434
 2863TIP3    H230005   1.082   4.542   5.569  0.6246  1.4576 -0.2382
 2864TIP3   OH230006   1.056   3.381   2.529 -0.4221 -0.5772  0.3457
 2864TIP3    H130007   0.981   3.425   2.569  0.7046  0.7959  0.9850
 2864TIP3    H230008   1.123   3.382   2.597  1.7699  2.3786 -1.7586
 2865TIP3   OH230009   2.716   3.757   3.991 -0.0234  0.0316 -0.9061
 2865TIP3    H130010   2.795   3.737   3.940 -0.0833  2.1945 -1.9041
 2865TIP3    H230011   2.644   3.719   3.940  0.1978 -0.4517 -0.8664
 2866TIP3   OH230012   0.171   2.555   1.774 -0.2673  0.8164 -0.0376
 2866TIP3    H130013   0.079   2.530   1.781  0.0236 -0.3992 -0.4817
 2866TIP3    H230014   0.188   2.605   1.854 -1.1251  0.4274  0.4000
 2867TIP3   OH230015   2.264   3.913   5.435  0.4453  0.4342  0.6252
 2867TIP3    H130016   2.177   3.880   5.460 -1.2030  2.3840 -2.2283
 2867TIP3    H230017   2.286   3.976   5.504 -2.8593  3.8309 -1.2169
 2868TIP3   OH230018   5.041   4.812  13.138 -0.1678 -0.0769  0.6026
 2868TIP3    H130019   5.118   4.856  13.103 -0.3573  0.1558  0.4733
 2868TIP3    H230020   5.049   4.820  13.233 -0.4487  0.6634  0.5654
 2869TIP3   OH230021   0.277   2.029  11.637  0.1746 -0.1454  0.0260
 2869TIP3    H130022   0.293   2.122  11.623  2.0925 -0.4723 -0.1037
 2869TIP3    H230023   0.219   2.003  11.565  0.0621  0.8251 -0.2325
 2870TIP3   OH230024   0.626   6.310  14.420  0.6079  0.2332 -0.2029
 2870TIP3    H130025   0.621   6.369  14.345  0.6759  0.2017 -0.2316
 2870TIP3    H230026   0.558   6.340  14.479 -0.3354 -0.5568 -0.8656
 2871TIP3   OH230027   4.119   1.164  10.773 -0.0262 -0.0621  0.4042
 2871TIP3    H130028   4.053   1.130  10.833 -0.6997 -1.5174 -1.0855
 2871TIP3    H230029   4.069   1.189  10.695  1.1365 -0.8898 -0.6184
 2872TIP3   OH230030   1.258   5.914   3.387  0.1198 -0.5502  0.2749
 2872TIP3    H130031   1.330   5.920   3.324 -0.2522 -0.6472 -0.1645
 2872TIP3    H230032   1.180   5.901   3.333 -0.5483  1.8857  0.6039
 2873TIP3   OH230033   2.275   1.994   1.018 -0.1864  0.5301 -0.0085
 2873TIP3    H130034   2.203   1.934   1.037  0.8440 -0.4497  0.9428
 2873TIP3    H230035   2.266   2.064   1.083 -0.0291  0.1599  0.4246
 2874TIP3   OH230036   6.773   1.207  15.568  0.1236 -1.0157  0.4791
 2874TIP3    H130037   6.813   1.273  15.625 -1.3158 -0.1081  0.4676
 2874TIP3    H230038   6.844   1.146  15.549  1.0064 -0.5046  2.0245
 2875TIP3   OH230039   6.190   4.505  12.540 -0.4328  0.0470 -0.3926
 2875TIP3    H130040   6.156   4.457  12.464  0.1950 -1.9736  0.5578
 2875TIP3    H230041   6.283   4.481  12.544  0.5826  3.4621 -1.4365
 2876TIP3   OH230042   2.193   6.590   2.496 -0.1613 -0.0098  0.3287
 2876TIP3    H130043   2.155   6.599   2.584 -0.3730 -0.9135  0.3301
 2876TIP3    H230044   2.268   6.532   2.509 -1.2120 -1.5580 -0.3808
 2877TIP3   OH230045   4.589   5.085  16.582 -0.6804 -0.6062  0.0064
 2877TIP3    H130046   4.665   5.038  16.614 -0.3888 -0.9784 -1.2100
 2877TIP3    H230047   4.623   5.170  16.555 -0.6927 -0.7636 -0.5125
 2878TIP3   OH230048   6.308   6.334   2.334 -0.5832  0.0449  0.4742
 2878TIP3    H130049   6.276   6.328   2.244  0.5388  1.1154 -0.0036
 2878TIP3    H230050   6.395   6.294   2.332 -0.4608  0.2769  1.0321
 2879TIP3   OH230051   2.415   1.655   0.376 -0.3774  0.0686 -0.0791
 2879TIP3    H130052   2.352   1.669   0.446 -0.5518 -2.1974  0.2471
 2879TIP3    H230053   2.363   1.657   0.296 -0.1128  3.1071 -0.2227
 2880TIP3   OH230054   3.247   5.936   5.255 -0.8911  0.2608  0.0175
 2880TIP3    H130055   3.324   5.946   5.198 -0.2598  1.2116  1.0141
 2880TIP3    H230056   3.248   5.844   5.281 -0.8469 -0.0411 -1.0229
 2881TIP3   OH230057   1.727   3.326   1.109  0.4093  0.7153  0.0268
 2881TIP3    H130058   1.804   3.308   1.055  0.4131  0.0817  0.2377
 2881TIP3    H230059   1.654   3.295   1.056  0.0300  3.7011 -1.3104
 2882TIP3   OH230060   5.703   1.572  10.691 -0.4388 -0.6049 -0.1623
 2882TIP3    H130061   5.775   1.635  10.700 -1.2454  0.4547 -0.9233
 2882TIP3    H230062   5.727   1.519  10.615 -0.1627 -0.6675 -0.0331
 2883TIP3   OH230063   1.553   4.718  16.944 -0.2463  0.4735  0.0802
 2883TIP3    H130064   1.481   4.675  16.898  0.5479  0.8765 -1.5482
 2883TIP3    H230065   1.527   4.810  16.948  0.3658  0.6932 -0.8869
 2884TIP3   OH230066   1.594   6.615   5.259 -0.2948  0.3277 -0.4691
 2884TIP3    H130067   1.573   6.533   5.304 -0.2194  1.3459  1.4505
 2884TIP3    H230068   1.510   6.654   5.240 -0.3117  1.5414  1.9054
 2885TIP3   OH230069   0.364   4.017  14.968 -1.0164 -0.0061  0.4490
 2885TIP3    H130070   0.355   4.091  14.909 -0.2571  0.7144  1.2291
 2885TIP3    H230071   0.432   3.962  14.929 -2.0534 -0.6453 -0.4819
 2886TIP3   OH230072   3.139   0.929  14.440 -0.1818 -0.2660 -0.2444
 2886TIP3    H130073   3.043   0.926  14.447 -0.1231 -0.0292  0.6267
 2886TIP3    H230074   3.168   0.967  14.522  0.6628 -0.2595 -0.5442
 2887TIP3   OH230075   4.098   5.963  12.721 -0.2126  0.6676 -0.8938
 2887TIP3    H130076   4.063   5.956  12.632 -0.0122 -0.3321 -0.8977
 2887TIP3    H230077   4.020   5.970  12.776 -0.4088 -0.5222 -0.9961
 2888TIP3   OH230078   6.509   4.258   5.868 -0.2509  0.0326 -0.0032
 2888TIP3    H130079   6.446   4.214   5.924 -0.1058 -1.0717 -0.7019
 2888TIP3    H230080   6.483   4.350   5.872 -1.1627 -0.2413  0.6719
 2889TIP3   OH230081   3.977   1.581   0.818  0.4294 -0.1851  0.0583
 2889TIP3    H130082   4.014   1.615   0.900  2.0700  1.2098 -1.2253
 2889TIP3    H230083   3.998   1.487   0.820  2.2152  0.2060  0.3159
 2890TIP3   OH230084   1.131   3.664  16.311 -0.8304 -0.0114 -0.4245
 2890TIP3    H130085   1.169   3.648  16.225 -0.5436 -0.8871 -0.1360
 2890TIP3    H230086   1.183   3.737  16.347  0.0893 -0.7010 -0.3429
 2891TIP3   OH230087   2.398   0.194  11.955  0.1473  0.1019  0.5044
 2891TIP3    H130088   2.311   0.186  11.994 -0.3478  4.2594  0.4477
 2891TIP3    H230089   2.449   0.242  12.021  1.7655 -0.3442 -0.3973
 2892TIP3   OH230090   5.226   0.599  16.476 -0.3997  0.2534 -0.2152
 2892TIP3    H130091   5.135   0.623  16.462 -0.3525 -0.7682 -2.4967
 2892TIP3    H230092   5.273   0.643  16.404  0.5983 -0.9290 -0.3009
 2893TIP3   OH230093   0.152   1.914   1.627 -0.5837  0.1876  0.4038
 2893TIP3    H130094   0.234   1.951   1.659  0.1829 -1.0042 -0.1282
 2893TIP3    H230095   0.152   1.933   1.534 -1.5671  1.3782  0.6488
 2894TIP3   OH230096   4.813   0.213  15.587 -0.1872  0.0299  0.1814
 2894TIP3    H130097   4.906   0.217  15.609 -0.0702  0.0310 -0.3180
 2894TIP3    H230098   4.779   0.299  15.613  0.2296  0.5289 -0.8928
 2895TIP3   OH230099   2.991   0.728   6.125 -0.3734 -0.6488  0.2120
 2895TIP3    H130100   2.913   0.678   6.148 -0.4708 -0.5645  0.0650
 2895TIP3    H230101   3.028   0.756   6.209 -0.3529 -0.9139  0.2924
 2896TIP3   OH230102   4.233   3.582   4.997  0.2079  0.1592 -0.8832
 2896TIP3    H130103   4.276   3.664   4.972 -2.1185  1.2813 -1.3317
 2896TIP3    H230104   4.230   3.585   5.092  2.7493 -0.8175 -0.7293
 2897TIP3   OH230105   5.341   5.646   5.982 -0.2792 -0.1866 -0.2176
 2897TIP3    H130106   5.380   5.629   6.068 -0.1970 -0.9362 -0.3972
 2897TIP3    H230107   5.295   5.729   5.992  0.7114  0.3117  0.2169
 2898TIP3   OH230108   2.935   3.413   2.924 -0.6607 -0.4247 -0.1184
 2898TIP3    H130109   2.970   3.358   2.853 -0.0359 -0.0378 -0.1090
 2898TIP3    H230110   3.009   3.465   2.953 -0.6885 -1.1958  1.4142
 2899TIP3   OH230111   5.287   1.815  15.078  0.4407 -0.0015 -0.3902
 2899TIP3    H130112   5.274   1.870  15.000  0.5913  3.1991  1.7375
 2899TIP3    H230113   5.255   1.869  15.151  3.1003 -1.6818  2.1374
 2900TIP3   OH230114   1.304   1.703   0.644 -0.1915  0.6550 -0.3143
 2900TIP3    H130115   1.285   1.790   0.608  0.2459  0.6747 -0.5126
 2900TIP3    H230116   1.329   1.651   0.567  0.0927  0.5102 -0.1265
 2901TIP3   OH230117   2.845   2.459   3.814  0.3622 -0.1090  0.4459
 2901TIP3    H130118   2.813   2.529   3.870 -2.5010 -1.0463  0.0406
 2901TIP3    H230119   2.864   2.387   3.874  2.3128  0.6265  0.7457
 2902TIP3   OH230120   4.969   4.483  14.077  0.6523  0.1252 -0.6318
 2902TIP3    H130121   4.992   4.576  14.067  0.4999  0.0541 -1.6536
 2902TIP3    H230122   5.049   4.442  14.110  0.8406  0.5516 -0.5589
 2903TIP3   OH230123   2.091   0.350  10.463 -0.5577 -0.2952 -0.2291
 2903TIP3    H130124   2.156   0.399  10.412 -1.9588  1.4204 -0.4125
 2903TIP3    H230125   2.038   0.417  10.505 -1.5531 -1.6840  0.7697
 2904TIP3   OH230126   0.718   1.479  16.381  0.2411  0.2083 -0.2656
 2904TIP3    H130127   0.675   1.443  16.459  0.3175  0.9135  0.1081
 2904TIP3    H230128   0.786   1.416  16.359  1.8663  1.2240  1.7241
 2905TIP3   OH230129   6.743   6.232   1.215  0.0692 -0.0097  0.2376
 2905TIP3    H130130   6.652   6.235   1.243 -0.1651 -0.0032 -0.5333
 2905TIP3    H230131   6.785   6.173   1.278 -0.2426  0.7754  1.2019
 2906TIP3   OH230132   1.713   2.892   4.488  0.1160 -0.6127 -0.0088
 2906TIP3    H130133   1.745   2.974   4.526  1.1121 -0.4640 -1.1327
 2906TIP3    H230134   1.631   2.916   4.446  0.1832 -0.2869  0.0403
 2907TIP3   OH230135   4.682   6.547  15.589  0.1194  0.7419  0.3726
 2907TIP3    H130136   4.600   6.531  15.542  0.6918  2.1444 -1.1706
 2907TIP3    H230137   4.709   6.461  15.620 -1.2957  0.0711 -0.1997
 2908TIP3   OH230138   2.919   3.071   3.311 -0.3947  0.0380  0.0384
 2908TIP3    H130139   2.938   3.163   3.333  0.2260  0.6180 -2.7265
 2908TIP3    H230140   2.865   3.077   3.233 -1.1287 -1.9624  0.3840
 2909TIP3   OH230141   2.701   6.251   4.607 -0.0919 -0.4540 -0.0199
 2909TIP3    H130142   2.623   6.244   4.662 -2.1068  2.7318 -2.3181
 2909TIP3    H230143   2.683   6.194   4.533  0.3342 -0.7185  0.0803
 2910TIP3   OH230144   5.892   6.045  16.073  0.5830 -0.5120 -0.5837
 2910TIP3    H130145   5.884   6.137  16.048  0.2465 -0.3519  0.0979
 2910TIP3    H230146   5.849   6.040  16.158 -0.6899 -1.5781 -1.2622
 2911TIP3   OH230147   6.290   2.373   4.288 -1.0336 -0.3087  0.1718
 2911TIP3    H130148   6.283   2.356   4.382 -1.0721 -0.0680  0.2119
 2911TIP3    H230149   6.284   2.286   4.247 -0.8532 -0.4305  0.4011
 2912TIP3   OH230150   1.026   5.836   2.255 -0.5692 -0.4226  0.1091
 2912TIP3    H130151   1.105   5.803   2.213 -1.2857 -1.9282 -0.1027
 2912TIP3    H230152   1.004   5.770   2.322 -2.1559 -0.5261 -0.4750
 2913TIP3   OH230153   3.839   1.981  15.942  0.5217 -0.4007 -0.2691
 2913TIP3    H130154   3.884   1.918  15.999  1.4172 -0.0600 -0.6033
 2913TIP3    H230155   3.809   1.929  15.868 -3.3876 -1.5062  1.9197
 2914TIP3   OH230156   2.322   1.028   0.124  0.0240 -0.0481  0.0810
 2914TIP3    H130157   2.386   1.098   0.115  0.3631 -0.2429  0.9178
 2914TIP3    H230158   2.349   0.981   0.203 -1.2825  0.0020  0.5658
 2915TIP3   OH230159   3.443   3.358   2.387 -0.0648 -0.1323  0.6204
 2915TIP3    H130160   3.496   3.410   2.447 -0.6128  0.3935  0.6531
 2915TIP3    H230161   3.472   3.268   2.401 -0.6420 -0.0896  2.1379
 2916TIP3   OH230162   2.241   2.350   0.996  0.2369  0.0780 -0.4874
 2916TIP3    H130163   2.204   2.424   1.045  2.2639  0.3189  0.7008
 2916TIP3    H230164   2.164   2.304   0.962 -1.1187  1.5421  0.5046
 2917TIP3   OH230165   6.447   0.686   0.174 -0.5572  0.1416 -0.0336
 2917TIP3    H130166   6.420   0.600   0.204  0.4467 -0.1779 -0.0166
 2917TIP3    H230167   6.535   0.697   0.210 -0.6730  1.1614 -0.0544
 2918TIP3   OH230168   2.562   6.626  13.308  0.3297  0.3620 -0.1834
 2918TIP3    H130169   2.584   6.604  13.399  0.1260  2.5904  0.4214
 2918TIP3    H230170   2.612   6.705  13.289  1.2881 -0.7146 -2.4280
 2919TIP3   OH230171   3.966   1.349  10.554  0.0102 -0.5036  0.2665
 2919TIP3    H130172   4.044   1.332  10.501 -1.3988  0.6276 -2.2510
 2919TIP3    H230173   3.907   1.277  10.534 -0.6616  0.1024  0.0672
 2920TIP3   OH230174   0.698   2.052   5.394 -0.1909  0.0081  0.1487
 2920TIP3    H130175   0.726   1.980   5.336 -0.7277  0.9603 -1.3367
 2920TIP3    H230176   0.738   2.032   5.478 -1.0751 -2.5359  0.0166
 2921TIP3   OH230177   3.090   1.270  15.137 -0.4585 -0.3547 -0.0455
 2921TIP3    H130178   3.133   1.304  15.059  0.2092  0.2899  0.5870
 2921TIP3    H230179   3.069   1.179  15.116 -2.0691  0.3756 -1.6725
 2922TIP3   OH230180   6.428   4.926  13.994 -0.0807  0.3800  0.3910
 2922TIP3    H130181   6.520   4.951  14.002 -0.6769  2.0844  2.5052
 2922TIP3    H230182   6.429   4.832  13.976  2.0193 -0.1353  3.0492
 2923TIP3   OH230183   4.033   4.914   5.332 -0.1185 -0.4085 -0.2352
 2923TIP3    H130184   3.945   4.877   5.326 -0.0481 -0.3247 -1.9234
 2923TIP3    H230185   4.089   4.839   5.351 -0.2166 -0.9156 -1.8633
 2924TIP3   OH230186   0.886   2.612  13.762 -0.3404  0.0130 -0.6734
 2924TIP3    H130187   0.905   2.624  13.855  0.0907  0.2085 -0.7849
 2924TIP3    H230188   0.956   2.556  13.730 -1.6196 -1.7406 -0.4448
 2925TIP3   OH230189   0.314   4.134  13.429  0.0890 -0.3625 -1.0110
 2925TIP3    H130190   0.379   4.112  13.496  0.7236  0.6039 -1.2934
 2925TIP3    H230191   0.266   4.208  13.467 -1.0318 -1.2449 -0.6928
 2926TIP3   OH230192   2.715   6.703  14.372  0.0969 -0.1590  0.0900
 2926TIP3    H130193   2.765   6.622  14.369 -0.4404 -0.4949  0.2312
 2926TIP3    H230194   2.730   6.738  14.461  2.2580  1.1261 -0.7384
 2927TIP3   OH230195   6.404   5.139  13.104  0.0408  0.5067  0.7942
 2927TIP3    H130196   6.340   5.069  13.091 -0.6918  1.5402 -1.3163
 2927TIP3    H230197   6.436   5.160  13.017  2.1233  1.1057  1.6633
 2928TIP3   OH230198   0.801   4.436  13.411  0.3358 -0.2745 -0.1692
 2928TIP3    H130199   0.874   4.433  13.350 -1.4720 -1.3611 -2.3591
 2928TIP3    H230200   0.760   4.521  13.397 -0.7432 -0.9705 -1.2851
 2929TIP3   OH230201   6.302   4.917  12.906  0.5243  0.6904  0.1027
 2929TIP3    H130202   6.230   4.885  12.960  0.4315  2.3729  1.0248
 2929TIP3    H230203   6.370   4.850  12.915  0.2767  0.6516  1.8265
 2930TIP3   OH230204   0.491   3.557  14.051  0.1213 -0.0608  0.3571
 2930TIP3    H130205   0.417   3.548  13.991  0.2999 -0.9357  0.2594
 2930TIP3    H230206   0.471   3.498  14.123  1.6763 -1.8537 -0.6367
 2931TIP3   OH230207   1.393   3.928  14.382  0.1869  0.2582  0.4883
 2931TIP3    H130208   1.477   3.901  14.419  1.2171 -0.8427 -2.5739
 2931TIP3    H230209   1.388   4.022  14.401  0.8236 -0.1910  3.0561
 2932TIP3   OH230210   2.695   5.747   2.866  0.3946 -0.7356  0.4804
 2932TIP3    H130211   2.730   5.687   2.800 -0.6413 -0.7695 -0.0388
 2932TIP3    H230212   2.769   5.805   2.886  1.6427 -2.6081  1.5251
 2933TIP3   OH230213   6.588   2.718   1.886 -0.0726 -0.3699  0.1810
 2933TIP3    H130214   6.619   2.759   1.967 -1.3888  0.9827  0.0364
 2933TIP3    H230215   6.644   2.642   1.874  2.4142  1.3586  0.5065
 2934TIP3   OH230216   1.640   5.341   5.481  0.3086  0.3349 -0.2692
 2934TIP3    H130217   1.696   5.264   5.472 -0.8024 -0.4398 -0.6981
 2934TIP3    H230218   1.698   5.415   5.461  1.6578 -0.2982  1.2176
 2935TIP3   OH230219   2.384   0.900   1.221  0.0952  0.0081  0.2380
 2935TIP3    H130220   2.347   0.814   1.207  1.3910 -0.4474 -0.5093
 2935TIP3    H230221   2.314   0.961   1.197 -0.4338 -0.8277 -0.3610
 2936TIP3   OH230222   6.398   2.084  14.417 -0.1586  0.1356  0.0267
 2936TIP3    H130223   6.323   2.047  14.464 -0.4835  1.0929  0.2618
 2936TIP3    H230224   6.359   2.136  14.347  0.2603  1.2045  0.5745
 2937TIP3   OH230225   5.678   5.748   3.828  0.2889 -0.3736 -0.4577
 2937TIP3    H130226   5.668   5.675   3.768 -1.4833  0.4474 -1.1930
 2937TIP3    H230227   5.601   5.743   3.885  0.1548  0.8964 -0.5066
 2938TIP3   OH230228   2.230   0.221  11.331 -0.4658 -0.5121  0.1487
 2938TIP3    H130229   2.181   0.279  11.389 -1.2486  0.1826 -1.2057
 2938TIP3    H230230   2.171   0.146  11.319 -1.2158  0.3157 -1.4650
 2939TIP3   OH230231   3.058   5.750  11.650 -0.3974  0.1016  0.2434
 2939TIP3    H130232   3.108   5.816  11.603  1.3246 -2.7135 -2.0930
 2939TIP3    H230233   3.111   5.731  11.728 -1.0991  1.6818  1.1371
 2940TIP3   OH230234   4.525   0.211   5.996  0.5699  0.2619 -0.2270
 2940TIP3    H130235   4.543   0.254   6.079  0.9339  1.7108 -1.0327
 2940TIP3    H230236   4.470   0.136   6.019 -1.3503  2.0042  1.0824
 2941TIP3   OH230237   5.287   4.638   5.214  0.3066  0.4688  0.1760
 2941TIP3    H130238   5.249   4.572   5.155 -0.4734  0.7254  0.3867
 2941TIP3    H230239   5.222   4.708   5.217  0.1471  0.2750  1.6756
 2942TIP3   OH230240   6.728   3.464  14.166  0.5011  0.1449  0.5365
 2942TIP3    H130241   6.704   3.468  14.259 -1.8314 -2.5627  0.1361
 2942TIP3    H230242   6.686   3.541  14.127 -1.7793 -0.7814  1.1014
 2943TIP3   OH230243   2.539   4.424  16.849 -0.2661  0.6830 -0.7459
 2943TIP3    H130244   2.506   4.511  16.824 -0.7049  1.0970  1.1776
 2943TIP3    H230245   2.543   4.375  16.767  0.7256  2.7607 -1.9909
 2944TIP3   OH230246   5.500   2.143   3.504 -0.0105  0.0986 -0.0946
 2944TIP3    H130247   5.489   2.056   3.464 -0.0498 -0.1700  0.4932
 2944TIP3    H230248   5.572   2.183   3.456  2.8275 -1.8807  2.3129
 2945TIP3   OH230249   6.484   1.561   1.398  0.5422 -0.1096 -0.3775
 2945TIP3    H130250   6.533   1.642   1.380 -0.4928  0.2922 -1.4756
 2945TIP3    H230251   6.506   1.503   1.325 -0.0888 -0.1760 -0.5155
 2946TIP3   OH230252   4.471   5.164   5.046 -0.4192  0.4864 -0.6704
 2946TIP3    H130253   4.469   5.114   4.964 -1.1615  1.2622 -1.1424
 2946TIP3    H230254   4.399   5.227   5.037  0.5708  1.7135 -0.1424
 2947TIP3   OH230255   3.134   5.845   3.436  0.1150 -0.6186 -0.0374
 2947TIP3    H130256   3.039   5.838   3.446  0.0271  1.0297  0.4899
 2947TIP3    H230257   3.156   5.927   3.480  1.6481 -0.5111 -0.9769
 2948TIP3   OH230258   1.826   3.485   4.274 -0.2195 -0.6766 -0.0072
 2948TIP3    H130259   1.911   3.517   4.242  0.7571 -3.1342  0.0193
 2948TIP3    H230260   1.844   3.454   4.363 -1.2374 -0.9173  0.1192
 2949TIP3   OH230261   0.100   1.186   5.306 -0.3855  0.3860  0.0015
 2949TIP3    H130262   0.123   1.256   5.245  0.1877  0.7909  0.6769
 2949TIP3    H230263   0.079   1.111   5.249 -1.2576  1.1750 -0.7180
 2950TIP3   OH230264   6.001   3.698   4.549  0.3150  0.0238  0.2376
 2950TIP3    H130265   6.026   3.769   4.491 -0.7447 -0.0893 -0.3836
 2950TIP3    H230266   6.082   3.669   4.590  0.8993  0.8752 -0.3216
 2951TIP3   OH230267   1.049   2.283   3.100 -0.3089 -0.0533  0.3828
 2951TIP3    H130268   1.035   2.298   3.193 -1.9562 -0.1064  0.1559
 2951TIP3    H230269   1.033   2.190   3.087  1.7049 -0.4268  0.3373
 2952TIP3   OH230270   6.367   3.960   2.199  0.6189 -0.3150  0.6348
 2952TIP3    H130271   6.426   3.900   2.153 -0.1033 -0.0071 -0.7346
 2952TIP3    H230272   6.352   3.918   2.284 -0.3559 -2.3952 -0.5248
 2953TIP3   OH230273   0.436   0.895   1.644  0.4671 -0.0980 -0.1311
 2953TIP3    H130274   0.419   0.950   1.721  1.1216  1.8454 -1.3219
 2953TIP3    H230275   0.397   0.811   1.665 -0.9791  0.9645  1.5758
 2954TIP3   OH230276   1.339   5.266  11.574  0.1299 -0.4235  0.1190
 2954TIP3    H130277   1.356   5.180  11.534 -0.1941  0.1365 -1.2525
 2954TIP3    H230278   1.424   5.310  11.573  0.2279 -0.5960  0.5311
 2955TIP3   OH230279   2.109   2.241  12.445 -0.0888  0.8392 -0.2119
 2955TIP3    H130280   2.123   2.242  12.539  0.2176 -1.3430 -0.2292
 2955TIP3    H230281   2.181   2.292  12.409  1.4386 -0.7649  0.5384
 2956TIP3   OH230282   2.256   4.865   6.074 -0.1262  0.0716  0.0146
 2956TIP3    H130283   2.206   4.875   6.155 -0.1886 -1.0015  0.1111
 2956TIP3    H230284   2.191   4.870   6.005 -0.5703 -2.5712  0.1916
 2957TIP3   OH230285   1.582   3.868  13.536 -0.3183  0.4482 -0.0085
 2957TIP3    H130286   1.659   3.810  13.540 -0.7230 -0.1081 -0.2654
 2957TIP3    H230287   1.616   3.950  13.500  0.1881  0.2558  0.0200
 2958TIP3   OH230288   4.210   1.721   3.070  0.6404 -0.8528 -0.4900
 2958TIP3    H130289   4.202   1.763   2.984 -1.5794  2.2681  1.1511
 2958TIP3    H230290   4.299   1.741   3.098  0.7204 -0.1633 -1.2245
 2959TIP3   OH230291   2.821   2.423  14.152  0.4549  0.1070 -0.0661
 2959TIP3    H130292   2.772   2.482  14.209 -2.2711 -0.2693 -1.9607
 2959TIP3    H230293   2.760   2.399  14.083  3.1037 -0.9125 -2.1655
 2960TIP3   OH230294   5.693   1.655  11.724 -0.5091 -0.0162 -0.2114
 2960TIP3    H130295   5.617   1.702  11.692  0.2406  0.5041 -1.2788
 2960TIP3    H230296   5.768   1.706  11.693  0.2807 -0.8131  0.3407
 2961TIP3   OH230297   3.021   2.828   3.389 -0.2505  0.1461  0.7755
 2961TIP3    H130298   3.112   2.855   3.396  0.1388 -1.1058  0.6741
 2961TIP3    H230299   2.978   2.899   3.341  0.5896  0.9082  1.1455
 2962TIP3   OH230300   2.171   6.100   2.735  0.0346  0.9628 -0.0324
 2962TIP3    H130301   2.102   6.094   2.801  0.1720 -0.9000 -0.0261
 2962TIP3    H230302   2.166   6.190   2.704 -0.3818  1.7304  2.1305
 2963TIP3   OH230303   6.380   0.184  12.693 -0.5234  0.1712 -0.2428
 2963TIP3    H130304   6.311   0.126  12.725 -0.1415 -0.1163  0.0727
 2963TIP3    H230305   6.381   0.171  12.598  0.2550 -1.1251 -0.0673
 2964TIP3   OH230306   6.219   4.285  16.042 -0.3018  0.3128  0.1550
 2964TIP3    H130307   6.267   4.262  16.122 -0.2651 -2.0087 -0.4967
 2964TIP3    H230308   6.129   4.301  16.073  0.0278  0.8310  0.8539
 2965TIP3   OH230309   1.205   6.003  10.755 -0.0156 -0.0740 -0.7768
 2965TIP3    H130310   1.227   5.910  10.744 -2.0056 -0.9087  1.7441
 2965TIP3    H230311   1.133   6.018  10.694  0.6487 -0.0334 -1.5612
 2966TIP3   OH230312   3.853   0.227   4.731  0.4447  0.0991 -0.7818
 2966TIP3    H130313   3.869   0.166   4.659 -1.5671 -0.1153 -1.0689
 2966TIP3    H230314   3.884   0.180   4.809 -0.1638 -0.9023 -1.1262
 2967TIP3   OH230315   4.015   3.810   2.920 -0.2527  0.1501 -0.0294
 2967TIP3    H130316   4.106   3.786   2.904 -1.1080 -2.4606 -1.1808
 2967TIP3    H230317   3.983   3.746   2.982 -1.5163  0.6162 -0.1839
 2968TIP3   OH230318   0.112   2.736   5.387  0.8315  0.3287 -0.5186
 2968TIP3    H130319   0.030   2.708   5.344  1.4010 -2.7956  0.2955
 2968TIP3    H230320   0.083   2.773   5.470  0.1068  1.0795 -1.0949
 2969TIP3   OH230321   2.210   5.832  14.199  0.1425 -0.1124 -0.4113
 2969TIP3    H130322   2.304   5.814  14.191  0.2211  0.0718  0.0676
 2969TIP3    H230323   2.205   5.927  14.209  0.0412 -0.3126  1.4942
 2970TIP3   OH230324   1.158   5.132  13.248 -0.1461  0.2138 -0.0189
 2970TIP3    H130325   1.202   5.054  13.280 -0.4780  0.0841  0.1133
 2970TIP3    H230326   1.229   5.195  13.234  0.1065 -0.0701 -0.0147
 2971TIP3   OH230327   5.729   0.318  17.188  0.0446 -0.0576  0.0813
 2971TIP3    H130328   5.640   0.339  17.158  0.0200  1.1976  1.0241
 2971TIP3    H230329   5.781   0.395  17.165  1.2304 -1.3660 -1.7928
 2972TIP3   OH230330   0.206   1.525   4.618  0.3721  0.4746 -0.7332
 2972TIP3    H130331   0.211   1.504   4.711 -0.4094  1.0095 -0.5736
 2972TIP3    H230332   0.152   1.455   4.580  0.1616  0.6057 -0.6769
 2973TIP3   OH230333   5.254   5.596  13.083 -0.1304  0.5454 -0.1729
 2973TIP3    H130334   5.172   5.643  13.066 -1.3168 -1.4015  0.0930
 2973TIP3    H230335   5.271   5.611  13.176  0.0025  1.2205 -0.3026
 2974TIP3   OH230336   0.050   2.866   0.689 -0.8569 -0.3288  0.0849
 2974TIP3    H130337  -0.024   2.816   0.725 -1.6752  0.9492  0.2236
 2974TIP3    H230338   0.010   2.946   0.654  0.2778 -0.3355 -1.2475
 2975TIP3   OH230339   6.090   4.495  11.525 -0.1786 -0.0924 -0.0834
 2975TIP3    H130340   6.069   4.404  11.503  0.2080  0.1020 -1.3508
 2975TIP3    H230341   6.084   4.541  11.441  0.6035  0.8535  0.3711
 2976TIP3   OH230342   2.211   5.532  14.006 -0.3464 -0.1896 -0.3730
 2976TIP3    H130343   2.294   5.513  13.962  0.5286 -0.8018  1.5079
 2976TIP3    H230344   2.232   5.530  14.099 -1.8191  2.6243  0.0848
 2977TIP3   OH230345   0.234   2.723   5.866 -0.6277  0.5339 -0.3379
 2977TIP3    H130346   0.192   2.745   5.949 -2.1600 -2.2705 -0.3455
 2977TIP3    H230347   0.328   2.718   5.888 -1.0037 -0.1016  1.2138
 2978TIP3   OH230348   5.686   0.711  12.159 -0.8109  0.5717 -0.6368
 2978TIP3    H130349   5.617   0.706  12.226  0.1584  1.8879  0.4996
 2978TIP3    H230350   5.742   0.783  12.188  3.5689 -3.1628  0.9006
 2979TIP3   OH230351   6.485   5.107   4.683 -0.4814  0.7227 -0.2522
 2979TIP3    H130352   6.432   5.095   4.761 -1.1366  0.4257 -0.7375
 2979TIP3    H230353   6.476   5.200   4.662 -2.0657  0.3789 -1.2084
 2980TIP3   OH230354   4.634   2.155  14.030 -0.1948  0.8917  0.0716
 2980TIP3    H130355   4.590   2.199  13.957 -2.1687  2.5993  2.1959
 2980TIP3    H230356   4.704   2.216  14.055 -0.3569  0.9236  0.4452
 2981TIP3   OH230357   5.719   1.471  11.956 -0.0155  0.2100  0.3662
 2981TIP3    H130358   5.795   1.510  11.997  0.0472  1.7730 -1.1940
 2981TIP3    H230359   5.699   1.528  11.882 -2.7198 -0.1370  0.7638
 2982TIP3   OH230360   1.211   5.573   5.058 -0.4137  0.5825  0.1387
 2982TIP3    H130361   1.279   5.507   5.071 -1.9159 -1.0077  0.0871
 2982TIP3    H230362   1.244   5.627   4.986 -0.2183 -1.5489 -1.4255
 2983TIP3   OH230363   1.796   2.168   1.041  0.2762 -0.0910  0.4434
 2983TIP3    H130364   1.879   2.147   1.084  0.2323 -1.3441 -0.0713
 2983TIP3    H230365   1.729   2.123   1.093 -0.0352  0.4874  0.5509
 2984TIP3   OH230366   5.019   0.321  17.036 -0.0745 -0.8277  0.2760
 2984TIP3    H130367   5.103   0.298  17.075 -0.2827 -2.7372 -0.3648
 2984TIP3    H230368   5.041   0.356  16.950  0.1798  0.6560  0.9193
 2985TIP3   OH230369   6.310   2.101  16.892  0.2346 -0.0750 -0.1608
 2985TIP3    H130370   6.299   2.145  16.976 -0.3895  0.3268 -0.4546
 2985TIP3    H230371   6.386   2.144  16.852  1.0718 -0.8495  0.5682
 2986TIP3   OH230372   3.172   4.612   1.258  0.3325 -0.3267 -0.4770
 2986TIP3    H130373   3.127   4.548   1.203  0.3082 -0.6933 -0.0282
 2986TIP3    H230374   3.139   4.697   1.228  0.0350 -0.5459 -0.7703
 2987TIP3   OH230375   5.289   4.178  14.034  0.4718 -0.4084  0.0088
 2987TIP3    H130376   5.246   4.244  14.089  0.7833  1.6431 -2.1421
 2987TIP3    H230377   5.218   4.140  13.982  0.3934 -1.3636  0.7865
 2988TIP3   OH230378   1.767   0.015   0.080  0.0613 -0.3698 -0.0444
 2988TIP3    H130379   1.712   0.023   0.158  0.9265 -0.3954  0.5765
 2988TIP3    H230380   1.819  -0.065   0.094 -0.4805 -0.9229 -1.0966
 2989TIP3   OH230381   5.915   1.158  17.100  0.0378 -0.5680  0.2945
 2989TIP3    H130382   5.868   1.075  17.091  0.6848 -0.9123  0.0385
 2989TIP3    H230383   5.976   1.158  17.026  0.3694 -0.0814  0.5720
 2990TIP3   OH230384   0.665   5.586  16.928 -0.7617  0.0740 -0.0359
 2990TIP3    H130385   0.729   5.566  16.860 -0.1436  1.8299 -0.0067
 2990TIP3    H230386   0.587   5.535  16.905  0.4223 -1.5720 -0.4310
 2991TIP3   OH230387   1.347   0.700  13.870  0.0765 -0.6557  0.3663
 2991TIP3    H130388   1.329   0.606  13.859  2.6810 -1.0127 -1.3452
 2991TIP3    H230389   1.425   0.702  13.926  0.4312  0.4567 -0.1560
 2992TIP3   OH230390   2.443   3.115   1.758 -0.2218  0.3701 -0.0232
 2992TIP3    H130391   2.468   3.121   1.850  0.5407  1.2109 -0.2759
 2992TIP3    H230392   2.482   3.032   1.728 -0.9772 -0.1976  0.5562
 2993TIP3   OH230393   5.250   4.003  14.352 -0.1682 -0.1003 -0.3445
 2993TIP3    H130394   5.314   4.007  14.423 -1.6095 -0.8487  1.0393
 2993TIP3    H230395   5.196   4.081  14.364  1.3102  1.2644 -2.3434
 2994TIP3   OH230396   0.337   4.742   3.168 -0.3465 -0.4074 -0.3171
 2994TIP3    H130397   0.358   4.665   3.221 -0.2376  0.5807  1.0907
 2994TIP3    H230398   0.264   4.784   3.214  0.8892  1.4231  0.0242
 2995TIP3   OH230399   1.319   4.815   4.810  0.3958  0.3293  0.3440
 2995TIP3    H130400   1.392   4.877   4.814  0.7247  0.1068 -1.7794
 2995TIP3    H230401   1.344   4.745   4.870  1.0411  1.1483  1.0581
 2996TIP3   OH230402   4.492   2.358   6.503 -0.4502  0.0165  0.3810
 2996TIP3    H130403   4.500   2.453   6.508 -1.8280  0.1279  0.6710
 2996TIP3    H230404   4.401   2.341   6.525 -0.0265 -1.4263  1.0386
 2997TIP3   OH230405   2.655   4.166   5.486  0.0120  0.2101 -0.2474
 2997TIP3    H130406   2.663   4.199   5.397  0.1697 -0.3513 -0.4477
 2997TIP3    H230407   2.605   4.084   5.476 -0.2511  0.3136  0.2136
 2998TIP3   OH230408   0.999   1.711  16.065 -0.4063 -0.2812 -0.0829
 2998TIP3    H130409   0.917   1.753  16.039 -1.1726 -0.5964  1.7334
 2998TIP3    H230410   1.060   1.784  16.078 -1.0492  0.1088  0.7681
 2999TIP3   OH230411   5.214   1.733  17.232 -0.1514 -0.1622  0.7396
 2999TIP3    H130412   5.284   1.670  17.248  0.2400  0.5932  2.0905
 2999TIP3    H230413   5.246   1.785  17.158 -0.6129 -1.7231 -0.5752
 3000TIP3   OH230414   3.543   4.327   2.170 -0.1275 -0.5360 -0.2216
 3000TIP3    H130415   3.584   4.349   2.085  0.5822  1.9449  0.7204
 3000TIP3    H230416   3.618   4.312   2.228 -0.6122 -0.4900  0.4069
 3001TIP3   OH230417   1.526   1.892  13.254 -0.6565  0.7594  0.1077
 3001TIP3    H130418   1.462   1.920  13.188  0.4090  1.5362 -0.6166
 3001TIP3    H230419   1.543   1.800  13.232 -1.7301  0.4557  0.4880
 3002TIP3   OH230420   6.399   6.372  14.633  0.0172  0.2472 -0.3852
 3002TIP3    H130421   6.462   6.311  14.596  0.4930  1.2377 -1.2296
 3002TIP3    H230422   6.425   6.457  14.598 -0.7146  0.9148  0.6753
 3003TIP3   OH230423   1.953   5.812   0.459  0.1266 -0.2630 -0.1351
 3003TIP3    H130424   1.875   5.787   0.509  1.2287 -0.6170  1.4728
 3003TIP3    H230425   1.997   5.877   0.514 -0.1599  1.6082 -2.0433
 3004TIP3   OH230426   1.431   1.365  14.063  0.5728  0.4886  0.5994
 3004TIP3    H130427   1.436   1.272  14.084 -1.3290  0.4054  0.7171
 3004TIP3    H230428   1.367   1.401  14.124  0.4676  1.6527 -0.1773
 3005TIP3   OH230429   4.237   2.457   2.966 -0.1831  0.3733  0.1175
 3005TIP3    H130430   4.204   2.508   2.892  0.3637 -2.0360 -1.8635
 3005TIP3    H230431   4.162   2.405   2.994 -0.1159  0.5408  0.6073
 3006TIP3   OH230432   1.140   5.179   2.246  0.8276 -0.0183 -0.5070
 3006TIP3    H130433   1.109   5.200   2.158  1.7606 -1.2115 -1.1463
 3006TIP3    H230434   1.062   5.148   2.292  0.0411  1.9931 -0.4424
 3007TIP3   OH230435   2.079   2.639  15.240 -0.2676  0.2654  0.7988
 3007TIP3    H130436   2.034   2.699  15.299 -1.2075  1.5507 -1.1794
 3007TIP3    H230437   2.061   2.672  15.152  2.4700 -0.6314 -0.1864
 3008TIP3   OH230438   5.136   1.859  13.115  0.8342  0.3229  0.0291
 3008TIP3    H130439   5.122   1.878  13.022 -1.5476 -0.3091  0.2350
 3008TIP3    H230440   5.230   1.841  13.121  1.0328  0.3650 -2.2572
 3009TIP3   OH230441   3.822   0.212  13.887 -0.2572  0.0860  0.2717
 3009TIP3    H130442   3.853   0.298  13.861 -2.9463  0.7758 -0.8039
 3009TIP3    H230443   3.753   0.229  13.952  1.9092 -1.4136  3.0788
 3010TIP3   OH230444   3.055   5.184  10.883 -0.6043  0.6206 -0.2279
 3010TIP3    H130445   3.146   5.160  10.868 -1.0223 -0.7187 -0.6830
 3010TIP3    H230446   3.040   5.166  10.976 -0.6707 -0.0864 -0.3720
 3011TIP3   OH230447   6.078   2.413   1.610 -0.2903 -0.4857 -0.1280
 3011TIP3    H130448   6.033   2.472   1.670  2.1726  1.1997  0.1180
 3011TIP3    H230449   6.142   2.367   1.664  0.0620 -0.9640 -0.9276
 3012TIP3   OH230450   0.480   1.615   4.613 -0.8975  0.2830  0.7066
 3012TIP3    H130451   0.390   1.647   4.615 -1.0908 -0.1547 -0.6916
 3012TIP3    H230452   0.534   1.693   4.615 -1.3192  0.5815  0.3701
 3013TIP3   OH230453   1.198   6.046   4.399  0.0571 -0.2578  0.8090
 3013TIP3    H130454   1.291   6.064   4.381 -0.2007  1.3391  0.9319
 3013TIP3    H230455   1.160   6.025   4.314  0.5881 -1.2080  0.8005
 3014TIP3   OH230456   2.938   3.730   3.832 -0.0721 -0.2942 -0.3482
 3014TIP3    H130457   2.969   3.641   3.817  0.8442  0.0235 -0.3320
 3014TIP3    H230458   2.952   3.774   3.748 -1.8876 -0.5547 -0.8177
 3015TIP3   OH230459   2.273   0.673  10.722 -0.2184  0.8010  0.2018
 3015TIP3    H130460   2.307   0.672  10.632 -2.4965  1.0377 -0.6941
 3015TIP3    H230461   2.232   0.588  10.733 -0.0858  0.8347  0.9855
 3016TIP3   OH230462   3.149   2.724   3.657  0.2779  0.2457 -0.4080
 3016TIP3    H130463   3.152   2.730   3.752 -2.8805 -2.3085 -0.0720
 3016TIP3    H230464   3.096   2.799   3.629 -2.8336 -1.5882  0.3079
 3017TIP3   OH230465   1.269   1.676  14.345  0.5310 -0.9927 -0.1141
 3017TIP3    H130466   1.332   1.699  14.414  0.4526  0.7211 -0.5928
 3017TIP3    H230467   1.187   1.717  14.373  0.8562  0.9235 -1.9378
 3018TIP3   OH230468   1.202   4.210   2.643  0.5013 -0.1819  0.1195
 3018TIP3    H130469   1.283   4.214   2.593  0.4022 -1.2662 -0.1435
 3018TIP3    H230470   1.136   4.180   2.580  0.5544 -2.4601  1.0752
 3019TIP3   OH230471   4.941   5.325   1.895  0.1768  0.0836  0.3164
 3019TIP3    H130472   4.853   5.294   1.873 -0.0961  0.3238  1.0503
 3019TIP3    H230473   4.971   5.265   1.964  2.1284 -2.4111 -2.5760
 3020TIP3   OH230474   5.113   5.318  12.478 -0.1425 -0.4043 -0.3060
 3020TIP3    H130475   5.019   5.305  12.485  0.0265 -0.1517  2.8098
 3020TIP3    H230476   5.151   5.260  12.542  1.8076  0.0293 -1.0291
 3021TIP3   OH230477   5.436   4.393   3.401 -0.2495  0.0468  0.4401
 3021TIP3    H130478   5.422   4.396   3.306 -0.6584 -3.5434  0.2950
 3021TIP3    H230479   5.528   4.368   3.411 -0.5273 -0.7985  0.9471
 3022TIP3   OH230480   0.490   0.929   6.089  0.1658  1.0930  0.6184
 3022TIP3    H130481   0.421   0.932   6.155  1.2987 -1.1801  1.9758
 3022TIP3    H230482   0.570   0.916   6.140  1.0478 -0.7511 -1.2136
 3023TIP3   OH230483   2.607   1.667   5.705 -0.0760 -0.2442 -0.1430
 3023TIP3    H130484   2.632   1.737   5.765  1.3017  0.9191 -2.0014
 3023TIP3    H230485   2.568   1.599   5.761 -0.6924  1.6461  1.7862
 3024TIP3   OH230486   5.937   3.700   1.578  0.6453  0.0995 -0.6172
 3024TIP3    H130487   5.949   3.630   1.643 -0.0278  1.0489  0.5581
 3024TIP3    H230488   6.019   3.749   1.579 -0.0327  1.2309  0.8930
 3025TIP3   OH230489   3.996   2.397  10.551  0.5513  0.7337  0.3405
 3025TIP3    H130490   3.929   2.461  10.525  0.4967 -0.1612 -1.7481
 3025TIP3    H230491   4.004   2.338  10.476  3.2233  0.4447  0.8019
 3026TIP3   OH230492   5.490   3.276  14.324  0.1831 -1.0216 -0.2486
 3026TIP3    H130493   5.419   3.333  14.354  0.8014  0.5299 -1.6888
 3026TIP3    H230494   5.459   3.188  14.344 -0.7740 -0.2065  2.0391
 3027TIP3   OH230495   3.982   0.667  15.679 -0.0021  0.0564 -0.1399
 3027TIP3    H130496   4.070   0.679  15.715  0.1604 -0.4118 -0.3894
 3027TIP3    H230497   3.943   0.598  15.733 -1.2853  2.3216  1.9279
 3028TIP3   OH230498   4.098   1.304   3.729  0.2856  0.4355  0.2704
 3028TIP3    H130499   4.015   1.260   3.713  1.0631 -0.9937  0.0614
 3028TIP3    H230500   4.075   1.396   3.742 -1.3065  0.0645  0.1199
 3029TIP3   OH230501   3.725   5.851  11.564  0.4238 -0.1913  0.3027
 3029TIP3    H130502   3.784   5.818  11.497 -0.4625 -1.4778  0.1305
 3029TIP3    H230503   3.697   5.936  11.532 -0.3181 -0.9831 -1.1843
 3030TIP3   OH230504   4.220   4.260   1.691  0.1114 -0.4373 -0.0835
 3030TIP3    H130505   4.169   4.213   1.624  1.3602 -3.2110  0.8125
 3030TIP3    H230506   4.288   4.306   1.642  0.3422 -1.5433 -0.8196
 3031TIP3   OH230507   3.364   0.004   0.838  0.2710  0.8724 -0.0560
 3031TIP3    H130508   3.355   0.089   0.883 -0.9349  0.6714  0.0974
 3031TIP3    H230509   3.382   0.027   0.747  0.1006  1.2911  0.0127
 3032TIP3   OH230510   1.939   0.302  11.316 -0.0831 -0.1382 -0.0220
 3032TIP3    H130511   1.950   0.216  11.276  0.4310  0.6780 -1.6776
 3032TIP3    H230512   1.921   0.361  11.243  0.5210  1.3346  0.9802
 3033TIP3   OH230513   2.203   1.520   5.973  0.5716  0.0888  0.9986
 3033TIP3    H130514   2.207   1.431   5.937 -0.9354  0.0982  0.7635
 3033TIP3    H230515   2.292   1.553   5.965  0.9660 -1.0908  0.2927
 3034TIP3   OH230516   6.250   6.197  16.629  0.5447  0.3841 -0.0138
 3034TIP3    H130517   6.190   6.148  16.685  0.4853 -0.9057 -1.2029
 3034TIP3    H230518   6.287   6.132  16.570  1.5783  1.5231 -0.6409
 3035TIP3   OH230519   2.201   0.636  16.756  0.2160  0.1482  0.3059
 3035TIP3    H130520   2.291   0.608  16.773  0.4074  1.6376  1.8749
 3035TIP3    H230521   2.157   0.626  16.840 -1.4884 -1.9282 -0.7923
 3036TIP3   OH230522   3.848   3.867  17.061  0.0978  0.4786 -0.1361
 3036TIP3    H130523   3.844   3.959  17.037  0.5183  0.5258 -0.0315
 3036TIP3    H230524   3.883   3.866  17.150 -0.7371  0.2617  0.1865
 3037TIP3   OH230525   3.977   5.095   3.095  0.1138 -0.5036  0.2623
 3037TIP3    H130526   3.912   5.103   3.025  1.1308  0.5428 -0.5828
 3037TIP3    H230527   4.024   5.179   3.094  1.9201 -1.4866  0.4357
 3038TIP3   OH230528   2.079   0.772   2.848 -0.0311 -0.1634  0.0262
 3038TIP3    H130529   2.172   0.771   2.826 -0.7485 -0.9344 -3.1174
 3038TIP3    H230530   2.056   0.865   2.851  0.8883  0.0464  1.2431
 3039TIP3   OH230531   3.933   2.984   3.720 -0.0058 -0.4595 -0.0713
 3039TIP3    H130532   4.014   2.934   3.717  0.3900  0.2906 -4.6268
 3039TIP3    H230533   3.864   2.920   3.701  0.0200 -0.2125 -1.0210
 3040TIP3   OH230534   5.044   4.049  11.441  0.4773 -0.3300  0.7547
 3040TIP3    H130535   5.044   3.997  11.522  2.4394  0.1793  1.1150
 3040TIP3    H230536   5.036   4.140  11.471 -1.2322 -0.3046  0.2282
 3041TIP3   OH230537   0.106   3.217  13.135  0.1190  0.0665 -0.1001
 3041TIP3    H130538   0.122   3.125  13.114  1.5736  0.2484  0.1827
 3041TIP3    H230539   0.189   3.261  13.118 -0.6506  1.3986 -0.5422
 3042TIP3   OH230540   3.723   4.683   5.538  0.1340  0.5427 -0.0124
 3042TIP3    H130541   3.706   4.666   5.630 -4.4841  1.5155 -0.5696
 3042TIP3    H230542   3.746   4.597   5.502 -2.0271 -0.6125  1.2880
 3043TIP3   OH230543   2.370   0.591  12.022  0.2318  0.1112 -0.6146
 3043TIP3    H130544   2.398   0.520  12.079 -0.2734  0.9116  0.6560
 3043TIP3    H230545   2.410   0.669  12.061  0.3364  0.5868 -1.6785
 3044TIP3   OH230546   1.593   1.957   5.784  0.1428  0.4830 -0.3589
 3044TIP3    H130547   1.564   1.868   5.803  0.9564  0.4458  0.7679
 3044TIP3    H230548   1.687   1.955   5.800 -0.0151  1.8452  0.8121
 3045TIP3   OH230549   4.874   2.427  13.019  0.3858  0.0984 -0.0095
 3045TIP3    H130550   4.930   2.466  13.087 -1.0817  0.1962  1.1742
 3045TIP3    H230551   4.860   2.337  13.047 -0.5724  0.2572  0.0580
 3046TIP3   OH230552   4.989   3.267   1.492 -0.6227 -0.3849 -0.2441
 3046TIP3    H130553   5.073   3.312   1.482  0.5582 -1.8357  2.5393
 3046TIP3    H230554   4.929   3.334   1.525 -0.2387  0.3197 -0.9517
 3047TIP3   OH230555   0.632   5.438   0.408 -0.5030 -0.1268 -0.1012
 3047TIP3    H130556   0.538   5.448   0.391 -0.3647 -2.2904 -2.4172
 3047TIP3    H230557   0.670   5.518   0.371 -1.4957  1.2750  1.8105
 3048TIP3   OH230558   0.709   2.258   5.856 -0.5136  0.2125 -0.1658
 3048TIP3    H130559   0.764   2.336   5.850 -1.0919  0.5932 -0.5493
 3048TIP3    H230560   0.621   2.292   5.870 -1.2006 -0.2633 -2.9423
 3049TIP3   OH230561   4.580   5.208  12.591 -0.4824 -0.0468  0.1834
 3049TIP3    H130562   4.507   5.151  12.565 -2.7063  1.8910  1.9134
 3049TIP3    H230563   4.544   5.261  12.662  2.0312  2.3413 -0.2562
 3050TIP3   OH230564   3.741   6.379  16.883 -0.2644  0.0974 -0.1284
 3050TIP3    H130565   3.670   6.422  16.835 -0.0615  0.2455 -0.2985
 3050TIP3    H230566   3.699   6.345  16.962  0.1713  3.1850  1.4720
 3051TIP3   OH230567   5.992   3.721   2.002 -0.2387  0.8496 -0.5623
 3051TIP3    H130568   5.922   3.783   2.023  0.8880  2.4529 -1.3657
 3051TIP3    H230569   5.999   3.665   2.079 -2.2111  0.8312 -0.3685
 3052TIP3   OH230570   3.188   0.138   2.624  0.1343 -0.5580 -0.2372
 3052TIP3    H130571   3.135   0.074   2.576 -2.2221  0.7458  0.5598
 3052TIP3    H230572   3.187   0.216   2.568 -1.9002  0.6784  1.4476
 3053TIP3   OH230573   4.529   0.313  12.332  0.1362  0.2753  0.1839
 3053TIP3    H130574   4.554   0.365  12.409  0.7772  1.2108 -0.6352
 3053TIP3    H230575   4.612   0.285  12.294 -0.0898  1.6212 -1.3630
 3054TIP3   OH230576   0.618   5.121   6.199  0.0514 -0.2244 -0.6355
 3054TIP3    H130577   0.583   5.209   6.209 -0.8739 -0.3226 -2.6946
 3054TIP3    H230578   0.643   5.095   6.288  2.4791  2.9346 -0.2978
 3055TIP3   OH230579   4.968   3.669  11.158 -0.3483 -0.5873 -0.5781
 3055TIP3    H130580   4.919   3.721  11.093 -0.8620 -1.3175 -0.7765
 3055TIP3    H230581   5.056   3.663  11.122 -0.7073 -1.2437 -1.3610
 3056TIP3   OH230582   0.428   5.885  11.871  0.1883 -0.0048  0.3854
 3056TIP3    H130583   0.420   5.829  11.793  0.1344 -0.4608  0.7153
 3056TIP3    H230584   0.517   5.871  11.902  0.1812  0.1088  0.4553
 3057TIP3   OH230585   0.529   4.890   4.542  0.1955 -0.4221 -0.1015
 3057TIP3    H130586   0.547   4.957   4.476 -1.8490 -0.1037 -0.3804
 3057TIP3    H230587   0.542   4.935   4.625  1.8980 -0.5708 -0.2679
 3058TIP3   OH230588   1.886   4.433   2.033 -0.4926 -0.9314 -0.1773
 3058TIP3    H130589   1.959   4.395   2.081  0.0837  1.0370  0.5396
 3058TIP3    H230590   1.925   4.502   1.980 -1.7577 -0.1627 -0.1374
 3059TIP3   OH230591   4.251   2.639  12.300  0.4590 -0.6081 -0.3726
 3059TIP3    H130592   4.344   2.614  12.298  0.4839 -0.4934 -0.8018
 3059TIP3    H230593   4.235   2.675  12.213 -0.6068 -2.8268 -1.1377
 3060TIP3   OH230594   4.147   4.799   1.192 -0.4155  0.3696 -0.0391
 3060TIP3    H130595   4.163   4.728   1.130  0.2017  0.5409 -0.0855
 3060TIP3    H230596   4.088   4.761   1.257 -1.4061  0.3171 -0.9497
 3061TIP3   OH230597   3.164   1.247  16.631  0.0380 -0.2340 -0.3436
 3061TIP3    H130598   3.079   1.285  16.653  0.7231  0.9376  0.3540
 3061TIP3    H230599   3.226   1.318  16.644  1.3987 -1.6783  1.3043
 3062TIP3   OH230600   1.874   3.008  16.478 -0.5188  0.5832  0.5432
 3062TIP3    H130601   1.952   2.954  16.488 -0.2188  1.0096  0.4991
 3062TIP3    H230602   1.851   3.000  16.386 -0.2576  0.8344  0.4581
 3063TIP3   OH230603   2.908   2.608  13.948 -0.8259 -0.4357  0.1129
 3063TIP3    H130604   2.850   2.570  13.882 -1.0208 -1.6476  0.9692
 3063TIP3    H230605   2.915   2.540  14.015  0.4655  0.2550  0.6801
 3064TIP3   OH230606   5.498   0.106   6.155  0.2994 -0.0524 -0.5000
 3064TIP3    H130607   5.469   0.183   6.205  0.2949  0.3861 -1.1718
 3064TIP3    H230608   5.523   0.042   6.222  0.2099  0.4969  0.0638
 3065TIP3   OH230609   0.518   3.298   5.840  0.0252 -0.8255 -0.1641
 3065TIP3    H130610   0.444   3.358   5.847  0.7439  0.0380  0.1904
 3065TIP3    H230611   0.525   3.279   5.747  2.6058  3.3056 -0.9614
 3066TIP3   OH230612   3.212   1.764   1.255  0.4973 -0.7534  0.2056
 3066TIP3    H130613   3.244   1.755   1.165 -0.5647  0.6593 -0.3434
 3066TIP3    H230614   3.201   1.859   1.267 -2.8369 -1.1136  0.5743
 3067TIP3   OH230615   0.509   4.837   2.687 -0.2414 -0.4409 -0.4748
 3067TIP3    H130616   0.489   4.776   2.757 -0.5287  1.3985  1.1043
 3067TIP3    H230617   0.425   4.881   2.670 -0.1191 -0.7138 -1.8121
 3068TIP3   OH230618   4.989   2.634  13.193  0.5126 -0.4891  0.0198
 3068TIP3    H130619   5.050   2.695  13.152  0.7336 -0.8251 -0.1538
 3068TIP3    H230620   5.012   2.636  13.286  3.1510 -3.2697 -0.5162
 3069TIP3   OH230621   6.110   3.508   1.696 -0.0347 -0.0137  0.1852
 3069TIP3    H130622   6.204   3.524   1.707  0.0656  0.1779 -0.8470
 3069TIP3    H230623   6.102   3.413   1.691  0.2336  0.0011 -0.7005
 3070TIP3   OH230624   4.559   4.830  11.093 -0.0656  0.4682  0.6660
 3070TIP3    H130625   4.642   4.870  11.066 -0.4013  0.5807 -0.2235
 3070TIP3    H230626   4.515   4.808  11.011 -1.0543  0.7031  1.1219
 3071TIP3   OH230627   5.150   3.375   0.111  0.1796  0.1825  0.0446
 3071TIP3    H130628   5.182   3.325   0.186 -0.5699 -1.0317 -0.4245
 3071TIP3    H230629   5.141   3.465   0.144 -0.3432 -0.3793  1.4676
 3072TIP3   OH230630   5.391   5.885   5.113 -0.4844  0.1532 -0.2049
 3072TIP3    H130631   5.414   5.886   5.206  0.6637 -0.0018 -0.4700
 3072TIP3    H230632   5.434   5.807   5.078  0.2457  0.9450 -1.1294
 3073TIP3   OH230633   5.283   5.714  14.901 -0.7988 -0.2050  0.5441
 3073TIP3    H130634   5.194   5.685  14.882 -0.3471 -1.6024  0.5417
 3073TIP3    H230635   5.315   5.654  14.968  0.1805  0.2220  0.4782
 3074TIP3   OH230636   1.908   4.348   0.972 -0.3985  0.2459 -0.5921
 3074TIP3    H130637   1.961   4.286   1.023  0.1650  1.5940  0.5118
 3074TIP3    H230638   1.841   4.294   0.931  0.1742 -1.1201  0.2190
 3075TIP3   OH230639   6.560   3.113   6.379  0.2683  0.0023  0.0468
 3075TIP3    H130640   6.468   3.095   6.401  0.3726  1.6984  2.0240
 3075TIP3    H230641   6.609   3.045   6.425  0.1921  1.0307  1.6966
 3076TIP3   OH230642   5.204   5.507  16.834 -0.1149 -0.8191 -0.1662
 3076TIP3    H130643   5.241   5.513  16.746 -1.0668 -0.9278 -0.5860
 3076TIP3    H230644   5.196   5.413  16.850  1.9432 -0.8358  0.8618
 3077TIP3   OH230645   0.085   6.242   0.993  0.2484 -0.5743 -0.4933
 3077TIP3    H130646   0.042   6.244   1.078  0.3343  1.3840 -0.4591
 3077TIP3    H230647   0.136   6.161   0.993  1.5244  0.1877  1.9633
 3078TIP3   OH230648   6.524   6.137   2.722  0.4334 -0.0184 -0.2179
 3078TIP3    H130649   6.575   6.066   2.684  2.1083  1.4627 -0.7985
 3078TIP3    H230650   6.578   6.215   2.709 -2.2566  1.7072 -1.4285
 3079TIP3   OH230651   2.808   0.503  14.309 -0.2875  0.0575  0.0960
 3079TIP3    H130652   2.778   0.418  14.278  1.0961 -0.5484  0.4203
 3079TIP3    H230653   2.891   0.517  14.264  0.5807  0.2382  1.7449
 3080TIP3   OH230654   1.820   3.524  15.629  0.5657  0.3557  0.5203
 3080TIP3    H130655   1.863   3.589  15.685  2.9857  0.1228 -0.9831
 3080TIP3    H230656   1.829   3.441  15.677  2.1002  0.2548  0.0753
 3081TIP3   OH230657   6.528   6.628   4.639 -0.3687  0.2410  0.3119
 3081TIP3    H130658   6.455   6.583   4.597 -0.6777  0.0251  1.0761
 3081TIP3    H230659   6.500   6.720   4.643 -1.0693 -0.0119  1.5793
 3082TIP3   OH230660   6.172   5.987   3.583  0.8634  0.2832 -0.6587
 3082TIP3    H130661   6.078   5.974   3.568  1.1519 -2.9128  0.0677
 3082TIP3    H230662   6.212   5.903   3.561  3.3403  1.0296  0.8277
 3083TIP3   OH230663   2.908   0.245  13.979 -0.0522 -0.0820  0.1507
 3083TIP3    H130664   2.930   0.322  13.926 -0.0770 -1.2230 -1.5615
 3083TIP3    H230665   2.993   0.204  13.997 -0.0280  0.3976  1.1616
 3084TIP3   OH230666   3.545   1.297  16.065  0.1699 -0.1573  0.2293
 3084TIP3    H130667   3.625   1.305  16.014 -0.5607 -0.1066 -0.9196
 3084TIP3    H230668   3.527   1.203  16.067 -0.9466  0.0069 -1.4125
 3085TIP3   OH230669   0.007   2.498   4.474  0.0309 -0.1013  0.2537
 3085TIP3    H130670  -0.003   2.413   4.515  1.8341  0.4025  1.8258
 3085TIP3    H230671  -0.076   2.543   4.492 -0.1483 -0.7864  1.1835
 3086TIP3   OH230672   1.698   2.820   2.957  0.5689  0.5110 -0.2189
 3086TIP3    H130673   1.715   2.853   2.869 -0.3167  2.3764  0.2859
 3086TIP3    H230674   1.681   2.898   3.009 -0.3880 -0.6693  1.2870
 3087TIP3   OH230675   2.243   0.793  17.232 -0.1192  0.6620 -0.2121
 3087TIP3    H130676   2.234   0.888  17.245  2.1358  1.1239 -1.6367
 3087TIP3    H230677   2.309   0.766  17.296 -0.4520  0.1239 -0.0938
 3088TIP3   OH230678   2.271   0.365   0.101 -0.3759  0.8525 -0.0958
 3088TIP3    H130679   2.176   0.380   0.107 -0.4861  0.0708  0.1664
 3088TIP3    H230680   2.310   0.444   0.137 -0.9483  0.4150  1.5214
 3089TIP3   OH230681   5.015   1.671  10.370 -0.3405 -0.4725 -0.5323
 3089TIP3    H130682   4.953   1.735  10.405  0.6845 -0.1422  0.7553
 3089TIP3    H230683   5.001   1.592  10.422  1.1051 -0.0210  0.5844
 3090TIP3   OH230684   4.873   5.555   1.021  0.1445 -0.1380 -0.0365
 3090TIP3    H130685   4.887   5.631   1.077  2.9157 -1.2351  0.8547
 3090TIP3    H230686   4.857   5.592   0.934 -1.3739  1.5060  0.9161
 3091TIP3   OH230687   4.879   1.266   5.187 -0.4970  0.2722  0.7078
 3091TIP3    H130688   4.838   1.222   5.261 -1.0622 -1.2990 -0.4975
 3091TIP3    H230689   4.957   1.213   5.167 -1.3252 -0.3936 -0.9207
 3092TIP3   OH230690   1.424   1.221  15.872 -0.4825  0.2182  0.2330
 3092TIP3    H130691   1.509   1.179  15.858 -1.8229 -1.8272 -1.9773
 3092TIP3    H230692   1.422   1.293  15.809 -0.5221  0.0685  0.0639
 3093TIP3   OH230693   6.385   3.925  12.301 -0.3271  0.2535 -0.1926
 3093TIP3    H130694   6.354   3.836  12.316  0.1989  0.1792  0.4798
 3093TIP3    H230695   6.340   3.977  12.368 -0.6646  0.5000 -0.6121
 3094TIP3   OH230696   1.722   5.437  11.056  0.2324  0.7136 -0.0817
 3094TIP3    H130697   1.774   5.396  10.987 -1.4429 -2.9796  0.7248
 3094TIP3    H230698   1.767   5.413  11.137 -0.2833  1.2168  0.3560
 3095TIP3   OH230699   3.601   5.061  15.490  0.3140 -0.1998  0.1765
 3095TIP3    H130700   3.602   5.155  15.471 -1.7428  0.1167  1.4742
 3095TIP3    H230701   3.589   5.020  15.405  0.3419  0.7584 -0.3002
 3096TIP3   OH230702   6.202   2.242   1.112 -0.0528  0.5788 -0.5067
 3096TIP3    H130703   6.270   2.302   1.141  1.1183 -1.3758  0.9433
 3096TIP3    H230704   6.239   2.200   1.034 -0.1999  0.5332 -0.5529
 3097TIP3   OH230705   0.961   1.059   2.488  0.1368 -0.2529  0.4677
 3097TIP3    H130706   0.962   0.970   2.524  1.1019 -0.1217  0.7782
 3097TIP3    H230707   1.049   1.072   2.453 -0.3315  0.1875 -0.5583
 3098TIP3   OH230708   6.007   1.784  12.237 -0.2261  0.0234  0.6726
 3098TIP3    H130709   6.069   1.850  12.270 -0.0143  1.1378 -1.9021
 3098TIP3    H230710   5.928   1.799  12.288  0.6450  0.5394  1.9199
 3099TIP3   OH230711   0.041   2.979  15.997 -0.7315 -0.1853  0.1471
 3099TIP3    H130712   0.051   2.978  16.093  0.6492 -0.9200  0.0027
 3099TIP3    H230713   0.116   2.930  15.965 -1.0510  0.2956 -1.3422
 3100TIP3   OH230714   2.028   0.637  14.485 -0.1525 -0.3483 -0.2693
 3100TIP3    H130715   1.979   0.570  14.437 -0.4570  0.4207 -1.0637
 3100TIP3    H230716   2.117   0.630  14.451 -0.3576  0.1646 -0.9357
 3101TIP3   OH230717   3.968   3.856   0.066  0.0206  0.3243  0.3961
 3101TIP3    H130718   4.007   3.941   0.048  0.3877  0.0067 -0.3264
 3101TIP3    H230719   4.043   3.796   0.072 -0.1987  0.1238  1.3581
 3102TIP3   OH230720   2.540   5.911  13.873  0.1472  0.3382  0.0140
 3102TIP3    H130721   2.515   5.989  13.823 -1.0709 -0.2042 -0.2545
 3102TIP3    H230722   2.627   5.888  13.840  0.8430  2.0188  0.6355
 3103TIP3   OH230723   4.693   4.788  12.589 -0.0345 -0.7058  0.3865
 3103TIP3    H130724   4.672   4.789  12.682 -0.4344 -0.8501  0.2994
 3103TIP3    H230725   4.636   4.855  12.551 -0.0222 -0.7942  0.2126
 3104TIP3   OH230726   3.885   1.528   0.020 -0.1157 -0.0297 -0.5712
 3104TIP3    H130727   3.853   1.580   0.093 -0.7814 -2.6799  1.0954
 3104TIP3    H230728   3.979   1.520   0.036 -0.2211 -0.4004 -0.1240
 3105TIP3   OH230729   3.326   4.809  12.446  0.2379  0.2826 -0.0346
 3105TIP3    H130730   3.401   4.797  12.388  0.4462 -0.7217  0.4229
 3105TIP3    H230731   3.345   4.751  12.520  0.4935  2.3535  1.5399
 3106TIP3   OH230732   4.870   1.826   4.440 -0.0169  0.1833  0.3522
 3106TIP3    H130733   4.962   1.851   4.429  0.8116 -2.6079  0.4827
 3106TIP3    H230734   4.846   1.788   4.356 -1.1213  1.0038  0.2853
 3107TIP3   OH230735   0.202   4.905   0.318  0.6772  1.1351 -0.0584
 3107TIP3    H130736   0.197   4.934   0.410  0.4634  1.5144 -0.1858
 3107TIP3    H230737   0.265   4.833   0.319  1.8177  2.1194  0.1373
 3108TIP3   OH230738   1.375   6.441   1.567 -0.1857  0.1825  0.3406
 3108TIP3    H130739   1.426   6.424   1.488  0.7200 -2.0345  1.3573
 3108TIP3    H230740   1.439   6.452   1.636 -0.9854  1.5924  0.8731
 3109TIP3   OH230741   1.682   5.741  15.519  0.3295 -0.2739 -0.1728
 3109TIP3    H130742   1.749   5.688  15.476 -0.1435 -1.8351  0.9506
 3109TIP3    H230743   1.616   5.756  15.452  0.9226 -0.2975 -0.7670
 3110TIP3   OH230744   0.908   2.861   1.508  0.0093  0.8639 -0.3223
 3110TIP3    H130745   0.888   2.894   1.596 -1.9887  0.1522 -0.4868
 3110TIP3    H230746   0.932   2.939   1.458 -0.2649  1.4598  0.4725
 3111TIP3   OH230747   4.919   5.825  13.689 -0.1390 -0.2197  0.4152
 3111TIP3    H130748   4.879   5.790  13.769 -0.5360  3.0894  1.7305
 3111TIP3    H230749   4.845   5.854  13.636  0.2420 -0.3463 -0.1972
 3112TIP3   OH230750   3.450   3.620   0.746  0.9724 -0.8037 -1.2584
 3112TIP3    H130751   3.501   3.578   0.815 -3.6846 -2.5970  1.3646
 3112TIP3    H230752   3.460   3.714   0.762  0.6705 -1.1927  1.3473
 3113TIP3   OH230753   1.909   4.113   4.214 -0.0126 -0.0933 -0.4217
 3113TIP3    H130754   1.845   4.129   4.144  0.1814  1.9086 -0.1601
 3113TIP3    H230755   1.971   4.185   4.207  0.6320 -0.4773  1.1199
 3114TIP3   OH230756   2.691   4.529   0.452 -0.2531  0.6809  0.4791
 3114TIP3    H130757   2.680   4.458   0.390  2.9691  0.1228  0.4852
 3114TIP3    H230758   2.602   4.553   0.477 -1.4761 -1.1789 -1.9454
 3115TIP3   OH230759   2.627   5.141  15.164 -0.2274  0.0956 -0.4085
 3115TIP3    H130760   2.704   5.172  15.117 -1.5660  0.9971 -2.0602
 3115TIP3    H230761   2.595   5.067  15.113 -0.4129 -0.3248  0.3037
 3116TIP3   OH230762   6.004   6.381   3.377 -0.1759  0.5559 -0.3253
 3116TIP3    H130763   6.068   6.315   3.405  0.2148 -0.3716 -3.1982
 3116TIP3    H230764   6.048   6.429   3.307 -1.1308  2.7266  0.5105
 3117TIP3   OH230765   4.513   5.825  12.188 -0.6337 -0.7885  0.2993
 3117TIP3    H130766   4.599   5.787  12.170  0.5562  1.2503  1.5283
 3117TIP3    H230767   4.483   5.858  12.102  1.5917  1.9759  0.4991
 3118TIP3   OH230768   4.242   1.207  11.335  0.1959 -0.3696  0.4122
 3118TIP3    H130769   4.176   1.215  11.266  1.1481 -0.3709 -0.5027
 3118TIP3    H230770   4.258   1.297  11.363  0.1915 -0.3310  0.2860
 3119TIP3   OH230771   2.481   2.244   1.091  0.5541 -0.0268  0.1756
 3119TIP3    H130772   2.547   2.278   1.031 -1.3890  1.9823 -0.9236
 3119TIP3    H230773   2.398   2.279   1.058 -0.8916 -1.1579  2.4327
 3120TIP3   OH230774   3.827   5.745  13.384 -0.3980 -0.2944  0.0031
 3120TIP3    H130775   3.771   5.735  13.461  0.7580 -1.7134  0.6899
 3120TIP3    H230776   3.830   5.658  13.345  0.2105  0.0867 -0.8062
 3121TIP3   OH230777   0.786   3.402   3.863  0.6048  0.0958 -0.3165
 3121TIP3    H130778   0.784   3.367   3.951 -1.4977 -0.9818 -0.7731
 3121TIP3    H230779   0.861   3.463   3.863  0.9201 -0.2590  2.0292
 3122TIP3   OH230780   4.055   0.405  10.923 -0.0943  0.4147  0.1233
 3122TIP3    H130781   3.969   0.419  10.960  0.2321  2.1926  0.2344
 3122TIP3    H230782   4.070   0.310  10.931 -1.5621  0.2579  1.0839
 3123TIP3   OH230783   6.662   1.464   5.924 -0.2757  0.4533  0.6119
 3123TIP3    H130784   6.616   1.397   5.975 -0.1792  0.7258  1.0612
 3123TIP3    H230785   6.672   1.538   5.984  1.7267 -0.0021  0.8818
 3124TIP3   OH230786   6.176   5.245  15.160 -0.1791  0.0048  0.1622
 3124TIP3    H130787   6.162   5.178  15.227 -1.4805  1.3837  1.3018
 3124TIP3    H230788   6.271   5.257  15.157 -0.1748  0.7997  2.6827
 3125TIP3   OH230789   2.740   5.899  15.983  0.4345  0.2973 -0.1774
 3125TIP3    H130790   2.717   5.978  16.031  1.3251 -0.0398  0.8387
 3125TIP3    H230791   2.696   5.908  15.899  0.5265  1.8721 -0.0758
 3126TIP3   OH230792   1.029   4.385   2.372 -0.2484  0.0863  0.2264
 3126TIP3    H130793   1.019   4.295   2.401 -2.2574 -0.2397 -1.3414
 3126TIP3    H230794   0.949   4.403   2.322 -0.3194  3.0242  1.2747
 3127TIP3   OH230795   0.395   5.400  10.688 -0.2840  0.2504 -0.0068
 3127TIP3    H130796   0.337   5.358  10.624  0.4610 -2.1478  0.8245
 3127TIP3    H230797   0.481   5.359  10.673 -0.0279 -0.1174  2.2598
 3128TIP3   OH230798   0.801   5.914   6.315  0.3228 -0.2376 -0.2775
 3128TIP3    H130799   0.810   5.819   6.319 -0.0737 -0.2733 -0.3173
 3128TIP3    H230800   0.884   5.944   6.278  0.0658 -0.6331 -1.1886
 3129TIP3   OH230801   5.629   4.848  16.513 -0.2191 -0.4212  0.1808
 3129TIP3    H130802   5.706   4.893  16.477  0.0969 -0.7261  0.4644
 3129TIP3    H230803   5.557   4.910  16.501 -0.1862 -0.6508 -1.2717
 3130TIP3   OH230804   2.923   0.397  16.820 -0.0285 -0.3246 -0.4076
 3130TIP3    H130805   2.876   0.378  16.902 -0.9258  1.6551 -0.4399
 3130TIP3    H230806   3.008   0.431  16.849  0.1375 -0.8215 -0.3119
 3131TIP3   OH230807   4.536   5.965  11.495  0.2533 -0.4938  0.2115
 3131TIP3    H130808   4.602   5.898  11.513 -1.5527 -2.2769  0.3383
 3131TIP3    H230809   4.564   6.006  11.413  0.9602 -1.9097 -0.2615
 3132TIP3   OH230810   6.482   5.492   0.413 -0.1860 -0.2169  0.3621
 3132TIP3    H130811   6.562   5.519   0.458 -0.5416 -0.1937  0.9903
 3132TIP3    H230812   6.512   5.440   0.339  0.3771 -0.9547  1.1068
 3133TIP3   OH230813   0.025   2.470   4.195  0.0987 -0.0624  0.1209
 3133TIP3    H130814   0.090   2.402   4.177  0.0238  0.0885 -0.7473
 3133TIP3    H230815   0.026   2.480   4.290  2.6986  1.2651 -0.0086
 3134TIP3   OH230816   4.615   6.742   0.349  0.5051 -0.8652  0.4224
 3134TIP3    H130817   4.586   6.816   0.295 -0.3438 -3.0314 -2.2421
 3134TIP3    H230818   4.562   6.747   0.428  1.2307  1.9641  0.7926
 3135TIP3   OH230819   2.499   6.613   2.468 -0.2926  0.2356 -0.1982
 3135TIP3    H130820   2.461   6.533   2.505 -0.5681  0.1614 -0.6330
 3135TIP3    H230821   2.438   6.682   2.495 -1.2387 -0.0071 -1.6531
 3136TIP3   OH230822   2.317   0.528   5.288 -0.0280 -0.4280 -0.3153
 3136TIP3    H130823   2.342   0.443   5.253  0.1667 -0.2657 -0.5694
 3136TIP3    H230824   2.228   0.516   5.321 -0.9688 -0.0412 -2.6752
 3137TIP3   OH230825   0.688   2.782  14.405  0.2111  0.0680 -0.2553
 3137TIP3    H130826   0.760   2.845  14.398 -0.1823  0.5705  0.2417
 3137TIP3    H230827   0.648   2.800  14.490  0.9974 -1.8181  0.5414
 3138TIP3   OH230828   4.643   4.285  13.693  0.6219  0.8348  0.4734
 3138TIP3    H130829   4.698   4.277  13.616 -0.2832 -2.2944  0.0733
 3138TIP3    H230830   4.703   4.272  13.767  0.7029 -1.3433  0.0794
 3139TIP3   OH230831   4.433   2.253   0.158  0.6411  0.3090  0.1075
 3139TIP3    H130832   4.467   2.168   0.185  0.5403  0.5272  0.9466
 3139TIP3    H230833   4.355   2.232   0.106  0.3331 -0.1108  0.7131
 3140TIP3   OH230834   6.128   2.602  12.704 -0.4349  0.1001 -0.0736
 3140TIP3    H130835   6.052   2.591  12.762  0.1597  0.4715  0.7794
 3140TIP3    H230836   6.096   2.658  12.633 -0.7489  0.8803  0.6774
 3141TIP3   OH230837   3.083   3.283  16.175 -0.0654  0.1032  0.4414
 3141TIP3    H130838   3.036   3.362  16.150 -0.5509 -0.8082 -1.7001
 3141TIP3    H230839   3.124   3.253  16.094  1.2704 -1.0708  1.5197
 3142TIP3   OH230840   6.375   2.325   2.318  0.2863  1.0566  0.0203
 3142TIP3    H130841   6.421   2.278   2.249  0.7612  2.0153 -0.3288
 3142TIP3    H230842   6.443   2.347   2.382 -0.3010 -0.6175  1.2642
 3143TIP3   OH230843   4.251   1.689  17.120  0.0584  0.1453 -0.4444
 3143TIP3    H130844   4.269   1.742  17.043  0.5969  0.3833 -0.1549
 3143TIP3    H230845   4.222   1.751  17.187 -0.8145 -0.1073 -0.5788
 3144TIP3   OH230846   6.654   1.046   0.548 -0.4949 -0.2273 -0.4511
 3144TIP3    H130847   6.686   1.123   0.502  0.3385 -1.0022 -1.2014
 3144TIP3    H230848   6.729   0.986   0.550 -1.3508 -1.3262 -0.5791
 3145TIP3   OH230849   5.504   2.828  14.518  0.0480  0.3745 -0.4365
 3145TIP3    H130850   5.531   2.736  14.522  1.7545  0.8328 -1.2045
 3145TIP3    H230851   5.483   2.850  14.609 -0.4722 -0.7924 -0.2610
 3146TIP3   OH230852   5.554   2.972   1.116 -0.5164  0.3064 -0.4521
 3146TIP3    H130853   5.603   3.039   1.164 -0.0380  0.1696 -0.7445
 3146TIP3    H230854   5.466   3.008   1.109 -0.4126  0.6433 -0.0891
 3147TIP3   OH230855   3.719   0.540  11.483  0.0685 -0.2117 -0.1936
 3147TIP3    H130856   3.730   0.466  11.542 -0.3574  0.4155  0.6833
 3147TIP3    H230857   3.631   0.530  11.448 -0.6357  0.8253  1.2564
 3148TIP3   OH230858   4.801   3.473   6.856 -0.2700  0.4600 -0.6485
 3148TIP3    H130859   4.852   3.412   6.908 -1.9663  0.3040  0.8937
 3148TIP3    H230860   4.726   3.422   6.825 -1.1161  1.4482 -0.2792
 3149TIP3   OH230861   4.100   5.617  13.892  0.4569  0.1415 -0.1339
 3149TIP3    H130862   4.069   5.538  13.937  1.1864  0.3880  0.7954
 3149TIP3    H230863   4.167   5.585  13.831  0.5982  0.0162  0.0869
 3150TIP3   OH230864   2.652   5.967  10.980  0.9451 -0.2695 -0.5750
 3150TIP3    H130865   2.671   5.958  10.886  1.2301 -0.6083 -0.4847
 3150TIP3    H230866   2.578   6.028  10.983  1.3343  0.2322 -0.9872
 3151TIP3   OH230867   5.574   0.835  16.494 -0.2017  0.1096 -0.3122
 3151TIP3    H130868   5.593   0.742  16.501 -1.3762 -0.1467 -0.5155
 3151TIP3    H230869   5.645   0.878  16.542 -0.8155 -0.9771  1.5811
 3152TIP3   OH230870   0.422   0.454  15.503 -0.0525  0.1348  0.9737
 3152TIP3    H130871   0.335   0.495  15.510  0.2502  0.8189  0.6836
 3152TIP3    H230872   0.446   0.464  15.411  0.7203  0.7400  1.2330
 3153TIP3   OH230873   0.734   5.964   4.607  0.0094 -0.6444  0.2267
 3153TIP3    H130874   0.811   5.986   4.659 -1.2737 -0.8737  2.3065
 3153TIP3    H230875   0.675   6.039   4.618 -0.0205 -0.4075 -1.4560
 3154TIP3   OH230876   5.293   6.367  15.829  0.3408 -0.3644  0.3513
 3154TIP3    H130877   5.292   6.290  15.773  1.0311  2.8923 -4.4989
 3154TIP3    H230878   5.385   6.378  15.854  0.5604 -0.0635 -0.5731
 3155TIP3   OH230879   1.997   6.459   5.531  0.1956 -0.3659 -0.4603
 3155TIP3    H130880   1.931   6.442   5.464 -0.9511 -0.2727  0.6111
 3155TIP3    H230881   1.947   6.493   5.606  1.4906 -0.0463  0.2885
 3156TIP3   OH230882   6.529   5.436  15.719 -0.2767 -0.2549  0.2529
 3156TIP3    H130883   6.497   5.352  15.687  1.7962 -0.6803 -0.7726
 3156TIP3    H230884   6.483   5.449  15.803 -1.1342 -2.0453  0.0843
 3157TIP3   OH230885   5.699   6.156   4.428  0.0301  0.0198 -0.4981
 3157TIP3    H130886   5.764   6.085   4.436 -0.9473 -0.6921  1.5285
 3157TIP3    H230887   5.694   6.193   4.516 -1.7692  0.5521 -0.8078
 3158TIP3   OH230888   5.082   0.492  12.206  0.0017 -0.1658  0.4645
 3158TIP3    H130889   5.162   0.489  12.154 -0.4057  1.2593 -0.2682
 3158TIP3    H230890   5.043   0.577  12.185 -0.7388 -0.0441  2.2496
 3159TIP3   OH230891   1.168   3.349  15.669 -0.0844 -0.4280  0.1619
 3159TIP3    H130892   1.235   3.312  15.727 -0.1758  0.1428  0.6410
 3159TIP3    H230893   1.213   3.363  15.586  0.1089 -1.0385  0.1593
 3160TIP3   OH230894   1.629   1.571   2.733 -0.1425 -0.3281 -0.3965
 3160TIP3    H130895   1.675   1.655   2.739  0.4661 -0.7223  0.6839
 3160TIP3    H230896   1.579   1.566   2.815  0.6629 -1.4935  0.0402
 3161TIP3   OH230897   0.942   0.532  15.557  0.0687  0.5192  0.1747
 3161TIP3    H130898   0.904   0.620  15.559  0.2120  0.5955 -0.6444
 3161TIP3    H230899   0.893   0.486  15.489 -2.1729 -1.0096  2.7414
 3162TIP3   OH230900   3.879   6.251  14.036  0.4965  0.0134 -0.0004
 3162TIP3    H130901   3.792   6.212  14.042  1.1333 -1.0306  3.7006
 3162TIP3    H230902   3.864   6.345  14.046 -0.2606 -0.1068  0.0056
 3163TIP3   OH230903   2.983   2.966  13.199  0.0337 -0.2572  0.1644
 3163TIP3    H130904   2.910   2.974  13.138 -0.3914  0.0075  0.7137
 3163TIP3    H230905   2.983   2.873  13.224  1.5354 -0.8385 -1.8914
 3164TIP3   OH230906   6.604   3.939  11.362  0.5096 -0.0771 -0.2460
 3164TIP3    H130907   6.584   3.912  11.452  0.4060  0.6071 -0.0573
 3164TIP3    H230908   6.561   3.873  11.307  0.2701 -0.2979  0.2021
 3165TIP3   OH230909   0.125   3.480  15.384 -0.2559 -0.1745 -0.2322
 3165TIP3    H130910   0.094   3.509  15.470 -1.7587  1.2454 -1.2035
 3165TIP3    H230911   0.068   3.406  15.362 -0.6389  0.1982 -0.4998
 3166TIP3   OH230912   3.140   5.550   4.473  0.7662  0.1398  0.1855
 3166TIP3    H130913   3.140   5.492   4.397 -0.8464 -1.0320  1.0629
 3166TIP3    H230914   3.055   5.594   4.471  0.9515  0.5576  0.9799
 3167TIP3   OH230915   5.787   3.069   2.586  0.1299 -0.1030  0.5155
 3167TIP3    H130916   5.799   3.159   2.616 -1.0885  0.3895 -0.4303
 3167TIP3    H230917   5.771   3.077   2.492 -0.8457 -1.2434  0.5746
 3168TIP3   OH230918   0.693   5.669   4.654 -0.3481  0.4764  0.0511
 3168TIP3    H130919   0.708   5.673   4.749 -0.4605  2.1327  0.0156
 3168TIP3    H230920   0.708   5.759   4.624 -0.1983 -0.0696 -1.5201
 3169TIP3   OH230921   3.437   1.842  14.522  0.2964 -0.1704  0.2680
 3169TIP3    H130922   3.499   1.784  14.566 -1.4990 -0.6304  2.2626
 3169TIP3    H230923   3.444   1.819  14.429  1.6637 -1.5776  0.7084
 3170TIP3   OH230924   4.561   2.044   0.871 -0.0620 -0.3453  0.0684
 3170TIP3    H130925   4.590   1.980   0.936 -0.1127 -0.2799  0.1558
 3170TIP3    H230926   4.579   2.129   0.911  0.9467 -0.2955 -0.4687
 3171TIP3   OH230927   0.767   5.277  11.234  0.2572  0.0222 -0.2991
 3171TIP3    H130928   0.759   5.359  11.186 -0.2339  0.6978  0.9096
 3171TIP3    H230929   0.827   5.297  11.306 -1.2398 -0.1714  1.0315
 3172TIP3   OH230930   5.175   3.131   1.723 -0.4118 -0.1025 -0.0885
 3172TIP3    H130931   5.173   3.188   1.800 -0.3666  0.9496 -0.8591
 3172TIP3    H230932   5.100   3.158   1.671 -1.5282 -2.0631  0.4587
 3173TIP3   OH230933   5.656   2.791   3.136  0.1867 -0.1113 -0.1200
 3173TIP3    H130934   5.680   2.864   3.193 -2.2648  1.1141 -0.5924
 3173TIP3    H230935   5.572   2.817   3.098  0.5544 -2.0221 -2.3445
 3174TIP3   OH230936   4.693   0.275   0.911  0.8527 -0.2153  0.0458
 3174TIP3    H130937   4.739   0.333   0.971  1.2910  0.9173 -1.3327
 3174TIP3    H230938   4.762   0.221   0.871  0.6544 -0.4740  0.0505
 3175TIP3   OH230939   3.290   3.130  13.408  0.2911 -0.7930  0.4446
 3175TIP3    H130940   3.289   3.199  13.474  1.5166 -2.0910  1.8706
 3175TIP3    H230941   3.383   3.112  13.394 -0.0092 -1.8378 -0.2541
 3176TIP3   OH230942   2.505   0.351  14.071  0.7634 -0.2666 -0.2961
 3176TIP3    H130943   2.578   0.301  14.106 -0.8881 -3.1216 -0.7745
 3176TIP3    H230944   2.475   0.405  14.144 -0.0573 -3.1202  1.5677
 3177TIP3   OH230945   1.524   2.262  13.855  0.0348  0.2768  0.1336
 3177TIP3    H130946   1.521   2.243  13.761  0.8348 -0.0712  0.1767
 3177TIP3    H230947   1.527   2.357  13.860 -0.4273  0.3120 -0.1801
 3178TIP3   OH230948   2.312   4.128  11.265 -0.7771  0.6764 -0.8492
 3178TIP3    H130949   2.314   4.038  11.233 -0.3311  0.4121 -0.0923
 3178TIP3    H230950   2.387   4.134  11.324 -1.2095  1.3524 -0.3629
 3179TIP3   OH230951   0.233   0.777   3.983  0.0635 -0.3223  0.6000
 3179TIP3    H130952   0.326   0.756   3.988  0.0594 -0.2658  0.9442
 3179TIP3    H230953   0.221   0.809   3.894  0.7540  1.4000  1.0989
 3180TIP3   OH230954   2.166   0.952   0.585 -0.4281  0.1075  0.2545
 3180TIP3    H130955   2.221   0.960   0.663 -0.7197 -1.6837  0.6447
 3180TIP3    H230956   2.144   1.043   0.563  1.7002  0.7799  0.7786
 3181TIP3   OH230957   5.270   5.366  11.398 -0.1594 -0.0332  0.0695
 3181TIP3    H130958   5.342   5.303  11.398  1.8264  2.1775  1.2032
 3181TIP3    H230959   5.200   5.323  11.348  1.8590 -2.2902 -0.8735
 3182TIP3   OH230960   3.622   2.094  11.291 -0.3547  0.6335  0.2878
 3182TIP3    H130961   3.630   2.151  11.368 -2.2163  0.3914  0.6848
 3182TIP3    H230962   3.579   2.015  11.324 -0.9368  0.4194 -0.9534
 3183TIP3   OH230963   1.754   2.097   3.759 -0.4477  0.7588 -0.0460
 3183TIP3    H130964   1.751   2.107   3.664 -3.9455  1.1067  0.0119
 3183TIP3    H230965   1.794   2.179   3.790  0.6679  0.6642 -1.1976
 3184TIP3   OH230966   4.353   0.481  14.356  0.4796 -0.5709  0.1605
 3184TIP3    H130967   4.376   0.571  14.378 -0.7345 -0.1876 -0.0712
 3184TIP3    H230968   4.423   0.452  14.298  0.5815  0.4291 -0.2386
 3185TIP3   OH230969   2.802   4.837   6.040  0.3558  0.1645  0.0549
 3185TIP3    H130970   2.826   4.856   5.949 -0.2526  0.8462  0.0332
 3185TIP3    H230971   2.714   4.874   6.050  0.0007 -0.8019  0.6255
 3186TIP3   OH230972   2.216   1.021   1.690  0.1362 -0.2170 -0.3527
 3186TIP3    H130973   2.245   1.071   1.766  1.3223  1.2107 -1.7167
 3186TIP3    H230974   2.132   1.059   1.666  1.0608  1.2452 -1.4222
 3187TIP3   OH230975   1.765   3.310  12.582 -0.7398  0.0538 -0.1522
 3187TIP3    H130976   1.817   3.236  12.613 -1.1808  0.0898  0.6837
 3187TIP3    H230977   1.689   3.271  12.540 -1.2358  0.0237  0.7470
 3188TIP3   OH230978   0.754   5.907   1.525  0.0987 -0.5657  0.2485
 3188TIP3    H130979   0.825   5.862   1.572 -0.7864 -0.3523  1.8246
 3188TIP3    H230980   0.747   5.992   1.568 -1.6431 -0.8894  0.6199
 3189TIP3   OH230981   1.042   1.860   2.984  0.1712 -0.3515 -0.2253
 3189TIP3    H130982   1.050   1.794   3.053 -2.6362 -2.2982 -1.6623
 3189TIP3    H230983   0.993   1.931   3.024 -1.6795 -1.5830 -0.2194
 3190TIP3   OH230984   5.703   2.461  15.547 -0.3556  0.2274 -0.0614
 3190TIP3    H130985   5.640   2.457  15.619 -0.2935  0.5032  0.0076
 3190TIP3    H230986   5.746   2.545  15.557 -0.0938  0.1119 -0.2113
 3191TIP3   OH230987   3.315   3.986   5.147  0.9552  0.4813 -0.0248
 3191TIP3    H130988   3.319   4.004   5.053  2.8225  0.8453  0.1079
 3191TIP3    H230989   3.231   4.023   5.175  0.6482  0.8859 -1.4461
 3192TIP3   OH230990   4.936   4.170   0.922 -0.2119 -0.0223 -0.1489
 3192TIP3    H130991   4.981   4.251   0.899 -0.1946  0.2141  0.6816
 3192TIP3    H230992   4.846   4.182   0.890  0.3159 -0.5241 -1.8671
 3193TIP3   OH230993   3.788   3.818  11.121  0.2134 -0.0109  0.0562
 3193TIP3    H130994   3.848   3.868  11.177  0.6718 -0.3157 -0.1608
 3193TIP3    H230995   3.845   3.777  11.056 -0.1780 -0.7096  0.1489
 3194TIP3   OH230996   5.577   2.941  12.056  0.3544 -0.1852 -0.6379
 3194TIP3    H130997   5.503   2.974  12.107  1.0701  0.3114  0.1081
 3194TIP3    H230998   5.569   2.846  12.060  1.4848 -0.1984  2.0743
 3195TIP3   OH230999   0.747   1.758  15.970 -0.4314 -0.9321 -0.2000
 3195TIP3    H131000   0.665   1.807  15.956  0.2928  0.4818  0.3617
 3195TIP3    H231001   0.718   1.671  15.998 -1.7837  0.2761  2.4064
 3196TIP3   OH231002   0.155   0.300   3.085  0.5857 -0.0828  0.2143
 3196TIP3    H131003   0.159   0.205   3.099 -2.0539 -0.1909  0.5133
 3196TIP3    H231004   0.081   0.312   3.026 -1.6151  2.0840  3.2626
 3197TIP3   OH231005   5.723   1.330  11.249 -0.3898  0.1476  0.2442
 3197TIP3    H131006   5.742   1.368  11.164  1.1800  0.0279  0.5336
 3197TIP3    H231007   5.677   1.249  11.230  0.2360 -0.0313 -0.5021
 3198TIP3   OH231008   3.255   2.314   4.627 -0.1789 -0.3670 -0.3983
 3198TIP3    H131009   3.264   2.265   4.708  0.9731  1.1494  0.4349
 3198TIP3    H231010   3.343   2.316   4.590 -0.7324 -1.1999 -1.7801
 3199TIP3   OH231011   5.980   2.908   2.719  0.2136  0.0370 -0.3892
 3199TIP3    H131012   5.927   2.828   2.717  0.3835 -0.0847 -0.0593
 3199TIP3    H231013   5.925   2.973   2.676 -0.5870  0.1356  0.7394
 3200TIP3   OH231014   1.610   0.357  15.031  0.0696 -0.3691  0.4127
 3200TIP3    H131015   1.638   0.285  14.975  2.1077  0.1131  0.7887
 3200TIP3    H231016   1.578   0.314  15.111 -0.9663 -0.9441 -0.2931
 3201TIP3   OH231017   2.623   1.217   6.639 -0.0781 -0.1423  0.3141
 3201TIP3    H131018   2.709   1.232   6.678 -0.0992 -1.0829  0.7480
 3201TIP3    H231019   2.640   1.210   6.545  0.3737 -0.6916  0.4369
 3202TIP3   OH231020   0.141   4.696  15.400 -0.2988  0.5016 -0.3113
 3202TIP3    H131021   0.218   4.659  15.357 -0.5414  0.4388 -0.6947
 3202TIP3    H231022   0.141   4.788  15.374 -0.0492  0.6239  0.1277
 3203TIP3   OH231023   5.147   1.794   4.348 -0.0787  0.4974 -0.4290
 3203TIP3    H131024   5.179   1.853   4.279  0.8552  0.0176 -0.4174
 3203TIP3    H231025   5.219   1.791   4.412  0.0693 -0.9750 -0.6418
 3204TIP3   OH231026   2.176   4.545  16.376  0.3785  0.3701  0.4067
 3204TIP3    H131027   2.138   4.620  16.332 -1.2340 -0.2136  0.7772
 3204TIP3    H231028   2.114   4.473  16.361  1.2417 -0.5590  1.1443
 3205TIP3   OH231029   6.498   6.098  13.479 -0.6982 -0.7088  0.4708
 3205TIP3    H131030   6.467   6.008  13.490  0.3687 -1.2163 -0.5226
 3205TIP3    H231031   6.440   6.136  13.414  0.6619 -1.6454 -1.3606
 3206TIP3   OH231032   5.464   5.764  14.691 -0.0563  0.1222 -0.6984
 3206TIP3    H131033   5.396   5.832  14.687 -0.5072 -0.2581  0.2809
 3206TIP3    H231034   5.443   5.714  14.770  1.7763  0.4308  0.0142
 3207TIP3   OH231035   4.642   1.411   0.921 -0.1533  0.5563  0.1380
 3207TIP3    H131036   4.580   1.391   0.991 -0.4547  1.4843  0.1431
 3207TIP3    H231037   4.587   1.439   0.848  0.1218 -0.8319 -0.6406
 3208TIP3   OH231038   3.397   1.149   1.219 -0.3537 -0.0771  0.2691
 3208TIP3    H131039   3.334   1.083   1.191  0.8799 -0.4501 -1.7660
 3208TIP3    H231040   3.479   1.101   1.233  0.7483  1.0431 -1.9510
 3209TIP3   OH231041   5.322   2.652   3.209 -0.4178  0.2403  0.7322
 3209TIP3    H131042   5.371   2.569   3.212 -2.3585 -0.9060  2.0767
 3209TIP3    H231043   5.248   2.633   3.152 -0.2337  1.4503  0.0715
 3210TIP3   OH231044   1.669   2.685  13.974 -0.5314  0.3484  0.5268
 3210TIP3    H131045   1.673   2.733  13.892 -0.3852  0.7201  0.7537
 3210TIP3    H231046   1.746   2.629  13.973 -1.3945 -0.8775 -0.3564
 3211TIP3   OH231047   5.166   6.321   0.369  0.1973  0.3166  0.2892
 3211TIP3    H131048   5.232   6.373   0.323  1.0872 -2.5101 -1.7128
 3211TIP3    H231049   5.101   6.300   0.303  0.1789 -1.6614  0.8942
 3212TIP3   OH231050   4.926   6.648   5.884  0.3808  0.2971  0.5757
 3212TIP3    H131051   4.883   6.634   5.968 -0.5664  0.2689  0.0900
 3212TIP3    H231052   5.019   6.639   5.903  0.1186 -0.6792  1.4320
 3213TIP3   OH231053   2.555   5.019  15.624 -0.7351  0.0335  0.3217
 3213TIP3    H131054   2.605   5.043  15.546  0.4080  0.6384  1.2318
 3213TIP3    H231055   2.585   5.080  15.691 -0.5452 -1.5019  1.6616
 3214TIP3   OH231056   0.601   1.553  16.108  0.5218 -0.2710 -0.1016
 3214TIP3    H131057   0.626   1.477  16.055 -2.5246 -3.0041  2.1624
 3214TIP3    H231058   0.654   1.545  16.187  2.0945  1.5209 -0.9228
 3215TIP3   OH231059   2.108   5.658  14.433  0.9043  0.2297 -0.5324
 3215TIP3    H131060   2.063   5.710  14.365 -1.1315 -2.2382 -1.1501
 3215TIP3    H231061   2.190   5.704  14.448  0.2074  2.3012 -2.7806
 3216TIP3   OH231062   1.578   3.115  12.743 -0.3634 -0.9304  0.0151
 3216TIP3    H131063   1.591   3.065  12.824 -2.2423  0.3327  1.1506
 3216TIP3    H231064   1.616   3.201  12.761  0.6409 -1.1536 -1.0261
 3217TIP3   OH231065   2.010   5.920  11.943 -0.6342 -0.8616  0.7600
 3217TIP3    H131066   1.957   5.997  11.922  1.7335  0.8623  0.8760
 3217TIP3    H231067   1.956   5.871  12.005 -1.7328  1.2934  1.5877
 3218TIP3   OH231068   5.781   5.447   2.603  0.2424  0.4169  0.1715
 3218TIP3    H131069   5.800   5.435   2.696  0.5280 -1.0989 -0.0645
 3218TIP3    H231070   5.705   5.392   2.586  2.2837 -2.1231 -1.2030
 3219TIP3   OH231071   1.733   1.863   2.453  0.3979 -0.0032  0.3967
 3219TIP3    H131072   1.753   1.905   2.370 -2.0155 -0.4945 -0.4841
 3219TIP3    H231073   1.690   1.781   2.429  1.4419 -1.0768  2.1223
 3220TIP3   OH231074   4.610   5.756   5.256  0.4610  0.4444  0.4834
 3220TIP3    H131075   4.551   5.829   5.235  1.1324  1.1659  1.0724
 3220TIP3    H231076   4.600   5.695   5.183  2.8652  2.9845 -2.1161
 3221TIP3   OH231077   1.535   0.665   5.960  0.0980  0.5150  0.4049
 3221TIP3    H131078   1.524   0.711   6.043  1.8186  0.0173  0.9477
 3221TIP3    H231079   1.629   0.672   5.941 -0.3247  0.8670 -1.6521
 3222TIP3   OH231080   2.792   3.499   0.100 -0.5107  0.0829 -0.1617
 3222TIP3    H131081   2.799   3.508   0.005  0.0437  1.5276  0.0165
 3222TIP3    H231082   2.882   3.489   0.130 -0.7280 -1.0452  0.1673
 3223TIP3   OH231083   1.874   1.408   2.932 -0.0808  0.0017  0.0460
 3223TIP3    H131084   1.887   1.392   2.838 -2.6479  1.1030 -0.5219
 3223TIP3    H231085   1.957   1.381   2.972  1.7427  1.2209 -2.7444
 3224TIP3   OH231086   2.171   3.122   1.049  0.2280  0.2901  0.2568
 3224TIP3    H131087   2.171   3.080   0.963 -1.9783 -0.0954  0.4048
 3224TIP3    H231088   2.230   3.069   1.102  2.6099  1.2667 -1.3370
 3225TIP3   OH231089   2.802   5.453   2.134 -0.2397  0.0176  0.2607
 3225TIP3    H131090   2.867   5.521   2.150 -0.2196  0.0345  0.1047
 3225TIP3    H231091   2.854   5.377   2.108 -0.2258 -0.2034  0.9115
 3226TIP3   OH231092   2.775   3.620   0.711 -0.2312 -0.5056  0.1148
 3226TIP3    H131093   2.716   3.675   0.660 -1.5303 -2.2711 -0.3305
 3226TIP3    H231094   2.718   3.557   0.755  1.3456 -2.6324 -0.7832
 3227TIP3   OH231095   6.095   4.397   3.181 -0.9146 -0.0470 -0.0863
 3227TIP3    H131096   6.110   4.426   3.271 -0.4691  0.6296 -0.3729
 3227TIP3    H231097   6.002   4.374   3.178 -1.0134  0.2729  0.4510
 3228TIP3   OH231098   5.366   2.479   0.422  0.3680 -0.0382  0.0965
 3228TIP3    H131099   5.422   2.410   0.458 -0.0850  0.5142  1.9297
 3228TIP3    H231100   5.392   2.558   0.469 -1.2700  0.4124  0.2803
 3229TIP3   OH231101   2.433   0.960  15.970  0.1488 -0.5398  0.2611
 3229TIP3    H131102   2.505   0.916  15.924 -0.9460 -1.1098 -0.9075
 3229TIP3    H231103   2.395   1.020  15.906 -2.2898 -2.3716 -0.0892
 3230TIP3   OH231104   2.131   0.852  15.508  0.0697  0.3054  0.1775
 3230TIP3    H131105   2.164   0.860  15.598 -0.9486  1.3738  0.4634
 3230TIP3    H231106   2.170   0.927  15.462  0.4432 -0.1371 -0.2345
 3231TIP3   OH231107   1.060   4.741  16.973  0.2727 -0.9974  0.4975
 3231TIP3    H131108   1.054   4.827  17.015  0.1636  0.2103 -1.9079
 3231TIP3    H231109   1.050   4.679  17.045 -0.9354  0.9925  2.1269
 3232TIP3   OH231110   3.509   0.672   4.305  0.4297 -0.0160  0.3541
 3232TIP3    H131111   3.441   0.620   4.348  0.1808 -0.8882 -1.0809
 3232TIP3    H231112   3.460   0.738   4.255  0.5509 -1.6219 -1.9495
 3233TIP3   OH231113   1.563   3.028  12.291  0.1825 -0.0612 -0.0747
 3233TIP3    H131114   1.618   2.971  12.238 -0.8105 -0.5757 -0.5737
 3233TIP3    H231115   1.569   2.991  12.379  1.3142  0.4036  0.0477
 3234TIP3   OH231116   5.776   2.032   3.075 -0.0419  0.1130  0.2021
 3234TIP3    H131117   5.871   2.028   3.064 -0.3267 -0.5478 -2.5905
 3234TIP3    H231118   5.755   1.959   3.133  1.1328  0.1188  0.6455
 3235TIP3   OH231119   5.038   0.427  15.874  0.2421 -0.1802  0.4958
 3235TIP3    H131120   5.023   0.335  15.899 -1.1432 -0.0342  0.2689
 3235TIP3    H231121   4.963   0.474  15.912 -2.3114 -0.0321 -4.3776
 3236TIP3   OH231122   3.945   2.989  13.896  0.8625  0.1708 -0.0421
 3236TIP3    H131123   3.862   2.964  13.857  1.0386 -1.8217  0.8138
 3236TIP3    H231124   3.922   3.049  13.966  0.2974  1.0765 -0.9937
 3237TIP3   OH231125   5.738   2.845  10.955 -0.3032  0.6056  0.4576
 3237TIP3    H131126   5.734   2.757  10.992  0.1683  0.6219  0.5424
 3237TIP3    H231127   5.697   2.836  10.869 -0.6080  0.3865  0.6231
 3238TIP3   OH231128   2.997   0.895  16.976  0.4271  0.1867 -0.0779
 3238TIP3    H131129   3.022   0.878  16.885  1.7672 -2.2433  0.6948
 3238TIP3    H231130   2.963   0.811  17.008 -1.3818  1.3954  1.2491
 3239TIP3   OH231131   5.334   3.019  16.930  0.1248 -0.2391 -0.7004
 3239TIP3    H131132   5.259   2.961  16.910 -0.0749  0.4807 -2.1378
 3239TIP3    H231133   5.327   3.089  16.866  1.0397  0.7757  0.3014
 3240TIP3   OH231134   5.496   4.096   1.667 -0.4778  0.2472  0.4259
 3240TIP3    H131135   5.567   4.109   1.729  0.3048  0.9213 -0.6073
 3240TIP3    H231136   5.516   4.153   1.593  0.1571 -2.6570 -1.7749
 3241TIP3   OH231137   4.440   4.362  15.126  0.7067 -0.0811 -0.0913
 3241TIP3    H131138   4.509   4.417  15.088 -0.1686  1.4424  0.4781
 3241TIP3    H231139   4.416   4.302  15.055  4.9144 -2.9089  0.7356
 3242TIP3   OH231140   5.556   4.405  13.078  0.1118  0.3761  0.2421
 3242TIP3    H131141   5.529   4.491  13.048  0.1706  0.4639  0.4369
 3242TIP3    H231142   5.570   4.416  13.173 -2.0396 -0.3757  0.6710
 3243TIP3   OH231143   4.973   6.323   4.490  1.0460  0.0449 -0.2657
 3243TIP3    H131144   5.067   6.304   4.496  0.9547 -0.6058 -0.8710
 3243TIP3    H231145   4.966   6.416   4.512  1.9210  0.2842 -0.9648
 3244TIP3   OH231146   2.678   2.197   6.483 -0.6021  0.5488 -0.0025
 3244TIP3    H131147   2.608   2.135   6.460 -0.3271 -0.1587  1.0575
 3244TIP3    H231148   2.635   2.262   6.538 -0.0273 -0.9753  2.2979
 3245TIP3   OH231149   3.199   3.867  15.519  0.1976 -0.2892 -0.2129
 3245TIP3    H131150   3.256   3.812  15.572  0.3707  0.2134  0.1246
 3245TIP3    H231151   3.205   3.830  15.430 -0.5065 -1.4598  0.2174
 3246TIP3   OH231152   4.792   3.976  12.843 -0.3049  0.0285  0.3012
 3246TIP3    H131153   4.801   3.882  12.827  1.8060  0.4651 -1.3034
 3246TIP3    H231154   4.735   4.008  12.772 -0.4184  0.0870  0.4174
 3247TIP3   OH231155   6.051   6.765   0.660 -0.1015 -0.0566 -0.3431
 3247TIP3    H131156   6.099   6.723   0.731 -0.6820  0.6391  0.4614
 3247TIP3    H231157   6.091   6.851   0.650  0.3215 -0.3459 -1.2139
 3248TIP3   OH231158   6.413   5.954   5.732 -0.0286  0.4058 -0.2062
 3248TIP3    H131159   6.362   5.873   5.728  1.0226 -0.2606 -0.3645
 3248TIP3    H231160   6.389   5.994   5.816  1.3313 -1.3483  1.0404
 3249TIP3   OH231161   6.667   4.183  15.570 -0.1077  0.1882 -0.3310
 3249TIP3    H131162   6.578   4.158  15.545 -0.1989 -0.1478  0.3304
 3249TIP3    H231163   6.721   4.155  15.497 -0.7252  1.7244 -1.4164
 3250TIP3   OH231164   2.065   5.747  11.485 -0.0166 -0.2732 -0.9391
 3250TIP3    H131165   2.160   5.732  11.489 -0.1138 -0.8597 -0.9336
 3250TIP3    H231166   2.046   5.795  11.565  0.1608 -0.7625 -0.6032
 3251TIP3   OH231167   3.128   5.382   4.218 -0.3803  0.0473 -0.1718
 3251TIP3    H131168   3.159   5.424   4.138 -0.1974 -0.1157 -0.1864
 3251TIP3    H231169   3.058   5.325   4.190 -0.8495  0.5864 -0.1093
 3252TIP3   OH231170   1.246   3.060  16.208 -0.2565  0.3440 -0.3091
 3252TIP3    H131171   1.207   2.980  16.173 -0.8801  0.2735  0.5495
 3252TIP3    H231172   1.325   3.031  16.254 -0.1305  0.2988 -0.5499
 3253TIP3   OH231173   5.184   5.360   5.345  0.0187  0.4319 -0.5961
 3253TIP3    H131174   5.123   5.386   5.276  0.7344 -1.4132 -1.9827
 3253TIP3    H231175   5.130   5.317   5.411 -0.8920  3.6207  0.7867
 3254TIP3   OH231176   2.963   2.866   5.531  0.0882 -0.3714  0.1016
 3254TIP3    H131177   2.951   2.801   5.461  0.7209  0.8944 -1.2069
 3254TIP3    H231178   2.901   2.840   5.599  0.9443 -2.8689 -0.0205
 3255TIP3   OH231179   1.776   3.100   4.635  0.0749  0.8355 -0.7413
 3255TIP3    H131180   1.726   3.082   4.715  0.6586  1.1282 -0.2975
 3255TIP3    H231181   1.868   3.091   4.663  0.2389 -1.9085 -2.0696
 3256TIP3   OH231182   2.685   3.725  12.741 -0.1092 -0.7815  0.2892
 3256TIP3    H131183   2.633   3.683  12.673  2.3962  0.1993 -2.2837
 3256TIP3    H231184   2.654   3.816  12.742  0.3842 -0.6143 -0.0289
 3257TIP3   OH231185   5.431   0.239  15.507 -0.2175  0.1746 -0.0813
 3257TIP3    H131186   5.478   0.318  15.479 -0.4332 -0.0660 -1.1369
 3257TIP3    H231187   5.391   0.263  15.591  0.0652  1.0486 -0.1919
 3258TIP3   OH231188   4.203   3.930  13.155 -0.0388 -0.0538 -0.1083
 3258TIP3    H131189   4.279   3.878  13.182  1.0760  1.5683 -0.0528
 3258TIP3    H231190   4.239   4.016  13.136 -1.6540  0.3328 -1.5068
 3259TIP3   OH231191   0.692   0.192  14.953  0.3254  0.2674 -0.0004
 3259TIP3    H131192   0.689   0.230  15.041  2.0722  1.8728 -0.5936
 3259TIP3    H231193   0.783   0.204  14.925  0.7267 -3.5949 -0.5880
 3260TIP3   OH231194   3.622   6.736   3.954 -0.0567  0.6866  0.0310
 3260TIP3    H131195   3.688   6.703   3.892 -0.8193 -0.8256 -0.0024
 3260TIP3    H231196   3.571   6.658   3.978 -0.9297  1.5903  1.1520
 3261TIP3   OH231197   3.287   2.479  15.660  0.3261  0.5218 -0.0954
 3261TIP3    H131198   3.214   2.470  15.600  0.1679 -1.2031  0.3248
 3261TIP3    H231199   3.365   2.476  15.604  0.1829 -1.0905 -0.2266
 3262TIP3   OH231200   5.516   5.054   2.481 -0.4592 -0.1682 -0.2117
 3262TIP3    H131201   5.556   4.981   2.529 -0.4766 -0.0333  0.0088
 3262TIP3    H231202   5.483   5.014   2.400  0.3530 -0.2265 -0.5154
 3263TIP3   OH231203   2.189   1.139   5.349 -0.3365 -0.4391 -0.2043
 3263TIP3    H131204   2.100   1.111   5.370  0.1562 -1.4964  0.5185
 3263TIP3    H231205   2.199   1.223   5.394 -1.0798 -0.1408 -0.5839
 3264TIP3   OH231206   5.120   6.171   4.822  0.4338 -0.0927  0.1227
 3264TIP3    H131207   5.110   6.115   4.899 -2.4091 -1.9442 -1.5315
 3264TIP3    H231208   5.137   6.258   4.858  1.9205 -1.4381  2.7817
 3265TIP3   OH231209   2.063   1.241   4.351 -0.3746 -0.6372  0.1488
 3265TIP3    H131210   2.013   1.228   4.431  0.9838  0.4329  1.2102
 3265TIP3    H231211   1.999   1.234   4.281 -2.2961  2.1253  1.5356
 3266TIP3   OH231212   3.937   1.176  14.503  0.1306  0.2191 -0.4164
 3266TIP3    H131213   3.866   1.185  14.440  1.7070  1.3910 -2.0960
 3266TIP3    H231214   4.015   1.161  14.449  1.0197 -2.0387  1.4258
 3267TIP3   OH231215   5.608   1.389  16.886  0.0776  0.0851  0.0260
 3267TIP3    H131216   5.684   1.331  16.882 -1.0822 -1.4468 -0.1624
 3267TIP3    H231217   5.633   1.465  16.834  1.4586 -0.4141 -0.0674
 3268TIP3   OH231218   4.936   1.675  11.736 -0.2151 -0.4972 -0.1122
 3268TIP3    H131219   4.864   1.735  11.718  0.4324  0.6460  1.0411
 3268TIP3    H231220   5.013   1.718  11.700  0.1557 -0.9514  0.1321
 3269TIP3   OH231221   0.945   2.440  14.677 -0.0844  0.5267  0.0247
 3269TIP3    H131222   1.010   2.377  14.645 -2.6958 -2.7000  0.7946
 3269TIP3    H231223   0.975   2.464  14.764  0.3579 -0.5294  0.1673
 3270TIP3   OH231224   0.996   3.632  11.449  0.4461  0.4785 -0.2199
 3270TIP3    H131225   0.984   3.722  11.478 -2.3432 -0.5682  2.0975
 3270TIP3    H231226   0.928   3.620  11.382  1.8466  0.5304 -1.6907
 3271TIP3   OH231227   2.046   3.229   2.081 -0.6818 -0.0701  0.2721
 3271TIP3    H131228   1.979   3.175   2.038  1.2960 -2.7294  0.3842
 3271TIP3    H231229   2.111   3.246   2.013 -0.1928  0.2568  0.8148
 3272TIP3   OH231230   2.895   2.911   3.042 -0.4593 -0.1990 -0.0986
 3272TIP3    H131231   2.941   2.835   3.078 -1.6155 -0.4062  1.0032
 3272TIP3    H231232   2.825   2.873   2.988 -1.2984  0.0458  0.7889
 3273TIP3   OH231233   3.221   0.769  14.259 -0.5091 -0.5776 -0.3591
 3273TIP3    H131234   3.193   0.831  14.327 -0.3766 -0.9754  0.0657
 3273TIP3    H231235   3.167   0.691  14.274  0.4242 -1.1565  0.1342
 3274TIP3   OH231236   2.468   2.750   4.457 -0.0971  0.3644 -0.3569
 3274TIP3    H131237   2.395   2.768   4.398  0.5808  1.8326 -0.7781
 3274TIP3    H231238   2.507   2.836   4.474  1.2260 -0.3332  0.2490
 3275TIP3   OH231239   6.627   3.555   5.738 -0.2475  0.1635 -0.2443
 3275TIP3    H131240   6.635   3.531   5.646  0.2491 -1.4076  0.1911
 3275TIP3    H231241   6.691   3.499   5.782 -1.2305  0.1379  1.1764
 3276TIP3   OH231242   3.349   3.044   0.569 -0.3483 -0.5128 -0.5373
 3276TIP3    H131243   3.337   2.961   0.616 -1.0599  0.3606  0.8633
 3276TIP3    H231244   3.331   3.111   0.635  0.1860  0.7554 -1.6723
 3277TIP3   OH231245   6.182   1.787  15.679 -0.0967  0.6175  0.2425
 3277TIP3    H131246   6.245   1.787  15.751  0.1426  3.2009  0.0770
 3277TIP3    H231247   6.201   1.706  15.630  1.1262 -0.0890  1.8511
 3278TIP3   OH231248   4.095   0.597  12.326  0.1544  0.0302  0.1278
 3278TIP3    H131249   4.145   0.532  12.277 -0.4437 -0.2097 -0.1707
 3278TIP3    H231250   4.095   0.565  12.417  0.7573  0.1672  0.1757
 3279TIP3   OH231251   1.416   5.585   4.247  0.5100 -0.1578 -0.3626
 3279TIP3    H131252   1.411   5.559   4.155 -1.1965  0.9107 -0.6009
 3279TIP3    H231253   1.381   5.511   4.296  1.7164 -0.8534 -0.5485
 3280TIP3   OH231254   3.922   0.905  11.490  0.1985  0.2233  0.5074
 3280TIP3    H131255   3.966   0.825  11.516 -0.3148  0.2730  1.5656
 3280TIP3    H231256   3.954   0.923  11.402  0.4861 -1.0172  0.3550
 3281TIP3   OH231257   5.277   5.914   4.744  0.0438 -0.5464  0.1853
 3281TIP3    H131258   5.237   5.836   4.782 -0.0864 -0.8086 -0.4743
 3281TIP3    H231259   5.228   5.987   4.782 -2.8305 -0.9323 -2.5402
 3282TIP3   OH231260   6.738   5.139  16.515 -0.1079  0.1912  0.3426
 3282TIP3    H131261   6.690   5.168  16.592  2.6512 -0.8219  2.5630
 3282TIP3    H231262   6.809   5.202  16.506  0.5205 -0.6120 -0.4031
 3283TIP3   OH231263   6.317   3.434   3.852 -0.3582 -0.0601  0.4331
 3283TIP3    H131264   6.366   3.452   3.772  2.0577  0.4492  1.9828
 3283TIP3    H231265   6.226   3.428   3.823  0.2963  1.5658 -2.1383
 3284TIP3   OH231266   0.346   4.125   1.998 -0.1124 -0.3546  0.1774
 3284TIP3    H131267   0.359   4.038   2.037  0.9885 -0.7855 -1.0984
 3284TIP3    H231268   0.387   4.119   1.912  0.6646  1.6694  0.3673
 3285TIP3   OH231269   1.676   6.719   1.546  0.2690 -0.2529 -0.0711
 3285TIP3    H131270   1.625   6.732   1.465 -0.8164 -1.9695  0.3044
 3285TIP3    H231271   1.764   6.750   1.524 -0.6366  1.7360 -1.0852
 3286TIP3   OH231272   1.673   0.378  11.457  0.2083 -0.5362 -0.7288
 3286TIP3    H131273   1.600   0.438  11.441 -0.8856 -1.6084  0.1883
 3286TIP3    H231274   1.692   0.340  11.371 -0.1477 -0.0564 -1.0184
 3287TIP3   OH231275   6.164   5.382  10.765 -0.1398  0.1401 -0.1291
 3287TIP3    H131276   6.181   5.378  10.671 -1.6719 -0.0968 -0.4081
 3287TIP3    H231277   6.249   5.402  10.804  0.6673 -0.5463 -1.5007
 3288TIP3   OH231278   5.728   2.395   3.453  0.2547 -0.3846  0.1996
 3288TIP3    H131279   5.777   2.352   3.523  1.4703  0.0717 -0.3423
 3288TIP3    H231280   5.757   2.487   3.457 -0.8310 -0.0315  0.0900
 3289TIP3   OH231281   4.062   0.401   1.631 -0.1570 -0.8016  0.2886
 3289TIP3    H131282   3.980   0.356   1.612 -0.7772 -0.3612  1.7855
 3289TIP3    H231283   4.035   0.476   1.684  1.0346  0.3601 -0.7208
 3290TIP3   OH231284   3.584   2.207   2.312  0.2053  0.4312  0.4370
 3290TIP3    H131285   3.628   2.290   2.291 -0.1638 -0.0287 -2.3136
 3290TIP3    H231286   3.655   2.149   2.341  0.7901  0.9965  0.1415
 3291TIP3   OH231287   3.087   1.576   0.956  0.3278  0.3275  0.4219
 3291TIP3    H131288   3.009   1.553   0.906 -0.9885  2.7320  1.2520
 3291TIP3    H231289   3.155   1.516   0.925 -1.5505 -1.0364 -1.1476
 3292TIP3   OH231290   0.468   3.765  14.554  0.2648  0.5781 -0.1797
 3292TIP3    H131291   0.487   3.858  14.568 -0.0413  0.4377  1.3155
 3292TIP3    H231292   0.407   3.743  14.625  0.6375 -0.8541 -0.2924
 3293TIP3   OH231293   4.027   5.312   1.254 -0.3273 -0.3697 -0.2948
 3293TIP3    H131294   4.092   5.321   1.323  0.4096 -0.9188 -0.9098
 3293TIP3    H231295   4.012   5.217   1.247 -2.2922 -0.1690  0.8618
 3294TIP3   OH231296   4.353   5.034   5.261  0.2264 -0.1941  0.4504
 3294TIP3    H131297   4.403   5.088   5.201 -0.7777 -0.0080 -0.2384
 3294TIP3    H231298   4.373   4.944   5.236 -0.4996 -0.1156 -0.4377
 3295TIP3   OH231299   4.785   2.201   3.670 -0.1743 -0.0750  0.0662
 3295TIP3    H131300   4.850   2.234   3.608 -1.9954  0.6748 -1.4829
 3295TIP3    H231301   4.837   2.157   3.737  1.8944 -0.0436 -1.4578
 3296TIP3   OH231302   2.154   3.892  14.098  0.4038 -0.5268  0.7034
 3296TIP3    H131303   2.205   3.881  14.179 -2.0750 -0.4179  2.3228
 3296TIP3    H231304   2.094   3.818  14.097 -0.6672  0.3469 -0.2228
 3297TIP3   OH231305   2.034   6.505  11.230  0.0771  0.1101  0.0515
 3297TIP3    H131306   1.947   6.501  11.190 -0.1175 -0.3051  0.5149
 3297TIP3    H231307   2.027   6.450  11.308  0.9445 -0.4766 -0.2745
 3298TIP3   OH231308   4.007   3.610  16.305  0.0905 -0.2073  0.0874
 3298TIP3    H131309   3.947   3.583  16.235  0.4990  1.5006 -0.9416
 3298TIP3    H231310   3.950   3.649  16.371 -0.1402 -0.3765 -0.0088
 3299TIP3   OH231311   2.583   2.980   4.355  0.5512  0.2637 -0.1802
 3299TIP3    H131312   2.500   3.025   4.340  0.6277  0.4405 -0.0788
 3299TIP3    H231313   2.647   3.051   4.364  0.6898  0.1311 -0.1224
 3300TIP3   OH231314   0.019   4.591   2.280 -0.8446  0.0437  0.0525
 3300TIP3    H131315  -0.076   4.588   2.277 -0.7620 -1.2519 -1.7461
 3300TIP3    H231316   0.046   4.500   2.286  0.2887  0.4266  1.1410
 3301TIP3   OH231317   3.310   3.456  12.054 -0.1257  0.0694  0.0821
 3301TIP3    H131318   3.224   3.485  12.023 -0.5359 -0.5534  0.6177
 3301TIP3    H231319   3.345   3.405  11.981 -0.3722  0.0223 -0.0061
 3302TIP3   OH231320   1.147   3.692   1.569 -0.1082 -0.4047  0.3219
 3302TIP3    H131321   1.233   3.658   1.543 -0.5647 -0.9999 -0.4635
 3302TIP3    H231322   1.155   3.787   1.560 -0.3022 -0.5922 -2.3010
 3303TIP3   OH231323   1.310   2.537   0.169 -0.0197  0.1022 -0.0497
 3303TIP3    H131324   1.384   2.484   0.198 -0.1255  0.2889  0.5508
 3303TIP3    H231325   1.260   2.478   0.112  0.4045 -0.1303 -0.1863
 3304TIP3   OH231326   4.227   4.741  15.868  0.3320 -0.0311 -0.0431
 3304TIP3    H131327   4.184   4.775  15.790 -0.2287  0.3938  0.4461
 3304TIP3    H231328   4.175   4.775  15.941 -0.1983 -1.8494  0.4567
 3305TIP3   OH231329   5.541   1.435   0.484  0.2583 -0.1232 -0.9258
 3305TIP3    H131330   5.606   1.377   0.445  1.2741  0.4838 -0.1446
 3305TIP3    H231331   5.519   1.496   0.413 -0.6044 -1.2449 -1.6604
 3306TIP3   OH231332   0.354   0.721  10.655 -0.0660 -0.0302 -0.4237
 3306TIP3    H131333   0.376   0.656  10.589  0.1137  1.2296 -1.6217
 3306TIP3    H231334   0.436   0.770  10.669 -0.6890  1.1679 -0.9278
 3307TIP3   OH231335   0.185   5.968   1.075  0.7420 -0.5372  0.2905
 3307TIP3    H131336   0.152   5.910   1.143  2.0073 -1.4002  0.1661
 3307TIP3    H231337   0.143   5.937   0.995  0.3033 -0.3651  0.4485
 3308TIP3   OH231338   5.734   0.951  11.855 -0.3677  0.4034 -0.2677
 3308TIP3    H131339   5.741   0.859  11.829  2.5021  0.1848  1.0130
 3308TIP3    H231340   5.753   1.000  11.775 -0.9964 -0.1181 -0.7426
 3309TIP3   OH231341   2.718   0.020   2.163 -0.1224 -0.0162  0.0635
 3309TIP3    H131342   2.634   0.008   2.205 -0.1387 -0.3904 -0.0782
 3309TIP3    H231343   2.697   0.062   2.079 -0.0665  0.9811  0.5418
 3310TIP3   OH231344   0.307   5.901  14.285 -0.0157 -0.6095  0.7841
 3310TIP3    H131345   0.244   5.951  14.233 -0.2996 -0.1377  1.5832
 3310TIP3    H231346   0.353   5.967  14.337  0.1977 -1.0938  1.2055
 3311TIP3   OH231347   5.484   6.764  12.742  0.1588 -0.2795 -0.4187
 3311TIP3    H131348   5.468   6.677  12.779  0.8335 -0.8630 -1.4643
 3311TIP3    H231349   5.512   6.747  12.652  1.6151  0.9453 -0.2144
 3312TIP3   OH231350   3.773   5.745   5.819  0.5931  0.0914 -0.4519
 3312TIP3    H131351   3.784   5.732   5.914  0.2996 -0.6791 -0.5152
 3312TIP3    H231352   3.760   5.656   5.785 -0.1183  0.4420 -1.1045
 3313TIP3   OH231353   5.606   4.880  15.149  0.1076 -0.2615 -0.1909
 3313TIP3    H131354   5.632   4.965  15.185  2.4423 -0.6143 -1.0232
 3313TIP3    H231355   5.664   4.866  15.074 -0.2301 -2.6239 -0.0446
 3314TIP3   OH231356   2.750   4.564   4.171 -0.0235  0.6279  0.1131
 3314TIP3    H131357   2.780   4.627   4.237  1.7866  0.6357 -0.6900
 3314TIP3    H231358   2.804   4.486   4.186  0.4738  0.6665 -1.4274
 3315TIP3   OH231359   5.021   3.210  14.008  0.4048  0.1678 -0.3117
 3315TIP3    H131360   5.032   3.157  14.086  0.8068  0.6287 -0.0540
 3315TIP3    H231361   4.966   3.283  14.036  0.5698  0.3485 -0.4542
 3316TIP3   OH231362   5.308   5.723  11.875  0.0888  0.2836  0.6713
 3316TIP3    H131363   5.234   5.696  11.820 -0.6399  0.0789  1.7452
 3316TIP3    H231364   5.363   5.776  11.817  0.0600 -1.1084 -0.6579
 3317TIP3   OH231365   1.265   5.364   2.966 -0.3375  0.0539 -0.4966
 3317TIP3    H131366   1.242   5.439   3.022  2.2345  1.1294 -0.8275
 3317TIP3    H231367   1.297   5.298   3.027  1.4438  0.8275 -0.5742
 3318TIP3   OH231368   4.247   4.012  11.506  0.5839  0.1465  0.2396
 3318TIP3    H131369   4.242   4.011  11.410 -2.2380 -1.1519  0.3430
 3318TIP3    H231370   4.191   4.085  11.532  1.6520  0.7346  0.9091
 3319TIP3   OH231371   1.281   2.878   2.733 -0.5194  0.5021  0.9618
 3319TIP3    H131372   1.332   2.830   2.798 -0.5645  1.4049  1.6809
 3319TIP3    H231373   1.295   2.830   2.651 -0.9351 -0.9746  1.7459
 3320TIP3   OH231374   6.010   3.584   0.016 -0.4290 -0.5588 -0.1370
 3320TIP3    H131375   6.042   3.613  -0.069  0.1528  0.2725  0.3652
 3320TIP3    H231376   5.956   3.656   0.047 -0.0322 -0.5471  0.5280
 3321TIP3   OH231377   5.884   4.246  13.522  0.1324  0.0224 -0.0186
 3321TIP3    H131378   5.969   4.203  13.533 -0.0743 -0.1549  0.9758
 3321TIP3    H231379   5.859   4.272  13.611 -0.3924  0.9622 -0.4313
 3322TIP3   OH231380   6.385   5.171   0.985  0.0664  0.2497 -0.4245
 3322TIP3    H131381   6.410   5.099   1.043 -1.2004  0.4267  0.3596
 3322TIP3    H231382   6.371   5.130   0.900  0.2425 -0.2850 -0.1948
 3323TIP3   OH231383   5.461   2.263  16.096  0.1996  0.3949  0.4144
 3323TIP3    H131384   5.496   2.184  16.139  1.7720  0.2421 -1.1102
 3323TIP3    H231385   5.366   2.247  16.091  0.4854 -1.3614  0.2380
 3324TIP3   OH231386   1.243   5.134   0.874 -0.0556 -0.6720  0.0009
 3324TIP3    H131387   1.156   5.131   0.914 -0.2641 -2.0228 -0.5196
 3324TIP3    H231388   1.303   5.123   0.948 -0.4050 -1.9440  0.1085
 3325TIP3   OH231389   6.604   3.233  16.223  0.3142  0.4955 -0.2949
 3325TIP3    H131390   6.623   3.173  16.150 -1.1858  1.4906 -1.5222
 3325TIP3    H231391   6.660   3.309  16.206 -0.3223  0.8912 -0.6199
 3326TIP3   OH231392   0.082   0.416  13.031 -0.0813  0.1599  0.0033
 3326TIP3    H131393   0.123   0.444  12.950 -1.2705  1.1151 -0.2823
 3326TIP3    H231394   0.068   0.497  13.081 -4.4618  0.3231 -1.2590
 3327TIP3   OH231395   4.232   3.553  17.224 -0.2643 -0.2511 -0.1608
 3327TIP3    H131396   4.214   3.634  17.271 -1.4054 -0.3345 -0.4605
 3327TIP3    H231397   4.191   3.485  17.278 -3.1822 -0.1599 -2.2167
 3328TIP3   OH231398   1.459   4.537  14.132 -0.1449 -0.2292  0.1189
 3328TIP3    H131399   1.511   4.569  14.207 -0.7694  2.5208 -0.5644
 3328TIP3    H231400   1.522   4.528  14.061 -0.0603  0.0705  0.1545
 3329TIP3   OH231401   1.551   4.213   5.170 -0.3255  0.0973  0.2881
 3329TIP3    H131402   1.465   4.211   5.129 -1.3391 -2.5350  2.4273
 3329TIP3    H231403   1.560   4.303   5.202 -2.2701  0.3903  0.0391
 3330TIP3   OH231404   6.099   1.965  13.615  0.1820  0.4710 -0.4182
 3330TIP3    H131405   6.098   1.948  13.520  1.6975  0.5869 -0.4638
 3330TIP3    H231406   6.069   2.055  13.623 -0.5569  0.2597 -0.7356
 3331TIP3   OH231407   2.076   2.033   5.364 -0.0330  0.1594  0.0268
 3331TIP3    H131408   2.111   1.961   5.312 -0.4972  0.0121 -0.0764
 3331TIP3    H231409   2.124   2.110   5.332  1.0181 -0.2101  0.6726
 3332TIP3   OH231410   5.525   5.549  13.449  0.0172 -0.6078 -0.5883
 3332TIP3    H131411   5.542   5.478  13.388 -0.1859 -0.3524 -0.9391
 3332TIP3    H231412   5.459   5.513  13.510  0.5875 -1.0309 -0.2126
 3333TIP3   OH231413   6.256   6.101  15.936 -0.0094  0.3992 -0.4167
 3333TIP3    H131414   6.221   6.190  15.929 -1.2812 -0.0467  0.0158
 3333TIP3    H231415   6.262   6.071  15.845 -4.0812 -0.7218 -0.4136
 3334TIP3   OH231416   1.698   2.972   2.324 -0.4189  0.6327 -0.1079
 3334TIP3    H131417   1.782   3.013   2.303 -0.4878  0.2133 -1.2606
 3334TIP3    H231418   1.720   2.891   2.368 -0.2258  0.7007 -0.0814
 3335TIP3   OH231419   3.321   2.453  12.903  0.1921  0.2186 -0.5014
 3335TIP3    H131420   3.362   2.367  12.910 -1.4183 -0.4963  0.1841
 3335TIP3    H231421   3.356   2.501  12.978  0.0625 -0.2673 -0.1274
 3336TIP3   OH231422   3.605   0.010   0.378  0.8025  0.2344  0.1515
 3336TIP3    H131423   3.544  -0.020   0.311 -0.6623 -0.2557  1.6527
 3336TIP3    H231424   3.629  -0.069   0.426  2.0151  0.5413  0.0563
 3337TIP3   OH231425   5.527   2.906  15.177  0.4511 -0.0764  0.0377
 3337TIP3    H131426   5.474   2.919  15.256 -0.1114 -0.9465 -0.1937
 3337TIP3    H231427   5.479   2.842  15.125 -0.0826  1.8092 -1.8537
 3338TIP3   OH231428   5.656   0.563   0.252  0.0388 -0.2587  0.0726
 3338TIP3    H131429   5.664   0.640   0.195 -0.9845 -0.1954  0.0084
 3338TIP3    H231430   5.661   0.598   0.341 -1.3103 -0.0049  0.0577
 3339TIP3   OH231431   5.537   0.070  16.380  0.3817  0.1884 -0.5086
 3339TIP3    H131432   5.622   0.068  16.425 -1.2127 -1.8574  2.6219
 3339TIP3    H231433   5.502   0.157  16.399 -0.1110 -0.5201  2.0257
 3340TIP3   OH231434   0.003   1.553   4.276  0.4650 -0.4376 -0.1170
 3340TIP3    H131435  -0.068   1.561   4.212  1.6219 -2.1971 -1.6766
 3340TIP3    H231436   0.058   1.630   4.260  1.0880 -1.1939 -1.7067
 3341TIP3   OH231437   4.925   5.112  11.530  0.0139  0.1154 -0.0765
 3341TIP3    H131438   4.831   5.099  11.523 -0.0623 -0.1656  1.2583
 3341TIP3    H231439   4.958   5.028  11.564  0.7239  0.2471 -0.4279
 3342TIP3   OH231440   6.056   3.657  15.983  0.2425  0.1236  0.3548
 3342TIP3    H131441   6.117   3.640  15.911 -1.8975 -0.6086 -1.3298
 3342TIP3    H231442   6.091   3.606  16.056  1.8859  0.0666 -0.4412
 3343TIP3   OH231443   5.639   0.728   0.049 -0.0695 -0.1699 -0.0429
 3343TIP3    H131444   5.600   0.796   0.105  0.6625 -1.6692  2.4009
 3343TIP3    H231445   5.703   0.775  -0.005  1.7789  0.8745  2.9199
 3344TIP3   OH231446   1.108   2.030   4.506  0.0609 -0.1525 -0.1156
 3344TIP3    H131447   1.118   2.119   4.471 -0.6577  0.5087  1.3148
 3344TIP3    H231448   1.101   2.043   4.601  1.8936 -1.8835  0.2856
 3345TIP3   OH231449   0.418   5.055  16.639 -0.7157 -0.4559  0.0076
 3345TIP3    H131450   0.329   5.087  16.650 -0.3756  0.5082  0.0748
 3345TIP3    H231451   0.459   5.118  16.579 -0.1819 -1.0793 -0.2968
 3346TIP3   OH231452   1.950   2.256  15.283  0.1632 -0.3954 -0.5333
 3346TIP3    H131453   1.945   2.160  15.280  0.0896 -0.3946 -0.4463
 3346TIP3    H231454   1.869   2.286  15.242  0.9404 -0.3577 -2.0817
 3347TIP3   OH231455   4.773   2.499  15.555 -0.3830 -0.2202 -0.2127
 3347TIP3    H131456   4.712   2.566  15.524 -0.6657  0.7266  2.2733
 3347TIP3    H231457   4.850   2.548  15.584 -0.2865 -1.0128  0.9057
 3348TIP3   OH231458   6.396   5.827  13.505 -0.2751  0.1771 -0.4133
 3348TIP3    H131459   6.410   5.753  13.447  1.2519 -3.1010  3.8747
 3348TIP3    H231460   6.301   5.830  13.519 -0.5388  0.3503 -2.1556
 3349TIP3   OH231461   5.826   1.348  11.603  0.0911 -0.0081  0.0866
 3349TIP3    H131462   5.799   1.438  11.585  1.5730  0.7644  1.6573
 3349TIP3    H231463   5.918   1.345  11.576  0.0994 -0.9973  0.2109
 3350TIP3   OH231464   4.304   5.696   2.360  0.0507  0.5179  0.8210
 3350TIP3    H131465   4.360   5.748   2.302 -0.0644 -0.8212 -0.4986
 3350TIP3    H231466   4.218   5.738   2.355  0.3873  1.2609  1.1511
 3351TIP3   OH231467   1.803   1.602  11.811  0.5779  0.3851 -0.6925
 3351TIP3    H131468   1.784   1.519  11.768 -2.8784 -0.0502  1.5187
 3351TIP3    H231469   1.831   1.660  11.741 -0.4868 -1.6102 -2.8080
 3352TIP3   OH231470   4.077   5.529  15.128  0.0858  0.4729  0.6478
 3352TIP3    H131471   4.085   5.622  15.107  0.2916  0.4922  0.8139
 3352TIP3    H231472   4.062   5.487  15.043  0.4364  0.6064  0.5209
 3353TIP3   OH231473   1.948   2.618  13.573  0.2143  0.0654 -0.0675
 3353TIP3    H131474   1.871   2.657  13.615 -1.1279 -2.5525  0.0248
 3353TIP3    H231475   1.928   2.621  13.480  0.9238  1.2519 -0.1827
 3354TIP3   OH231476   4.724   5.931  14.519  0.1854  0.2814  0.3071
 3354TIP3    H131477   4.762   5.864  14.463 -1.8270 -1.0758  0.5113
 3354TIP3    H231478   4.787   5.942  14.590  0.9368 -0.7553 -0.1889
 3355TIP3   OH231479   0.862   2.450   2.774 -0.0524 -0.7038 -0.2149
 3355TIP3    H131480   0.794   2.446   2.840 -0.6351 -0.9253 -0.8217
 3355TIP3    H231481   0.869   2.543   2.752 -1.9892 -0.9294 -2.0097
 3356TIP3   OH231482   2.182   5.311   1.100 -0.0387 -0.1972 -0.7916
 3356TIP3    H131483   2.182   5.226   1.143  2.3449  0.9404  1.6270
 3356TIP3    H231484   2.257   5.308   1.040 -0.9953 -0.4055 -1.9834
 3357TIP3   OH231485   0.544   5.099   4.347 -0.3171 -0.3355  0.0586
 3357TIP3    H131486   0.612   5.160   4.373 -0.0530 -0.7434  0.3212
 3357TIP3    H231487   0.504   5.139   4.269  1.0756 -0.7270 -0.8814
 3358TIP3   OH231488   4.387   1.978   0.005 -0.3047 -0.0726 -0.1979
 3358TIP3    H131489   4.305   1.992  -0.042 -0.5911  0.0732  0.3325
 3358TIP3    H231490   4.365   1.915   0.073  0.1454 -0.4096 -0.3641
 3359TIP3   OH231491   3.187   1.214  12.839  0.0074  0.1484 -0.4985
 3359TIP3    H131492   3.239   1.170  12.772  1.2979 -0.6707  1.0040
 3359TIP3    H231493   3.098   1.217  12.802  0.7972  0.2271 -2.4517
 3360TIP3   OH231494   1.053   3.040   3.608 -0.7894 -0.3767 -0.1689
 3360TIP3    H131495   1.035   3.100   3.680 -0.7011  0.6008 -0.9503
 3360TIP3    H231496   1.048   3.095   3.530 -0.8916 -1.4310 -0.9029
 3361TIP3   OH231497   3.446   3.431  14.511 -0.3075 -0.0399 -0.2667
 3361TIP3    H131498   3.539   3.446  14.492 -0.0827  0.1518  0.9307
 3361TIP3    H231499   3.445   3.349  14.561 -0.6273  0.7012  0.9735
 3362TIP3   OH231500   4.329   0.113  13.363  0.0585  0.4475  0.2963
 3362TIP3    H131501   4.305   0.133  13.272  0.6595 -0.3841 -0.0514
 3362TIP3    H231502   4.294   0.025  13.378 -0.0518  0.5904  0.8778
 3363TIP3   OH231503   4.042   1.654  12.531  1.2766  0.0414 -0.0310
 3363TIP3    H131504   3.952   1.669  12.560  1.1831 -1.4492  0.5289
 3363TIP3    H231505   4.068   1.735  12.487 -0.2133  0.6080  0.1217
 3364TIP3   OH231506   0.230   5.826  17.086 -0.4638 -0.2747 -0.0230
 3364TIP3    H131507   0.174   5.762  17.129  2.4383 -1.0071  2.8418
 3364TIP3    H231508   0.263   5.781  17.008  0.0229 -1.5500  0.9200
 3365TIP3   OH231509   2.811   1.895  12.909  0.3639 -0.2138  0.5796
 3365TIP3    H131510   2.770   1.809  12.920  1.1938 -0.5270  1.2717
 3365TIP3    H231511   2.782   1.946  12.984 -0.0463  0.0765  0.2240
 3366TIP3   OH231512   1.029   0.277   5.190  0.3541  0.4630  0.6994
 3366TIP3    H131513   0.938   0.249   5.188  0.2769  0.7538  0.1983
 3366TIP3    H231514   1.057   0.259   5.280 -0.0402 -0.1165  0.7117
 3367TIP3   OH231515   5.164   5.655  11.415  0.1943  0.6108 -0.0240
 3367TIP3    H131516   5.088   5.598  11.424 -1.2773  2.3915 -0.9875
 3367TIP3    H231517   5.201   5.632  11.330 -0.0381  0.6659 -0.1391
 3368TIP3   OH231518   0.220   0.094  11.357 -1.3170  0.3087  0.1653
 3368TIP3    H131519   0.196   0.082  11.265 -2.4148 -3.9829  0.9260
 3368TIP3    H231520   0.137   0.107  11.403 -1.2416 -2.3870  1.1495
 3369TIP3   OH231521   1.425   2.800  11.304  0.3427 -0.2671  0.4079
 3369TIP3    H131522   1.392   2.761  11.385  0.7949 -0.4730  0.4932
 3369TIP3    H231523   1.363   2.772  11.237  0.2045 -0.4474  0.6109
 3370TIP3   OH231524   2.446   0.243   2.858  0.3303 -0.1875  0.1137
 3370TIP3    H131525   2.372   0.303   2.845  0.3819 -0.4437 -1.3841
 3370TIP3    H231526   2.414   0.159   2.824  1.1436 -0.4163 -0.0767
 3371TIP3   OH231527   1.125   2.245   0.782 -0.0403  0.2630 -0.2101
 3371TIP3    H131528   1.101   2.300   0.707 -1.3345  1.7767  1.2790
 3371TIP3    H231529   1.220   2.233   0.773 -0.1086  0.8345 -1.8187
 3372TIP3   OH231530   0.880   2.069   3.092  0.1095 -0.9382 -0.4297
 3372TIP3    H131531   0.876   2.058   3.187  1.5736  0.9011 -0.1322
 3372TIP3    H231532   0.804   2.124   3.071 -1.0518 -2.5352 -0.5475
 3373TIP3   OH231533   0.105   1.846   4.747 -0.0505  0.3816  0.4004
 3373TIP3    H131534   0.160   1.870   4.672  0.3568  0.5799  0.7587
 3373TIP3    H231535   0.120   1.753   4.759 -0.1944  0.3288  0.1716
 3374TIP3   OH231536   4.535   5.525  13.913  0.0047  0.0739 -0.1958
 3374TIP3    H131537   4.515   5.488  13.827  0.6194  1.2317 -0.8490
 3374TIP3    H231538   4.493   5.611  13.912  1.7153  0.9325 -0.1226
 3375TIP3   OH231539   4.112   5.588   3.759 -0.0876 -0.1598 -0.6594
 3375TIP3    H131540   4.093   5.659   3.698  0.0183 -0.1326 -0.6610
 3375TIP3    H231541   4.126   5.631   3.843  0.5204 -0.1301 -0.7755
 3376TIP3   OH231542   2.797   3.112   0.014  0.3373  0.0252  0.1377
 3376TIP3    H131543   2.807   3.046   0.083 -2.2031 -2.2716 -1.5669
 3376TIP3    H231544   2.821   3.066  -0.067 -1.5938  1.1058 -1.1090
 3377TIP3   OH231545   6.629   1.226  16.979 -0.4289 -0.3684  0.5934
 3377TIP3    H131546   6.594   1.263  17.060  0.2809 -1.2263  1.2981
 3377TIP3    H231547   6.602   1.288  16.911 -0.7653  0.5158  1.5218
 3378TIP3   OH231548   0.495   1.875  11.549 -0.0828 -0.1161 -0.5815
 3378TIP3    H131549   0.400   1.883  11.549 -0.0215  0.7788 -0.0839
 3378TIP3    H231550   0.523   1.930  11.623  0.8196 -0.2870 -0.7923
 3379TIP3   OH231551   3.911   4.514  13.099  0.1033 -0.1608 -0.0253
 3379TIP3    H131552   3.935   4.603  13.125 -0.2495  0.1140 -0.6326
 3379TIP3    H231553   3.987   4.483  13.050 -0.3138  0.2985 -0.9755
 3380TIP3   OH231554   3.858   3.386  14.378  0.1935  0.2845 -0.5111
 3380TIP3    H131555   3.804   3.368  14.300 -2.2757  0.6685  1.0538
 3380TIP3    H231556   3.831   3.474  14.406  0.7939  0.0042  0.9823
 3381TIP3   OH231557   1.001   2.712   3.316  0.4846 -0.2020  0.2490
 3381TIP3    H131558   0.909   2.706   3.288  0.0968 -1.3180  1.7322
 3381TIP3    H231559   1.026   2.622   3.337  2.0478  0.0355 -0.5039
 3382TIP3   OH231560   5.387   2.153  11.235 -0.2060  0.2915 -0.1681
 3382TIP3    H131561   5.471   2.128  11.273  0.0896 -0.0210 -1.0211
 3382TIP3    H231562   5.405   2.167  11.142 -0.9543  0.9003 -0.2329
 3383TIP3   OH231563   4.981   3.035  17.229  0.5976 -0.6262 -0.0395
 3383TIP3    H131564   5.007   3.112  17.178 -0.2712 -0.6039 -0.4603
 3383TIP3    H231565   4.942   3.071  17.308 -1.5537 -0.5738 -1.0833
 3384TIP3   OH231566   5.179   2.975  14.875 -0.2753  0.7808  0.1761
 3384TIP3    H131567   5.129   2.916  14.931  0.9563 -1.9692 -1.5641
 3384TIP3    H231568   5.234   3.025  14.936 -1.2622  0.0827  1.6545
 3385TIP3   OH231569   1.309   2.012   2.408 -0.0044 -0.9229  0.2534
 3385TIP3    H131570   1.307   2.108   2.412  0.4409 -0.9246  0.6553
 3385TIP3    H231571   1.377   1.988   2.472 -0.9259 -1.5573  1.0024
 3386TIP3   OH231572   5.197   1.624   4.809  0.4775  0.3897 -0.0543
 3386TIP3    H131573   5.287   1.606   4.782 -0.1665  0.0185 -1.9975
 3386TIP3    H231574   5.194   1.719   4.821  0.7753  0.5644 -1.3093
 3387TIP3   OH231575   2.699   5.719  15.494  0.1716 -0.0429  0.1589
 3387TIP3    H131576   2.710   5.627  15.469 -0.0630 -0.0929  0.2371
 3387TIP3    H231577   2.683   5.717  15.589  0.8092  0.1294  0.2708
 3388TIP3   OH231578   5.714   0.915  15.598 -0.6159  0.1589  0.1276
 3388TIP3    H131579   5.786   0.939  15.540 -0.7614 -0.1351 -0.1792
 3388TIP3    H231580   5.688   0.827  15.569  0.7336 -0.8986  2.0719
 3389TIP3   OH231581   0.838   6.544  11.453  0.5874 -0.0861 -0.4498
 3389TIP3    H131582   0.857   6.513  11.364 -1.9081  1.6485 -1.6716
 3389TIP3    H231583   0.824   6.464  11.504 -0.2906 -1.0935 -2.2211
 3390TIP3   OH231584   0.431   6.014  12.379 -0.2439 -0.3494 -0.3769
 3390TIP3    H131585   0.441   6.084  12.443 -1.0014 -0.1611 -0.4621
 3390TIP3    H231586   0.438   6.058  12.294  0.9641 -0.6273 -0.4370
 3391TIP3   OH231587   3.644   4.046  16.574 -0.4325  0.9856 -0.9705
 3391TIP3    H131588   3.552   4.036  16.596  0.0096 -0.2623  0.3705
 3391TIP3    H231589   3.657   4.140  16.567 -1.2589  1.2846  1.2450
 3392TIP3   OH231590   5.570   4.439  11.855  0.2335 -0.4056 -0.0150
 3392TIP3    H131591   5.535   4.469  11.771  2.3121  0.3413 -0.6560
 3392TIP3    H231592   5.542   4.505  11.918  0.3489  0.0856 -0.4775
 3393TIP3   OH231593   1.546   6.394   3.140 -0.5672 -0.2960  0.1774
 3393TIP3    H131594   1.487   6.465   3.164  1.2860  1.8898 -1.5602
 3393TIP3    H231595   1.612   6.394   3.210 -1.7355 -1.7929  1.3367
 3394TIP3   OH231596   3.629   3.366  17.157 -0.0475 -0.4515 -0.1326
 3394TIP3    H131597   3.588   3.329  17.235 -0.0918  0.7581  0.4213
 3394TIP3    H231598   3.696   3.425  17.192  0.0183 -0.0085 -1.0203
 3395TIP3   OH231599   6.496   1.503   1.752  0.0282 -0.1239  0.2991
 3395TIP3    H131600   6.557   1.461   1.692  0.9126 -0.8302  1.6743
 3395TIP3    H231601   6.533   1.590   1.767 -0.3026  0.1303 -0.3119
 3396TIP3   OH231602   2.302   6.240  16.668  0.2240  0.8620 -0.9277
 3396TIP3    H131603   2.346   6.162  16.703 -1.2082  0.5435  0.1933
 3396TIP3    H231604   2.286   6.219  16.576 -0.7463 -0.4679 -0.4836
 3397TIP3   OH231605   6.747   6.023  17.014  0.0193  0.4131 -0.4627
 3397TIP3    H131606   6.718   6.032  16.923 -0.4154 -0.0240 -0.3748
 3397TIP3    H231607   6.822   5.964  17.009  0.6599  1.2385 -0.6488
 3398TIP3   OH231608   3.129   1.547  16.529  0.0475 -0.3042  0.4102
 3398TIP3    H131609   3.074   1.572  16.455  0.6109 -0.2607  0.0065
 3398TIP3    H231610   3.218   1.541  16.493  0.3996  0.1834  1.1791
 3399TIP3   OH231611   6.447   2.718  11.432  0.3984 -0.3994  0.2314
 3399TIP3    H131612   6.379   2.756  11.487  2.2706  0.5576  1.9593
 3399TIP3    H231613   6.409   2.715  11.344 -1.8439  0.1028  1.1669
 3400TIP3   OH231614   5.071   1.025   5.786  0.0847  0.4647  0.3671
 3400TIP3    H131615   5.095   0.940   5.747  2.0015  1.4637 -0.7052
 3400TIP3    H231616   5.154   1.064   5.812 -0.5373  3.0505 -1.3337
 3401TIP3   OH231617   2.807   3.221  11.759  0.3239 -0.4781  0.2399
 3401TIP3    H131618   2.820   3.187  11.670 -0.4285 -0.4649  0.1210
 3401TIP3    H231619   2.779   3.145  11.810 -0.7136 -0.1853  0.1212
 3402TIP3   OH231620   6.199   5.520   1.284 -0.3123 -0.6340 -0.7515
 3402TIP3    H131621   6.218   5.428   1.268  2.3669 -0.3338  0.4466
 3402TIP3    H231622   6.275   5.552   1.333 -2.2990  1.6048  0.9960
 3403TIP3   OH231623   2.673   4.093   0.197 -0.0919 -0.3785 -0.5277
 3403TIP3    H131624   2.766   4.069   0.203 -0.0391  0.0065  0.2692
 3403TIP3    H231625   2.659   4.110   0.104  0.9120  0.6370 -0.5038
 3404TIP3   OH231626   5.055   4.479  14.768  0.0703  0.0127 -0.0738
 3404TIP3    H131627   5.033   4.552  14.827 -0.4099 -0.3620  0.2173
 3404TIP3    H231628   5.150   4.468  14.778  0.1422  0.5872 -0.1092
 3405TIP3   OH231629   0.802   4.889   1.846 -0.2908 -0.1925 -0.0073
 3405TIP3    H131630   0.799   4.849   1.759 -0.7301  0.5795 -0.3471
 3405TIP3    H231631   0.832   4.818   1.903  1.4050 -0.3190 -1.0032
 3406TIP3   OH231632   1.987   0.626   3.627 -0.0516  0.1228  0.7830
 3406TIP3    H131633   2.035   0.650   3.707 -1.8465 -0.8639  2.2122
 3406TIP3    H231634   1.896   0.653   3.645 -0.4753 -0.0804 -0.9565
 3407TIP3   OH231635   4.391   3.845   0.600 -0.3088  0.3145 -0.3617
 3407TIP3    H131636   4.367   3.758   0.568 -0.2340  0.5940 -1.2111
 3407TIP3    H231637   4.440   3.884   0.527  1.8616  0.1177  0.9746
 3408TIP3   OH231638   2.936   1.135  12.009  0.6624  0.2221 -0.3678
 3408TIP3    H131639   2.990   1.086  11.947 -2.3417 -0.9277 -2.2170
 3408TIP3    H231640   2.851   1.090  12.007 -0.5466  2.2861  1.9855
 3409TIP3   OH231641   4.469   5.280  12.112  0.5983  0.1889  0.0839
 3409TIP3    H131642   4.531   5.236  12.170  0.6448  0.7844  0.4877
 3409TIP3    H231643   4.459   5.221  12.038  1.0770 -0.2513  0.3699
 3410TIP3   OH231644   0.429   1.895   0.758 -0.2959 -0.5796 -0.2824
 3410TIP3    H131645   0.350   1.902   0.811 -0.6748 -2.3209 -0.5720
 3410TIP3    H231646   0.397   1.902   0.667 -0.1061 -1.0575 -0.3894
 3411TIP3   OH231647   6.505   1.524   1.068  0.1115  0.4108  0.1993
 3411TIP3    H131648   6.481   1.444   1.021  0.0609 -1.7083  3.6634
 3411TIP3    H231649   6.598   1.535   1.052 -0.2333  0.6887 -1.7339
 3412TIP3   OH231650   0.849   1.207   1.919 -0.7989 -0.3118 -0.2352
 3412TIP3    H131651   0.801   1.283   1.952  3.2820  1.7502  1.4624
 3412TIP3    H231652   0.841   1.141   1.988 -1.4214 -0.0813 -0.0885
 3413TIP3   OH231653   4.304   0.821  10.685  0.7100 -0.0093  0.1007
 3413TIP3    H131654   4.369   0.844  10.752  0.6279  1.3160 -0.2506
 3413TIP3    H231655   4.258   0.746  10.722  2.1064 -0.6563  0.5746
 3414TIP3   OH231656   1.822   3.193  16.696 -0.1482 -0.2073 -0.5813
 3414TIP3    H131657   1.891   3.199  16.762 -1.0233  0.8340  0.2743
 3414TIP3    H231658   1.856   3.134  16.630  1.3628 -0.0841  0.0740
 3415TIP3   OH231659   1.458   4.191  14.461  0.0717  0.0387  0.0595
 3415TIP3    H131660   1.528   4.145  14.507  0.0699  2.1266  2.2451
 3415TIP3    H231661   1.499   4.271  14.429 -0.5257 -0.2812 -1.5442
 3416TIP3   OH231662   4.216   2.352  10.759 -0.4688 -0.6931 -0.0678
 3416TIP3    H131663   4.148   2.376  10.697  0.3991  0.7956 -0.4462
 3416TIP3    H231664   4.182   2.380  10.844 -0.1195  0.5253 -0.3214
 3417TIP3   OH231665   0.689   2.672   4.494 -0.2484  0.0162  0.2899
 3417TIP3    H131666   0.714   2.748   4.547 -0.6283  0.4271 -0.1239
 3417TIP3    H231667   0.721   2.692   4.406 -0.3089 -0.3252  0.1862
 3418TIP3   OH231668   3.077   6.237  14.525  0.0331 -0.8874 -0.1502
 3418TIP3    H131669   3.171   6.232  14.546 -0.1050 -0.6103  0.5347
 3418TIP3    H231670   3.057   6.153  14.483  0.6516 -0.8354 -0.5610
 3419TIP3   OH231671   5.849   0.056   5.088  0.6909  0.0425 -0.5043
 3419TIP3    H131672   5.921  -0.004   5.070  0.3662 -0.2536 -0.8157
 3419TIP3    H231673   5.890   0.130   5.132  1.3302  0.3290 -1.5893
 3420TIP3   OH231674   4.742   1.074   1.772  0.2694  0.3735  0.4029
 3420TIP3    H131675   4.742   1.053   1.866  0.3341  1.1111  0.5756
 3420TIP3    H231676   4.831   1.056   1.743  0.2493  0.1444  0.4868
 3421TIP3   OH231677   1.446   3.595   1.970  0.3775 -0.2470  0.2050
 3421TIP3    H131678   1.350   3.600   1.964  0.2447 -2.4115  0.2648
 3421TIP3    H231679   1.463   3.568   2.060  1.1069  1.3577  0.5557
 3422TIP3   OH231680   2.866   6.060   0.700 -0.5153  0.6012  0.4651
 3422TIP3    H131681   2.830   6.139   0.660 -0.5134 -0.2749 -1.3021
 3422TIP3    H231682   2.948   6.045   0.652 -1.9927 -2.1644 -1.3083
 3423TIP3   OH231683   5.570   1.204   6.141 -0.2735 -0.0982  0.0484
 3423TIP3    H131684   5.563   1.261   6.065  1.2749  1.5893  1.1337
 3423TIP3    H231685   5.650   1.153   6.125  1.1603  1.6445  1.4008
 3424TIP3   OH231686   0.778   2.822   0.138  0.3635 -0.2037  0.1227
 3424TIP3    H131687   0.753   2.778   0.057  1.4758 -1.7661  0.5915
 3424TIP3    H231688   0.773   2.915   0.118 -0.0368 -0.5683 -1.5284
 3425TIP3   OH231689   0.771   6.666   0.836  0.0863 -0.2966  0.8385
 3425TIP3    H131690   0.833   6.598   0.811 -0.8793 -1.3337  1.2098
 3425TIP3    H231691   0.799   6.692   0.924  0.4468 -0.2163  0.7017
 3426TIP3   OH231692   1.891   6.486  16.527  0.2694  0.6625 -0.0972
 3426TIP3    H131693   1.812   6.539  16.538  0.4201  0.8536  0.0902
 3426TIP3    H231694   1.952   6.544  16.481  0.2143  0.4295 -0.4659
 3427TIP3   OH231695   5.289   3.280   5.526 -0.4636  0.1626  0.2377
 3427TIP3    H131696   5.373   3.261   5.566  1.0174  3.5834 -1.0464
 3427TIP3    H231697   5.237   3.320   5.596 -0.7221 -1.1032  0.7819
 3428TIP3   OH231698   1.657   5.648   1.148 -0.4128  0.0726  0.1893
 3428TIP3    H131699   1.597   5.586   1.190  0.0164 -0.7617 -0.4185
 3428TIP3    H231700   1.628   5.734   1.180 -0.0901 -0.5310  2.1953
 3429TIP3   OH231701   3.720   3.615   1.998 -0.3731  0.0912  0.0627
 3429TIP3    H131702   3.678   3.568   2.071  0.1693  2.0758  1.6979
 3429TIP3    H231703   3.791   3.664   2.039 -0.0219  1.2227 -1.8394
 3430TIP3   OH231704   3.579   3.474   4.064  0.1161 -0.1676  0.0737
 3430TIP3    H131705   3.522   3.398   4.055  0.3078 -0.4646  1.3237
 3430TIP3    H231706   3.622   3.463   4.149 -2.0450  2.7970  1.6581
 3431TIP3   OH231707   1.350   5.489  15.389 -0.3783  0.0433  0.5753
 3431TIP3    H131708   1.298   5.423  15.342  0.3139  0.5937 -1.0116
 3431TIP3    H231709   1.303   5.502  15.471 -1.1483 -1.5968  0.4179
 3432TIP3   OH231710   3.976   1.783   0.626 -0.4595 -0.2740 -0.3456
 3432TIP3    H131711   3.925   1.737   0.559  0.3290 -0.8426 -0.5555
 3432TIP3    H231712   3.990   1.716   0.694  1.4605 -0.6047 -1.0569
 3433TIP3   OH231713   2.381   6.614  15.740 -0.8486  0.0351  0.2755
 3433TIP3    H131714   2.359   6.701  15.774  1.9421  0.2931  1.4960
 3433TIP3    H231715   2.447   6.631  15.673 -0.1313 -1.1721  0.6722
 3434TIP3   OH231716   5.461   4.646  13.053 -0.3923 -0.3857 -0.1087
 3434TIP3    H131717   5.540   4.698  13.035 -1.7729  1.6612 -0.4139
 3434TIP3    H231718   5.442   4.663  13.145 -1.2850  0.2726 -0.4117
 3435TIP3   OH231719   5.882   3.242  14.504  0.1668 -0.0511  0.3166
 3435TIP3    H131720   5.937   3.223  14.428 -1.2570  0.7818 -0.9337
 3435TIP3    H231721   5.842   3.158  14.526  1.4883 -0.5449  0.8918
 3436TIP3   OH231722   4.860   6.669   2.657  0.1770  0.0541  0.3887
 3436TIP3    H131723   4.854   6.592   2.600 -2.0347 -1.3581  2.4198
 3436TIP3    H231724   4.926   6.646   2.722  0.9131  0.6519 -0.1517
 3437TIP3   OH231725   4.118   3.780   0.657 -0.4337  0.4489 -0.3091
 3437TIP3    H131726   4.067   3.854   0.623 -1.1040  1.5486  2.9174
 3437TIP3    H231727   4.206   3.816   0.670 -0.5391  0.4515  0.4204
 3438TIP3   OH231728   5.661   2.278  14.499 -0.0635 -0.3807  0.4215
 3438TIP3    H131729   5.750   2.303  14.526 -0.0814  0.7433 -0.5247
 3438TIP3    H231730   5.671   2.250  14.408 -0.6782 -0.2505  0.3148
 3439TIP3   OH231731   4.976   4.575   6.263  0.2631 -0.1310  0.1859
 3439TIP3    H131732   4.899   4.530   6.226 -0.3805 -0.3667  1.7800
 3439TIP3    H231733   5.049   4.543   6.211 -0.4483 -1.5533  0.0225
 3440TIP3   OH231734   1.516   5.556   3.551  0.1664  0.1161  0.0294
 3440TIP3    H131735   1.578   5.603   3.496 -1.1441 -1.6023 -3.0376
 3440TIP3    H231736   1.442   5.617   3.560 -0.1758 -0.1008 -1.2382
 3441TIP3   OH231737   1.346   3.766  15.399  0.2132  0.0283 -0.1144
 3441TIP3    H131738   1.305   3.850  15.382 -0.6977 -0.6144 -1.1756
 3441TIP3    H231739   1.440   3.785  15.402  0.0351  1.0171 -0.7048
 3442TIP3   OH231740   0.984   5.493  12.021  0.2452 -0.0958 -0.6144
 3442TIP3    H131741   1.006   5.463  11.933  0.1773  0.7288 -0.9198
 3442TIP3    H231742   0.916   5.559  12.007 -1.9394 -2.0951  0.2658
 3443TIP3   OH231743   1.944   3.189   2.774  0.5068  0.0430  0.0785
 3443TIP3    H131744   1.922   3.129   2.703  1.8444  0.5115 -0.7759
 3443TIP3    H231745   1.973   3.269   2.729  0.3261  0.7300  1.1655
 3444TIP3   OH231746   0.317   3.770   6.229 -0.1957 -0.1819  0.1479
 3444TIP3    H131747   0.290   3.679   6.218 -1.5181  0.2947 -0.5653
 3444TIP3    H231748   0.408   3.771   6.200  0.0410 -1.4196  0.8179
 3445TIP3   OH231749   3.588   2.552  15.737  0.1936  0.5043  0.2842
 3445TIP3    H131750   3.562   2.461  15.747  0.8965  0.3152  0.4465
 3445TIP3    H231751   3.574   2.571  15.644  0.3495  0.1358  0.1842
 3446TIP3   OH231752   2.283   3.296  15.270  0.5434 -0.0673  0.1765
 3446TIP3    H131753   2.202   3.266  15.311 -0.6609 -0.2072 -2.2073
 3446TIP3    H231754   2.269   3.389  15.253  1.3242  0.1630  0.7731
 3447TIP3   OH231755   5.956   1.074   4.308  0.0306 -0.4588  0.1966
 3447TIP3    H131756   5.987   1.151   4.356 -0.1197 -0.5825  0.4964
 3447TIP3    H231757   5.957   1.004   4.373 -2.0543 -0.1852  0.5517
 3448TIP3   OH231758   6.386   0.931   2.748  0.4148  0.4410  0.1783
 3448TIP3    H131759   6.468   0.893   2.715  0.4898 -0.2254  1.1060
 3448TIP3    H231760   6.350   0.864   2.805 -0.0538  1.3056  0.9103
 3449TIP3   OH231761   6.153   5.748  12.765 -0.6046  0.5813 -0.3934
 3449TIP3    H131762   6.082   5.800  12.803 -0.3760  2.0862 -1.9911
 3449TIP3    H231763   6.210   5.812  12.724  1.1248 -0.7199 -0.0523
 3450TIP3   OH231764   2.835   1.694  16.028 -0.2357 -0.3072 -0.7583
 3450TIP3    H131765   2.759   1.675  16.083 -0.8299  1.5142 -0.9030
 3450TIP3    H231766   2.875   1.609  16.011  0.1324 -0.9297  2.7496
 3451TIP3   OH231767   3.817   6.303   0.452 -0.1550 -0.2320  0.1928
 3451TIP3    H131768   3.909   6.282   0.436 -0.1182 -0.5799  0.8400
 3451TIP3    H231769   3.811   6.314   0.547 -1.2712 -2.5834  0.4116
 3452TIP3   OH231770   1.547   2.633   2.383  0.3388  0.2494 -0.2005
 3452TIP3    H131771   1.464   2.647   2.337  0.9373 -0.2615 -1.4478
 3452TIP3    H231772   1.546   2.699   2.453 -1.0853  0.2936 -0.2319
 3453TIP3   OH231773   6.008   6.157  10.075  0.7043 -0.9557  0.1070
 3453TIP3    H131774   5.958   6.144  10.155 -1.6335  1.2726 -0.9125
 3453TIP3    H231775   5.981   6.084  10.018  0.7691 -1.3543  0.5870
 3454TIP3   OH231776   1.889   1.114  14.712  0.2810  0.1910  0.0536
 3454TIP3    H131777   1.882   1.110  14.808  0.3915  1.1444  0.1087
 3454TIP3    H231778   1.891   1.023  14.684 -2.4524 -0.1062  0.7591
 3455TIP3   OH231779   6.697   3.703   5.022  0.0328 -1.1496 -0.3103
 3455TIP3    H131780   6.770   3.686   5.082  1.1489  1.3798 -0.8792
 3455TIP3    H231781   6.657   3.783   5.057 -0.8298 -1.0443 -1.5257
 3456TIP3   OH231782   1.663   2.581   1.464 -0.4484 -0.6618  0.2810
 3456TIP3    H131783   1.588   2.585   1.523 -0.8053  1.2308 -0.2374
 3456TIP3    H231784   1.627   2.607   1.379  0.7332  0.0253 -0.0236
 3457TIP3   OH231785   4.197   5.694  16.245  0.0461 -0.3733  0.0600
 3457TIP3    H131786   4.178   5.787  16.248  2.3454  0.1066 -0.0804
 3457TIP3    H231787   4.176   5.662  16.333 -1.3749  0.1363 -0.0812
 3458TIP3   OH231788   5.795   1.928   4.949  0.5704 -0.4247 -0.3757
 3458TIP3    H131789   5.774   2.013   4.911 -4.0195 -1.2900 -0.1338
 3458TIP3    H231790   5.737   1.921   5.025  2.2872 -2.9582  0.7688
 3459TIP3   OH231791   2.556   2.272  15.190  0.0601 -0.3000 -0.5171
 3459TIP3    H131792   2.527   2.334  15.123 -1.7599 -0.9922 -0.3916
 3459TIP3    H231793   2.571   2.325  15.267  0.9642  0.3337 -1.1246
 3460TIP3   OH231794   1.344   6.333  14.504  0.0440  0.1019  0.3003
 3460TIP3    H131795   1.278   6.399  14.483  1.9687  2.2817  0.9006
 3460TIP3    H231796   1.295   6.262  14.544 -2.0288  1.3746  0.0934
 3461TIP3   OH231797   0.404   6.296  14.924 -0.8341  0.4115  0.2460
 3461TIP3    H131798   0.431   6.386  14.941  2.4822 -0.7790  1.7148
 3461TIP3    H231799   0.366   6.266  15.007 -1.6586  0.3151 -0.1519
 3462TIP3   OH231800   0.658   5.004   4.065  0.1112 -0.4409  0.2835
 3462TIP3    H131801   0.662   5.071   3.997  1.4056 -2.0703 -1.3088
 3462TIP3    H231802   0.565   4.981   4.070 -0.4158  1.8122  1.2291
 3463TIP3   OH231803   2.463   1.366  13.573  0.0884 -0.1394 -0.2816
 3463TIP3    H131804   2.392   1.367  13.637  0.4452 -1.6761  0.1528
 3463TIP3    H231805   2.510   1.448  13.588 -1.1611  0.5532 -0.0901
 3464TIP3   OH231806   5.152   3.475  16.060  0.6985 -0.5587  0.7598
 3464TIP3    H131807   5.188   3.411  16.122 -0.4604 -3.1491 -1.1152
 3464TIP3    H231808   5.213   3.473  15.986  0.5255  0.3449  0.5864
 3465TIP3   OH231809   6.041   3.674  12.009  0.3029  0.0305 -0.0756
 3465TIP3    H131810   5.958   3.639  11.977  0.2416 -0.7212  0.9036
 3465TIP3    H231811   6.017   3.753  12.057  0.3006  0.6006 -0.9933
 3466TIP3   OH231812   5.386   0.812   3.324 -0.3466 -0.1062  0.2067
 3466TIP3    H131813   5.302   0.826   3.282  0.3267 -0.8394 -1.4329
 3466TIP3    H231814   5.415   0.726   3.292  1.0393  0.1532  0.7135
 3467TIP3   OH231815   5.814   5.220  12.122 -0.1348 -0.1882  0.1204
 3467TIP3    H131816   5.728   5.261  12.128  0.0929  0.4373 -0.7125
 3467TIP3    H231817   5.876   5.290  12.144  0.1249 -0.8471  1.5217
 3468TIP3   OH231818   2.228   4.731  14.949  0.1079  0.2250 -0.8473
 3468TIP3    H131819   2.266   4.696  14.869 -1.3600 -0.0802 -1.4451
 3468TIP3    H231820   2.178   4.808  14.920  1.1519  1.2558  0.0653
 3469TIP3   OH231821   1.100   0.009  14.341  0.3472  0.2239 -0.1224
 3469TIP3    H131822   1.030   0.070  14.317  0.0449  0.0133  0.2206
 3469TIP3    H231823   1.056  -0.075  14.352  0.7023  0.0283 -0.1935
 3470TIP3   OH231824   6.784   5.750  11.880  0.7153 -0.1662  0.7174
 3470TIP3    H131825   6.703   5.714  11.916  0.7006  0.0719  0.9292
 3470TIP3    H231826   6.783   5.842  11.907  0.4603  0.1417 -0.3152
 3471TIP3   OH231827   0.891   6.328   3.291  0.0337 -0.4857  0.2800
 3471TIP3    H131828   0.929   6.415   3.280 -0.0535 -0.7320 -2.4386
 3471TIP3    H231829   0.928   6.277   3.219 -1.2933 -2.1909  0.7748
 3472TIP3   OH231830   2.434   1.721   2.379  0.3882  0.0235  0.1441
 3472TIP3    H131831   2.402   1.670   2.305  0.1295  0.4009 -0.0086
 3472TIP3    H231832   2.496   1.664   2.424  0.9716 -0.0080 -0.6923
 3473TIP3   OH231833   5.854   4.250  13.807 -0.1530  0.2845  0.2504
 3473TIP3    H131834   5.798   4.273  13.881  0.8441  0.9631  0.8066
 3473TIP3    H231835   5.865   4.155  13.813 -3.2366 -0.2438 -1.3065
 3474TIP3   OH231836   6.503   0.682  17.076 -0.0504 -0.0606  0.1167
 3474TIP3    H131837   6.436   0.654  17.014 -1.4688  0.5149  1.3494
 3474TIP3    H231838   6.503   0.777  17.070  0.7079 -0.0645  0.0704
 3475TIP3   OH231839   0.061   0.478   1.873  0.0712 -0.2003  0.2518
 3475TIP3    H131840   0.023   0.426   1.944  0.6426 -0.2339  0.5316
 3475TIP3    H231841  -0.015   0.511   1.824 -0.3281  0.2469  1.1708
 3476TIP3   OH231842   4.457   1.271   2.372  0.2439  0.0789 -0.2310
 3476TIP3    H131843   4.464   1.175   2.379  1.4161  0.3094  1.8636
 3476TIP3    H231844   4.369   1.290   2.405  0.5843 -0.1318  0.8039
 3477TIP3   OH231845   4.861   5.423   1.493  0.1035  0.2595 -0.8022
 3477TIP3    H131846   4.859   5.380   1.408 -1.1310 -0.9193 -0.2059
 3477TIP3    H231847   4.841   5.515   1.474 -0.5037 -0.0621 -1.7534
 3478TIP3   OH231848   2.464   0.814   5.671 -0.2147  0.3684 -0.1051
 3478TIP3    H131849   2.400   0.762   5.621  1.1995 -0.3834 -1.1619
 3478TIP3    H231850   2.441   0.905   5.650 -1.7026  0.1535  0.4944
 3479TIP3   OH231851   3.007   2.113  12.845 -0.0294 -0.7144 -0.9602
 3479TIP3    H131852   2.968   2.187  12.797 -1.5055  0.2234  1.5830
 3479TIP3    H231853   2.940   2.045  12.841 -0.9875  0.0420  1.3353
 3480TIP3   OH231854   1.055   1.845  14.469  0.6574 -0.0508 -0.0144
 3480TIP3    H131855   1.098   1.860  14.553  0.0071  1.2070  0.1010
 3480TIP3    H231856   0.986   1.781  14.489  0.9660 -0.2952  0.2697
 3481TIP3   OH231857   3.759   4.263   2.302 -0.0307  0.0984 -0.6348
 3481TIP3    H131858   3.770   4.311   2.384  0.7829 -0.3658 -0.4577
 3481TIP3    H231859   3.843   4.273   2.257  0.1035 -1.0219 -0.6576
 3482TIP3   OH231860   0.513   2.951   1.157  0.2701 -0.4341  0.5240
 3482TIP3    H131861   0.545   3.003   1.083 -2.0444 -0.8935 -0.8654
 3482TIP3    H231862   0.483   3.017   1.220 -0.1623 -0.0485 -0.0753
 3483TIP3   OH231863   1.703   4.305   0.010 -0.3665  0.2275 -0.2713
 3483TIP3    H131864   1.648   4.243  -0.037  0.2428  0.6225 -1.5257
 3483TIP3    H231865   1.690   4.388  -0.035 -0.1509  0.7237  0.5678
 3484TIP3   OH231866   6.276   4.388  11.896  0.3271  0.2757  0.2581
 3484TIP3    H131867   6.190   4.431  11.889  0.7734  1.0100 -1.0174
 3484TIP3    H231868   6.316   4.428  11.973  0.0275  0.8880  0.1067
 3485TIP3   OH231869   1.103   2.313   2.829  0.8413  0.3318 -0.6014
 3485TIP3    H131870   1.102   2.227   2.787  0.3335  0.9237 -1.8357
 3485TIP3    H231871   1.016   2.349   2.811  0.9696  1.0065  0.1124
 3486TIP3   OH231872   5.392   0.109  10.515 -0.2584 -0.2324 -0.2561
 3486TIP3    H131873   5.407   0.016  10.530  2.9379  0.6606  2.5336
 3486TIP3    H231874   5.458   0.134  10.450 -0.0189  0.4230  0.2297
 3487TIP3   OH231875   2.400   5.576  16.878 -0.5001 -0.1870 -0.7946
 3487TIP3    H131876   2.441   5.607  16.798  0.7785 -2.5543 -1.1121
 3487TIP3    H231877   2.358   5.493  16.853 -1.0659 -0.3692  0.7082
 3488TIP3   OH231878   4.433   0.994  16.546  0.2782 -0.9038  0.4970
 3488TIP3    H131879   4.434   0.906  16.508  1.8768 -0.6410 -0.1281
 3488TIP3    H231880   4.444   0.979  16.640  0.4147 -1.3888  0.4076
 3489TIP3   OH231881   0.195   4.414  16.142  0.2571  0.1515 -0.6075
 3489TIP3    H131882   0.133   4.346  16.167 -0.5477 -0.2811 -3.5461
 3489TIP3    H231883   0.157   4.495  16.174  0.2444 -0.5452  1.1984
 3490TIP3   OH231884   4.730   5.650   5.481  0.5294  0.2537 -0.1801
 3490TIP3    H131885   4.682   5.683   5.557  1.0395 -0.3649  0.4198
 3490TIP3    H231886   4.678   5.678   5.406 -0.6503 -0.2080  0.4425
 3491TIP3   OH231887   4.552   4.223  10.638 -0.3628  0.4947 -0.4960
 3491TIP3    H131888   4.459   4.203  10.628 -0.1432 -1.7342  1.3522
 3491TIP3    H231889   4.595   4.172  10.569 -0.2020 -1.8300  1.2663
 3492TIP3   OH231890   1.572   3.227  14.513 -0.0726 -0.0919  0.2394
 3492TIP3    H131891   1.541   3.137  14.516 -1.3124  0.3400  0.4137
 3492TIP3    H231892   1.498   3.278  14.481  1.0130  0.6967 -1.0623
 3493TIP3   OH231893   1.069   2.243   5.205  0.0339  0.2394 -0.1595
 3493TIP3    H131894   1.143   2.253   5.145 -1.0689  1.5667 -1.3419
 3493TIP3    H231895   1.038   2.332   5.219  0.4741  0.0114  2.7056
 3494TIP3   OH231896   4.067   2.640   1.491  0.3969 -0.7141  0.6023
 3494TIP3    H131897   4.015   2.686   1.426 -1.6018 -1.9806  1.2809
 3494TIP3    H231898   4.026   2.554   1.499  1.5548 -1.1269  2.3871
 3495TIP3   OH231899   1.845   3.167  15.368 -0.3145 -0.8502  0.0640
 3495TIP3    H131900   1.929   3.125  15.379  0.7231  0.8316 -1.1206
 3495TIP3    H231901   1.813   3.135  15.284  0.4271  0.5971 -0.7865
 3496TIP3   OH231902   3.610   1.684  14.654  0.0630 -0.5714  0.4871
 3496TIP3    H131903   3.702   1.669  14.676 -0.0002  1.7223  2.3414
 3496TIP3    H231904   3.563   1.671  14.736 -0.9014  1.4905  0.2724
 3497TIP3   OH231905   4.906   2.688  16.219  0.0001  0.2051 -0.3500
 3497TIP3    H131906   4.860   2.666  16.300 -1.8480  1.3989 -1.0369
 3497TIP3    H231907   4.915   2.605  16.173  0.3890 -0.3615  0.7458
 3498TIP3   OH231908   5.199   2.572  16.945 -0.4112  0.1492  0.1391
 3498TIP3    H131909   5.133   2.632  16.980 -1.9058 -0.7374 -1.0716
 3498TIP3    H231910   5.261   2.628  16.898 -0.7283  0.9165  0.6372
 3499TIP3   OH231911   6.066   2.954  14.653  0.4089 -0.9325  0.2811
 3499TIP3    H131912   6.078   2.861  14.637  0.7427 -0.9581  0.6687
 3499TIP3    H231913   5.984   2.959  14.703 -0.1285 -0.9308 -0.5878
 3500TIP3   OH231914   1.838   3.507  16.535 -0.7184 -0.1910  0.1196
 3500TIP3    H131915   1.899   3.483  16.466 -1.5866  1.0938 -1.1299
 3500TIP3    H231916   1.890   3.506  16.615  0.6424 -0.2965 -0.7545
 3501TIP3   OH231917   0.453   6.779   3.798 -0.1853  0.0121  0.2575
 3501TIP3    H131918   0.543   6.773   3.829  0.0552 -2.4743 -0.8228
 3501TIP3    H231919   0.459   6.823   3.713 -0.0381  0.1168  0.3211
 3502TIP3   OH231920   3.106   4.189  11.980  0.0904 -0.0113 -0.4447
 3502TIP3    H131921   3.014   4.190  12.008 -0.2934 -0.6410 -1.6365
 3502TIP3    H231922   3.136   4.100  11.997  0.1834 -0.0866 -0.9929
 3503TIP3   OH231923   4.266   0.369  12.247  0.3235  0.2076 -0.0966
 3503TIP3    H131924   4.231   0.321  12.322 -0.5754  0.2900 -0.4496
 3503TIP3    H231925   4.361   0.366  12.258  0.1996  0.1810  1.0157
 3504TIP3   OH231926   6.633   3.276  11.460 -0.1694  0.0238 -0.4539
 3504TIP3    H131927   6.638   3.230  11.544  0.9212 -0.7437 -0.9413
 3504TIP3    H231928   6.539   3.293  11.448 -0.4540 -0.9688  0.3239
 3505TIP3   OH231929   5.137   4.090  12.842 -0.0485  0.3924 -0.2508
 3505TIP3    H131930   5.071   4.088  12.911 -0.0962  0.6610 -0.2879
 3505TIP3    H231931   5.099   4.143  12.773 -1.4160 -2.7392 -1.9749
 3506TIP3   OH231932   2.056   4.624  13.916  0.0375  0.0613  0.4189
 3506TIP3    H131933   2.043   4.541  13.962 -2.0829 -0.5415 -1.1894
 3506TIP3    H231934   2.144   4.617  13.879  0.6486 -0.6209  1.9317
 3507TIP3   OH231935   4.010   0.834   2.760 -0.1567 -0.1013  0.1971
 3507TIP3    H131936   4.094   0.879   2.775  0.3694 -0.4217 -1.5586
 3507TIP3    H231937   4.033   0.741   2.757 -0.2447 -0.0771 -2.1347
 3508TIP3   OH231938   1.484   1.003   1.609 -0.5771  0.0447  0.3659
 3508TIP3    H131939   1.512   1.088   1.642  0.4076 -0.1082 -0.0730
 3508TIP3    H231940   1.441   1.023   1.525  2.2011 -0.1417 -1.1761
 3509TIP3   OH231941   1.259   0.120  14.682 -0.0213  0.3389 -0.1648
 3509TIP3    H131942   1.256   0.025  14.695 -1.3162  0.2694 -0.8623
 3509TIP3    H231943   1.168   0.145  14.664  0.5101  1.5144 -1.3212
 3510TIP3   OH231944   3.292   6.103  15.119  0.0473 -0.0138 -0.6059
 3510TIP3    H131945   3.210   6.152  15.118 -0.9282 -1.5896 -0.1055
 3510TIP3    H231946   3.268   6.018  15.155  2.2656  0.1174  1.2816
 3511TIP3   OH231947   3.682   2.881   2.678 -0.0474 -0.6186  0.0371
 3511TIP3    H131948   3.710   2.962   2.720 -0.6191 -0.1983 -0.3871
 3511TIP3    H231949   3.621   2.909   2.610  1.5538 -1.2075 -1.6843
 3512TIP3   OH231950   4.693   5.158   2.660 -0.3994 -0.0557  0.0525
 3512TIP3    H131951   4.672   5.139   2.752  0.3113 -1.1778  0.0014
 3512TIP3    H231952   4.650   5.089   2.611  2.0692 -1.5304 -0.1612
 3513TIP3   OH231953   3.476   0.127   0.602 -0.2418 -0.4816 -0.1836
 3513TIP3    H131954   3.510   0.215   0.590 -0.2947 -0.4563 -0.1444
 3513TIP3    H231955   3.478   0.088   0.514 -0.2082 -0.4458 -0.1988
 3514TIP3   OH231956   3.838   4.550  16.078 -0.0244 -0.1775 -0.4069
 3514TIP3    H131957   3.818   4.557  15.985 -0.3743  2.3164 -0.1778
 3514TIP3    H231958   3.788   4.620  16.119 -0.3242 -1.6025  1.7525
 3515TIP3   OH231959   3.805   1.675  15.030  0.5157 -0.1712  0.1680
 3515TIP3    H131960   3.842   1.592  15.001 -0.5192  0.0128 -1.7998
 3515TIP3    H231961   3.744   1.651  15.101  0.6149 -1.0296 -0.0362
 3516TIP3   OH231962   0.651   3.182  11.633 -0.1232 -0.3442  0.1434
 3516TIP3    H131963   0.599   3.233  11.571 -2.1257 -0.2397  1.8562
 3516TIP3    H231964   0.710   3.246  11.672  1.4014 -0.4780 -1.8670
 3517TIP3   OH231965   3.564   3.457  13.204  0.4225 -0.6056 -0.4341
 3517TIP3    H131966   3.563   3.372  13.160  1.8757 -1.2732  0.7822
 3517TIP3    H231967   3.485   3.501  13.172  0.4279 -1.8156 -2.2149
 3518TIP3   OH231968   6.169   4.392  14.439 -0.4195 -0.0097  0.1040
 3518TIP3    H131969   6.156   4.350  14.524 -0.6224  0.3600  0.2534
 3518TIP3    H231970   6.244   4.450  14.451 -1.5642  1.4008  0.5299
 3519TIP3   OH231971   1.357   1.259  11.614 -0.4305  0.1690  0.0061
 3519TIP3    H131972   1.311   1.343  11.620 -0.3533  0.3157 -1.2677
 3519TIP3    H231973   1.444   1.277  11.649 -1.2162 -0.0294  2.1293
 3520TIP3   OH231974   3.014   1.505  14.690 -0.2129  0.3953 -0.2329
 3520TIP3    H131975   2.991   1.592  14.658  1.0467  0.4923 -0.9387
 3520TIP3    H231976   3.109   1.508  14.700 -0.1984 -0.7818  0.0784
 3521TIP3   OH231977   2.122   1.203   2.743  0.4930  0.0144 -0.2054
 3521TIP3    H131978   2.200   1.247   2.778  0.1582  0.0901  0.4602
 3521TIP3    H231979   2.103   1.133   2.806 -0.3410  0.3933 -0.0231
 3522TIP3   OH231980   1.655   0.585  12.188  0.2333 -0.9101 -0.3923
 3522TIP3    H131981   1.732   0.540  12.222  2.0332  1.8834 -0.6255
 3522TIP3    H231982   1.685   0.626  12.107 -1.8327 -0.8124 -1.1201
 3523TIP3   OH231983   6.370   0.631  14.250 -0.0136  0.3102  0.0823
 3523TIP3    H131984   6.447   0.594  14.294 -0.6320  0.9670  1.7592
 3523TIP3    H231985   6.296   0.580  14.284 -0.3808  0.0009 -1.1532
 3524TIP3   OH231986   2.089   2.676   0.571 -0.7808  0.2824  0.5559
 3524TIP3    H131987   2.012   2.732   0.580 -0.1622  1.7303 -2.4316
 3524TIP3    H231988   2.163   2.736   0.580 -0.0972 -0.2150 -1.4670
 3525TIP3   OH231989   4.491   5.929  14.341  0.3074  0.0865  0.1059
 3525TIP3    H131990   4.557   5.964  14.281  0.3106  0.2408  0.2002
 3525TIP3    H231991   4.528   5.945  14.429  0.5444 -0.6112  0.1386
 3526TIP3   OH231992   6.774   6.549  11.133  0.2287 -0.0490  0.5466
 3526TIP3    H131993   6.760   6.462  11.171  3.7978 -0.2439  1.6373
 3526TIP3    H231994   6.839   6.534  11.064  3.9785  2.2053  3.3622
 3527TIP3   OH231995   0.388   6.304   0.535 -0.0697 -0.1364 -0.3226
 3527TIP3    H131996   0.360   6.290   0.625  0.1576  0.0993 -0.2181
 3527TIP3    H231997   0.373   6.219   0.492 -2.2010  0.3392 -0.5953
 3528TIP3   OH231998   5.455   1.445   3.451 -0.2874  0.2197  0.5784
 3528TIP3    H131999   5.481   1.411   3.365 -1.4535 -2.3192  1.1820
 3528TIP3    H232000   5.538   1.472   3.491  0.4073  0.3346 -0.8804
 3529TIP3   OH232001   4.581   2.709   5.435  0.3849  0.4317  0.3019
 3529TIP3    H132002   4.584   2.721   5.340 -1.0059  0.4593  0.2473
 3529TIP3    H232003   4.499   2.752   5.462  0.7731  0.4377  1.5125
 3530TIP3   OH232004   2.879   6.577   2.208 -0.1135  0.7041 -0.5119
 3530TIP3    H132005   2.816   6.507   2.189 -1.6105  2.0326 -0.5463
 3530TIP3    H232006   2.831   6.658   2.191  1.8615  1.7462 -1.2696
 3531TIP3   OH232007   2.030   0.010  11.229 -0.2104  0.1197  0.2083
 3531TIP3    H132008   2.032  -0.083  11.252 -0.5293 -0.1792 -0.8993
 3531TIP3    H232009   2.033   0.010  11.133 -1.7011  1.1992  0.1473
 3532TIP3   OH232010   1.481   5.013  12.964  0.4763 -0.6503  0.2555
 3532TIP3    H132011   1.415   5.013  12.894 -1.7976  0.0395  2.3116
 3532TIP3    H232012   1.479   5.102  12.999  1.4129 -1.0505  1.3486
 3533TIP3   OH232013   2.697   0.189   1.933  0.4492  0.0626  0.2133
 3533TIP3    H132014   2.751   0.263   1.959 -1.3066  1.8307 -1.0118
 3533TIP3    H232015   2.742   0.152   1.857 -0.5623  2.1977 -1.4821
 3534TIP3   OH232016   0.746   1.138   3.463  0.0240  0.4966  0.1546
 3534TIP3    H132017   0.820   1.190   3.432 -0.1887  0.6226 -0.1458
 3534TIP3    H232018   0.727   1.173   3.550 -0.6196  1.4540 -0.3669
 3535TIP3   OH232019   1.000   6.763   5.699 -0.4650  0.0136 -0.0427
 3535TIP3    H132020   0.951   6.752   5.780 -0.3715  0.4853  0.0801
 3535TIP3    H232021   1.092   6.760   5.726 -0.4266 -0.7750 -0.2577
 3536TIP3   OH232022   5.381   1.779  13.572 -0.5252 -0.1051 -0.2124
 3536TIP3    H132023   5.394   1.713  13.503 -0.3740 -1.4702  1.0868
 3536TIP3    H232024   5.467   1.786  13.614 -0.7742  0.2551  0.2272
 3537TIP3   OH232025   4.932   6.109  11.077 -0.2575  0.3319 -0.0550
 3537TIP3    H132026   4.962   6.027  11.114 -0.1421  0.2269 -0.3830
 3537TIP3    H232027   4.935   6.096  10.982  1.8477  1.4430 -0.1794
 3538TIP3   OH232028   1.260   6.138  16.545  0.2060 -0.8355  0.0972
 3538TIP3    H132029   1.333   6.120  16.486 -0.8847  0.4110 -1.6759
 3538TIP3    H232030   1.216   6.214  16.507 -1.6131 -1.1349  1.5179
 3539TIP3   OH232031   3.645   4.118   0.910 -0.2217 -0.1601 -0.5666
 3539TIP3    H132032   3.638   4.211   0.888 -0.8223 -0.5771 -2.2080
 3539TIP3    H232033   3.601   4.110   0.995 -0.1723  1.0523 -0.4275
 3540TIP3   OH232034   4.217   1.471   2.916 -0.2083  0.1315 -0.4434
 3540TIP3    H132035   4.290   1.466   2.978  0.0021 -1.0925 -0.7742
 3540TIP3    H232036   4.211   1.563   2.893  1.3568  0.2110 -0.5578
 3541TIP3   OH232037   1.307   0.578   2.130 -0.2051  0.3007 -0.7769
 3541TIP3    H132038   1.376   0.521   2.164 -1.0527 -0.8264 -0.9437
 3541TIP3    H232039   1.337   0.667   2.151  0.8930 -0.2229 -0.1071
 3542TIP3   OH232040   6.785   5.802   2.787 -0.2031 -0.1970 -0.3343
 3542TIP3    H132041   6.777   5.734   2.721 -0.6621 -0.0114 -0.4704
 3542TIP3    H232042   6.856   5.772   2.844  1.3904  0.4883 -1.9133
 3543TIP3   OH232043   4.494   3.186  13.823 -0.2590 -0.2268 -0.2670
 3543TIP3    H132044   4.527   3.178  13.734 -0.5900  1.9114 -0.6161
 3543TIP3    H232045   4.572   3.187  13.878  0.3256  3.6711 -0.9977
 3544TIP3   OH232046   1.302   4.902   3.937  0.1954  0.0924 -0.3060
 3544TIP3    H132047   1.328   4.908   3.845  0.2473  1.2217 -0.2234
 3544TIP3    H232048   1.379   4.929   3.986 -0.5499  1.7769 -0.0104
 3545TIP3   OH232049   4.827   3.707  14.713 -0.5158  0.2051  0.6861
 3545TIP3    H132050   4.883   3.726  14.638 -0.3190  2.0287  1.2756
 3545TIP3    H232051   4.888   3.700  14.787 -0.8368 -0.3012  0.9089
 3546TIP3   OH232052   0.538   0.435  14.126 -0.2957  0.5045  0.1376
 3546TIP3    H132053   0.473   0.492  14.084 -0.1911  1.6304  1.4821
 3546TIP3    H232054   0.621   0.463  14.089 -0.1551  1.8130  1.4432
 3547TIP3   OH232055   2.916   0.204   6.214 -0.0815  0.2479  0.4820
 3547TIP3    H132056   2.947   0.120   6.250 -0.9907 -0.9599 -1.4393
 3547TIP3    H232057   2.883   0.252   6.290 -1.6142 -2.0797  1.3624
 3548TIP3   OH232058   1.054   6.221  15.793  0.6773 -0.3765  0.1620
 3548TIP3    H132059   1.083   6.135  15.762  0.5629 -0.8285  1.2695
 3548TIP3    H232060   0.960   6.223  15.773  0.6626 -0.5498  0.2077
 3549TIP3   OH232061   0.528   5.608   4.425 -0.5383  0.3235  0.1197
 3549TIP3    H132062   0.558   5.637   4.511 -0.6351  2.6516 -0.6141
 3549TIP3    H232063   0.480   5.527   4.442  0.1187  0.3459  2.1441
 3550TIP3   OH232064   3.097   0.669  12.220 -0.2241 -0.0730  0.1154
 3550TIP3    H132065   3.097   0.576  12.244 -0.4582  0.5829  2.8829
 3550TIP3    H232066   3.006   0.687  12.195 -0.3176 -0.4653  0.1652
 3551TIP3   OH232067   0.056   5.006   0.556  0.0470 -0.1332 -0.8041
 3551TIP3    H132068   0.104   4.933   0.596  0.9198  0.9271  0.1480
 3551TIP3    H232069  -0.028   5.008   0.602 -0.3072 -1.0410 -1.4031
 3552TIP3   OH232070   6.362   3.000   3.228 -0.5254 -0.3182 -0.1383
 3552TIP3    H132071   6.441   2.955   3.255 -1.1254 -0.5842  1.1750
 3552TIP3    H232072   6.366   3.086   3.271 -0.4423  0.0759 -0.9110
 3553TIP3   OH232073   5.614   1.531  12.378 -0.7057 -0.0054 -0.2124
 3553TIP3    H132074   5.635   1.438  12.384 -2.1259 -0.2864  0.5304
 3553TIP3    H232075   5.527   1.533  12.340 -0.5550  1.0413 -0.5118
 3554TIP3   OH232076   5.028   0.353   0.284 -0.1898  0.4540 -0.2738
 3554TIP3    H132077   5.007   0.260   0.282  2.7134 -0.2440 -1.5832
 3554TIP3    H232078   5.026   0.375   0.377 -1.5706 -0.7518 -0.0038
 3555TIP3   OH232079   2.767   0.705   3.155 -0.3525 -0.8473 -0.4074
 3555TIP3    H132080   2.790   0.794   3.127 -0.4046 -0.6361  0.2179
 3555TIP3    H232081   2.675   0.711   3.182  0.3303 -0.5483  1.8989
 3556TIP3   OH232082   0.923   4.122  15.181 -0.1948 -0.4892 -0.3830
 3556TIP3    H132083   0.922   4.062  15.106  0.8952 -0.9108 -0.0756
 3556TIP3    H232084   0.977   4.196  15.152  0.6675 -0.8983  0.1570
 3557TIP3   OH232085   5.875   0.745  13.360  0.0724 -0.1300 -0.0705
 3557TIP3    H132086   5.879   0.793  13.443 -2.3202  0.1661 -0.1075
 3557TIP3    H232087   5.933   0.670  13.373  0.4616  0.4289  1.5182
 3558TIP3   OH232088   2.195   6.242  11.792 -0.0096  0.1803 -0.0395
 3558TIP3    H132089   2.275   6.295  11.794  0.4865 -0.6177  2.4932
 3558TIP3    H232090   2.136   6.290  11.733  1.9204  1.3592 -1.0505
 3559TIP3   OH232091   1.467   6.173   2.991  0.1311 -0.0699  0.1124
 3559TIP3    H132092   1.492   6.257   3.030  1.3437  0.3403 -1.4498
 3559TIP3    H232093   1.526   6.164   2.916 -0.4334 -2.0179 -0.1169
 3560TIP3   OH232094   0.756   2.301   5.296 -0.4891  0.0094 -0.2291
 3560TIP3    H132095   0.799   2.216   5.283 -0.6717 -0.2184  0.5913
 3560TIP3    H232096   0.700   2.287   5.373 -0.3303  0.9477  0.0631
 3561TIP3   OH232097   5.733   5.396   0.749 -0.0260  0.2741 -0.4111
 3561TIP3    H132098   5.707   5.379   0.839  1.7120  0.1958  0.0986
 3561TIP3    H232099   5.717   5.313   0.704 -2.5084  0.8081 -0.5997
 3562TIP3   OH232100   2.371   3.436  17.172  0.3966 -0.5238  0.4083
 3562TIP3    H132101   2.339   3.459  17.259 -0.0751 -1.3402  0.4506
 3562TIP3    H232102   2.466   3.428  17.183  0.2720 -1.2356  0.9827
 3563TIP3   OH232103   3.798   6.517  11.226 -0.8107  0.4300 -0.5971
 3563TIP3    H132104   3.757   6.546  11.307 -1.6023 -1.6977 -0.1896
 3563TIP3    H232105   3.725   6.486  11.172  0.0451 -2.1245 -0.3942
 3564TIP3   OH232106   1.989   2.685   6.721 -0.1337 -0.1072 -0.7717
 3564TIP3    H132107   2.051   2.632   6.771 -0.2485 -0.4626 -1.0057
 3564TIP3    H232108   1.916   2.699   6.782 -0.0294 -0.0791 -0.6529
 3565TIP3   OH232109   5.975   4.210   0.823 -0.5682 -0.4805 -0.3756
 3565TIP3    H132110   5.951   4.122   0.852  0.1578  0.0171  1.7584
 3565TIP3    H232111   6.058   4.197   0.775  0.2234 -0.7962  1.0507
 3566TIP3   OH232112   3.702   2.670   5.384  0.4834 -0.3913  0.4525
 3566TIP3    H132113   3.697   2.677   5.479 -0.0661  0.8264  0.3433
 3566TIP3    H232114   3.796   2.677   5.365  0.3578  3.1432  0.6732
 3567TIP3   OH232115   3.679   6.389  11.667 -0.3320  0.2594  0.3761
 3567TIP3    H132116   3.663   6.297  11.644 -0.1349  0.6997 -1.5862
 3567TIP3    H232117   3.671   6.436  11.584  0.6625  1.8795  1.1867
 3568TIP3   OH232118   0.847   4.041   4.054  0.0623 -0.6636 -0.2701
 3568TIP3    H132119   0.872   4.133   4.045 -0.2748 -0.2727  2.3902
 3568TIP3    H232120   0.800   4.021   3.972 -0.1546  1.6150 -0.7315
 3569TIP3   OH232121   0.362   0.097   0.683 -0.6777 -0.2197 -0.1249
 3569TIP3    H132122   0.340   0.016   0.636 -0.4568  0.4569 -1.4204
 3569TIP3    H232123   0.278   0.136   0.705 -0.8342 -1.8279  2.3791
 3570TIP3   OH232124   4.113   0.114  11.535 -0.3031  1.0312 -0.0111
 3570TIP3    H132125   4.056   0.069  11.597  1.5507  1.2314  1.8927
 3570TIP3    H232126   4.092   0.206  11.544 -0.6809  0.9757 -0.3419
 3571TIP3   OH232127   1.789   2.660   0.490  0.4215  0.9239 -0.2770
 3571TIP3    H132128   1.760   2.631   0.577  2.7605 -0.2915  0.1341
 3571TIP3    H232129   1.808   2.753   0.501 -0.0278  0.9459  0.3279
 3572TIP3   OH232130   4.272   3.063   2.732  0.3361 -0.1414 -0.3753
 3572TIP3    H132131   4.271   3.145   2.682  0.0965 -0.2886 -0.6107
 3572TIP3    H232132   4.364   3.051   2.755  0.6694 -0.7542 -1.9231
 3573TIP3   OH232133   3.628   5.805  14.079  0.3186  0.0524  0.4404
 3573TIP3    H132134   3.704   5.764  14.036 -0.8803 -1.3307 -0.4352
 3573TIP3    H232135   3.645   5.794  14.172  0.1497 -2.3248  0.2403
 3574TIP3   OH232136   4.329   2.443  16.537 -0.1054  0.1927 -0.1837
 3574TIP3    H132137   4.313   2.411  16.626 -2.4247  0.6953 -0.3790
 3574TIP3    H232138   4.268   2.394  16.482  0.9843  0.2153 -1.4369
 3575TIP3   OH232139   3.840   1.489   2.714  0.1292  0.0754  0.1807
 3575TIP3    H132140   3.749   1.467   2.735  0.4649 -3.0357 -1.3218
 3575TIP3    H232141   3.836   1.521   2.624  0.3195  1.4615  0.6653
 3576TIP3   OH232142   6.265   6.542  17.139 -0.5739  0.3268  0.3757
 3576TIP3    H132143   6.333   6.492  17.093 -0.2580  0.6900  0.4486
 3576TIP3    H232144   6.228   6.480  17.203 -0.1220  0.2171  0.5298
 3577TIP3   OH232145   0.822   2.014   2.001 -0.0932  0.6645  0.7709
 3577TIP3    H132146   0.761   2.088   2.007 -0.8131  0.0709  0.7787
 3577TIP3    H232147   0.802   1.960   2.077  0.4395  0.4632  0.7699
 3578TIP3   OH232148   3.088   1.893  12.299 -0.1661  0.3450  0.4046
 3578TIP3    H132149   3.021   1.843  12.252 -0.2038  1.5723 -0.8960
 3578TIP3    H232150   3.053   1.902  12.387 -1.3120  0.2055 -0.0201
 3579TIP3   OH232151   2.710   2.639  12.212  0.1753  0.2833  0.0744
 3579TIP3    H132152   2.718   2.654  12.306  0.5776 -2.2088  0.4843
 3579TIP3    H232153   2.722   2.544  12.202 -0.7179  0.3935 -2.3972
 3580TIP3   OH232154   3.752   1.705  12.917  0.3249  0.7763 -0.4200
 3580TIP3    H132155   3.715   1.718  13.004 -0.0681  0.4446 -0.5345
 3580TIP3    H232156   3.843   1.683  12.933  0.7300  2.5659 -0.1851
 3581TIP3   OH232157   0.222   0.181  15.735  0.2421 -0.0837  0.1649
 3581TIP3    H132158   0.242   0.140  15.652  2.6314  0.9103  0.2185
 3581TIP3    H232159   0.225   0.110  15.799  0.7586 -0.4368 -0.2550
 3582TIP3   OH232160   0.485   4.154  13.223  0.1159  0.0953 -0.0241
 3582TIP3    H132161   0.554   4.099  13.260  0.5453  0.1049 -0.8007
 3582TIP3    H232162   0.412   4.146  13.285 -0.6336 -3.0611 -1.2481
 3583TIP3   OH232163   2.117   3.775  10.916  0.2863  0.1544 -0.3037
 3583TIP3    H132164   2.135   3.869  10.924  0.4381  0.1522 -0.6189
 3583TIP3    H232165   2.203   3.735  10.905  0.3314 -0.1539  1.0865
 3584TIP3   OH232166   3.617   5.365  15.817 -0.6197 -0.4079 -0.5236
 3584TIP3    H132167   3.655   5.286  15.779  0.3437 -0.0519 -0.3333
 3584TIP3    H232168   3.682   5.393  15.882 -1.6457 -0.2964  0.4641
 3585TIP3   OH232169   0.938   2.282  13.972  0.5283  0.1722 -0.6000
 3585TIP3    H132170   1.007   2.326  13.922  0.4475  1.0832  0.0777
 3585TIP3    H232171   0.858   2.329  13.949  0.0382 -1.1936 -1.7640
 3586TIP3   OH232172   3.075   6.366  15.751  0.1322  0.6630  0.0266
 3586TIP3    H132173   3.026   6.318  15.818 -0.2935  0.5183 -0.3900
 3586TIP3    H232174   3.167   6.358  15.778  0.0831 -0.5852 -0.1806
 3587TIP3   OH232175   6.374   5.166  16.915 -0.7436  0.6592 -0.4304
 3587TIP3    H132176   6.322   5.211  16.848  0.7956  1.1095 -1.3423
 3587TIP3    H232177   6.407   5.236  16.972 -0.3007  0.4752 -0.4584
 3588TIP3   OH232178   6.564   5.286  16.712 -0.1219  0.0178 -0.1586
 3588TIP3    H132179   6.475   5.320  16.703  0.2006  0.5697 -1.3908
 3588TIP3    H232180   6.617   5.363  16.729  0.2774 -0.1705 -0.5481
 3589TIP3   OH232181   2.163   5.583  10.941 -0.0015 -0.7840 -0.6869
 3589TIP3    H132182   2.116   5.500  10.943  1.0237 -1.5237 -3.9805
 3589TIP3    H232183   2.250   5.563  10.975 -0.3079 -0.6264  0.2129
 3590TIP3   OH232184   0.681   1.492   3.895  0.1048  0.2399 -0.4158
 3590TIP3    H132185   0.737   1.472   3.969 -1.5572  0.2237  0.8687
 3590TIP3    H232186   0.596   1.455   3.918 -1.4052  3.3411 -0.7197
 3591TIP3   OH232187   1.195   1.027   0.985 -0.5457  0.6000 -0.0566
 3591TIP3    H132188   1.279   0.998   1.019  0.3813  1.2667 -1.7373
 3591TIP3    H232189   1.191   0.992   0.896 -1.4126  1.7730 -0.4992
 3592TIP3   OH232190   5.832   6.474   1.740 -0.2969  0.3225  0.3209
 3592TIP3    H132191   5.883   6.528   1.800  0.4502 -0.8228  0.7392
 3592TIP3    H232192   5.854   6.384   1.764 -0.3993 -0.1527 -1.3104
 3593TIP3   OH232193   2.155   0.636   0.297 -0.3502  0.0708 -0.0841
 3593TIP3    H132194   2.186   0.581   0.369  0.2215 -0.4692 -0.7337
 3593TIP3    H232195   2.215   0.711   0.297 -0.6797  0.3343  0.3401
 3594TIP3   OH232196   3.223   4.914  12.057  0.0550  0.8314 -0.2666
 3594TIP3    H132197   3.166   4.879  12.126  0.8766 -0.9658 -0.4552
 3594TIP3    H232198   3.209   4.854  11.983  2.0530  0.4566 -0.3598
 3595TIP3   OH232199   2.074   5.036  15.299 -0.0566  0.0157 -0.6633
 3595TIP3    H132200   2.157   4.992  15.313  0.5350  1.6894  1.3261
 3595TIP3    H232201   2.098   5.124  15.269 -1.1371  0.2591 -0.8445
 3596TIP3   OH232202   3.637   2.629   5.657 -0.4824  0.1726 -0.3390
 3596TIP3    H132203   3.545   2.637   5.633 -0.3706  2.3832 -0.1655
 3596TIP3    H232204   3.636   2.615   5.751 -0.7345 -3.1899 -0.8041
 3597TIP3   OH232205   2.895   3.928   5.238 -0.3932  0.1483  0.4588
 3597TIP3    H132206   2.866   3.849   5.284  2.1013 -1.0462  0.0207
 3597TIP3    H232207   2.974   3.902   5.191  0.3215  2.8363  0.0571
 3598TIP3   OH232208   4.093   6.223  13.865  0.1881 -0.1636 -0.0767
 3598TIP3    H132209   4.025   6.225  13.933 -0.0681 -0.8991 -0.3037
 3598TIP3    H232210   4.052   6.265  13.790  0.3746  0.3952  0.1283
 3599TIP3   OH232211   4.472   4.055   3.117 -0.7908 -0.0403  0.3511
 3599TIP3    H132212   4.494   4.141   3.153 -0.1151  0.0607 -0.2944
 3599TIP3    H232213   4.454   4.001   3.194 -1.3481  0.7083  0.7538
 3600TIP3   OH232214   6.504   0.281  14.516 -0.0147  0.7495  0.3853
 3600TIP3    H132215   6.531   0.212  14.456 -0.2065  1.8976 -1.0637
 3600TIP3    H232216   6.415   0.258  14.541  0.2391  0.0084  0.6121
 3601TIP3   OH232217   4.884   4.889  15.222  0.3319  0.2492 -0.2800
 3601TIP3    H132218   4.793   4.899  15.192  0.2783  0.2199 -0.1258
 3601TIP3    H232219   4.925   4.973  15.201  0.7437 -0.3551 -1.9831
 3602TIP3   OH232220   2.664   0.425  11.466 -0.8068  0.0917  0.1013
 3602TIP3    H132221   2.627   0.404  11.380  1.4707  1.8002 -1.3565
 3602TIP3    H232222   2.710   0.345  11.492  1.5099  0.6686 -1.9689
 3603TIP3   OH232223   2.100   1.213   0.601  0.0966 -0.2984 -0.1631
 3603TIP3    H132224   2.149   1.280   0.554  3.4616 -1.6082  1.3288
 3603TIP3    H232225   2.079   1.252   0.686  0.7016 -0.5705  0.1160
 3604TIP3   OH232226   5.315   6.116   2.968 -0.7362  0.3664 -0.2445
 3604TIP3    H132227   5.383   6.150   2.909  0.0687 -0.7474  0.0380
 3604TIP3    H232228   5.352   6.124   3.055 -0.9019 -0.3908 -0.1010
 3605TIP3   OH232229   5.203   5.886   1.811 -0.1401  0.3030 -0.1294
 3605TIP3    H132230   5.155   5.958   1.852 -2.9617 -1.4186 -0.2498
 3605TIP3    H232231   5.217   5.823   1.882 -0.7731 -0.5628 -0.7645
 3606TIP3   OH232232   5.075   4.887  13.829  0.5771 -0.4833 -0.3985
 3606TIP3    H132233   5.119   4.972  13.825  1.0524 -0.5669  2.0108
 3606TIP3    H232234   4.985   4.909  13.853  0.9367 -0.6988  1.1926
 3607TIP3   OH232235   0.429   6.693   0.479  0.1191 -0.2572  0.2528
 3607TIP3    H132236   0.367   6.717   0.409 -0.7689 -0.8605  0.8254
 3607TIP3    H232237   0.495   6.640   0.434 -0.8935 -1.3453 -0.0054
 3608TIP3   OH232238   6.549   0.413   4.811  0.6506 -0.0552  0.2287
 3608TIP3    H132239   6.460   0.378   4.820  0.5769 -0.2166 -1.0296
 3608TIP3    H232240   6.584   0.369   4.733  1.5869  0.5256  0.3171
 3609TIP3   OH232241   5.437   0.077  13.861  0.1551 -0.2008 -0.4419
 3609TIP3    H132242   5.361   0.020  13.847  0.2764 -0.8007  1.2464
 3609TIP3    H232243   5.479   0.043  13.940  2.0552  0.2787 -1.2080
 3610TIP3   OH232244   0.662   0.364  15.619 -0.1712  0.1452  0.4086
 3610TIP3    H132245   0.689   0.446  15.661  1.4403  0.8322 -1.8702
 3610TIP3    H232246   0.616   0.392  15.540 -0.2456 -1.1368 -0.0167
 3611TIP3   OH232247   6.537   4.424   0.319  0.5940 -0.0999  0.7150
 3611TIP3    H132248   6.475   4.365   0.276 -1.5654  2.3100  0.4039
 3611TIP3    H232249   6.606   4.367   0.351  0.4345 -2.3751 -2.7694
 3612TIP3   OH232250   5.699   3.923   1.489 -0.2636 -0.2662  0.1099
 3612TIP3    H132251   5.693   3.977   1.410 -0.1550 -0.9569 -0.3814
 3612TIP3    H232252   5.633   3.958   1.548 -1.3712 -0.6749 -0.8693
 3613TIP3   OH232253   0.274   1.798   2.775 -0.4521 -0.1707 -0.1706
 3613TIP3    H132254   0.204   1.743   2.812 -1.0604  0.8725  0.2331
 3613TIP3    H232255   0.309   1.846   2.850  1.6994 -1.7441 -0.1079
 3614TIP3   OH232256   2.217   1.691  11.453  0.2363 -0.2060  0.0558
 3614TIP3    H132257   2.312   1.684  11.456  0.4980  2.5151 -0.5376
 3614TIP3    H232258   2.193   1.727  11.538 -0.1236  0.3189 -0.2623
 3615TIP3   OH232259   1.618   6.105   1.447 -0.3985  0.1876  0.0405
 3615TIP3    H132260   1.675   6.170   1.408 -0.0900 -0.6231 -0.8919
 3615TIP3    H232261   1.563   6.075   1.374  0.1685 -1.3273  0.2228
 3616TIP3   OH232262   6.769   3.823  16.811 -0.3595  0.3773  0.7454
 3616TIP3    H132263   6.828   3.896  16.792  0.2164 -0.5634 -1.1889
 3616TIP3    H232264   6.818   3.768  16.872  0.4150  0.0717 -0.1395
 3617TIP3   OH232265   5.664   1.528  14.753  0.6539 -0.3921  0.1462
 3617TIP3    H132266   5.627   1.616  14.758 -0.2574 -0.8529  1.7401
 3617TIP3    H232267   5.675   1.512  14.659  1.3855  1.6388 -0.1471
 3618TIP3   OH232268   1.018   1.332   2.194 -0.0668 -0.1036 -0.3170
 3618TIP3    H132269   1.093   1.345   2.251  0.6488  1.3055 -1.5503
 3618TIP3    H232270   1.049   1.275   2.124  0.1061  1.0919 -1.2438
 3619TIP3   OH232271   3.678   4.903  17.085 -0.0324 -0.5585  0.5801
 3619TIP3    H132272   3.723   4.833  17.133  1.3038 -0.2712 -0.2456
 3619TIP3    H232273   3.741   4.976  17.085  0.0577 -0.6255 -1.7954
 3620TIP3   OH232274   0.353   2.442  16.323  0.2205  0.4770 -0.5382
 3620TIP3    H132275   0.434   2.484  16.296  0.6775  0.5992  0.9595
 3620TIP3    H232276   0.357   2.443  16.419  0.6024 -3.6811 -0.4385
 3621TIP3   OH232277   4.719   0.107   0.616 -0.4402  0.1168  0.2348
 3621TIP3    H132278   4.811   0.105   0.589 -0.1822  0.6885  1.0078
 3621TIP3    H232279   4.674   0.153   0.546 -0.7992 -3.3702 -1.9115
 3622TIP3   OH232280   2.819   6.144  16.222 -0.1184  0.1957  0.1906
 3622TIP3    H132281   2.898   6.096  16.197 -0.3807 -0.2468  0.2025
 3622TIP3    H232282   2.778   6.167  16.139  0.7993  1.7565  0.1389
 3623TIP3   OH232283   3.437   5.185   0.808 -0.3836 -0.2050  0.0919
 3623TIP3    H132284   3.374   5.214   0.742  0.6722 -2.0690 -1.7778
 3623TIP3    H232285   3.479   5.265   0.838 -1.8359  0.7952 -0.4952
 3624TIP3   OH232286   2.205   4.192  16.078 -0.3947 -0.8225  0.3468
 3624TIP3    H132287   2.220   4.279  16.039 -2.4063 -0.5559  0.1034
 3624TIP3    H232288   2.273   4.184  16.145  1.5702 -0.2408 -1.5262
 3625TIP3   OH232289   1.095   0.813  16.327  0.3742  0.2195  0.5670
 3625TIP3    H132290   1.147   0.891  16.347  2.7437 -0.2904 -3.0803
 3625TIP3    H232291   1.151   0.739  16.352 -0.4975 -0.3149  0.9586
 3626TIP3   OH232292   5.127   0.808  11.497 -0.2297  0.7916  0.5387
 3626TIP3    H132293   5.069   0.814  11.573 -0.8444 -1.0838  0.2316
 3626TIP3    H232294   5.207   0.767  11.531 -0.8233 -0.8308  0.0169
 3627TIP3   OH232295   3.400   5.629   3.828  0.3007  0.5666 -0.2203
 3627TIP3    H132296   3.385   5.594   3.740 -0.5592  0.8966 -0.2100
 3627TIP3    H232297   3.395   5.724   3.817 -2.2324  0.5625  0.5959
 3628TIP3   OH232298   6.322   6.332  11.939  0.0511 -1.4533 -0.5351
 3628TIP3    H132299   6.298   6.383  11.861 -1.5694  0.1863  0.9851
 3628TIP3    H232300   6.417   6.338  11.943 -0.0842  1.4938 -0.4286
 3629TIP3   OH232301   5.094   5.346  17.053  0.1992  0.7194  0.2952
 3629TIP3    H132302   5.102   5.358  17.148  2.2215  0.5890  0.1561
 3629TIP3    H232303   5.123   5.256  17.039  1.2178  1.1874 -0.6026
 3630TIP3   OH232304   3.082   4.082  15.359  0.4841 -0.4801 -0.1417
 3630TIP3    H132305   3.025   4.158  15.355  0.8341 -0.2332 -0.5713
 3630TIP3    H232306   3.036   4.014  15.311  0.4540 -0.3443 -0.3058
 3631TIP3   OH232307   1.153   1.428  10.922 -0.2383  0.3528  0.5481
 3631TIP3    H132308   1.083   1.391  10.869  1.1435  0.2985 -1.2673
 3631TIP3    H232309   1.232   1.386  10.891  0.9145  2.1784  0.9126
 3632TIP3   OH232310   0.428   3.971  16.655  0.2408  0.1874  0.7362
 3632TIP3    H132311   0.523   3.975  16.659  0.2677  1.2048 -0.6010
 3632TIP3    H232312   0.408   3.878  16.643  0.9774 -0.2329  2.5936
 3633TIP3   OH232313   5.430   6.782  13.309  0.4235 -0.9097  0.1721
 3633TIP3    H132314   5.524   6.770  13.318  0.6372  1.5416  1.4963
 3633TIP3    H232315   5.400   6.806  13.396 -1.0675  0.5602 -0.7186
 3634TIP3   OH232316   4.004   4.759  12.229 -0.6637  0.6523 -0.2348
 3634TIP3    H132317   3.990   4.854  12.222 -0.8531  0.6536  0.1417
 3634TIP3    H232318   4.031   4.732  12.141  0.1656  1.1860 -0.1430
 3635TIP3   OH232319   4.008   1.866   3.477 -0.1633  0.6867 -0.3547
 3635TIP3    H132320   3.960   1.924   3.536  1.1585  1.8035 -0.3670
 3635TIP3    H232321   3.959   1.784   3.479 -1.9588  1.7449 -0.2075
 3636TIP3   OH232322   1.405   5.852   1.675 -0.1867  0.2657  0.5365
 3636TIP3    H132323   1.399   5.798   1.754  0.3389  1.3512  1.3136
 3636TIP3    H232324   1.446   5.794   1.610 -0.8787 -0.7182  0.9620
 3637TIP3   OH232325   1.766   1.990   2.223 -0.2332 -0.5044 -0.3558
 3637TIP3    H132326   1.676   1.996   2.191 -0.2696 -1.6904 -0.4871
 3637TIP3    H232327   1.818   2.031   2.154 -0.6864  0.3222 -0.2113
 3638TIP3   OH232328   6.117   6.457  16.882 -0.0915 -0.1974 -0.0417
 3638TIP3    H132329   6.166   6.500  16.952 -0.6594 -1.5700  1.2422
 3638TIP3    H232330   6.144   6.365  16.888 -1.5611 -0.6584 -0.4010
 3639TIP3   OH232331   3.960   2.898  16.015 -0.2648  0.6878 -0.3055
 3639TIP3    H132332   3.866   2.916  16.003 -0.0918  0.7409 -1.6919
 3639TIP3    H232333   3.980   2.833  15.947  0.0531 -1.6208  1.9108
 3640TIP3   OH232334   5.179   1.745   2.417 -0.3416  0.4112 -0.2841
 3640TIP3    H132335   5.259   1.785   2.450 -0.0491  0.3940 -0.9763
 3640TIP3    H232336   5.180   1.761   2.323 -1.7637  1.4851 -0.1403
 3641TIP3   OH232337   0.118   2.766   1.610 -0.8847  0.0670  0.2759
 3641TIP3    H132338   0.119   2.755   1.515 -0.1771  1.4173  0.1155
 3641TIP3    H232339   0.145   2.681   1.644 -0.5024 -0.2349 -0.7503
 3642TIP3   OH232340   5.830   4.244  10.895  0.6034 -0.9967  0.0186
 3642TIP3    H132341   5.897   4.298  10.853  1.6783 -0.8796  1.8005
 3642TIP3    H232342   5.819   4.282  10.982 -0.8287 -1.8226  0.2165
 3643TIP3   OH232343   5.020   4.716   2.185  0.2627  0.3976  0.5151
 3643TIP3    H132344   5.027   4.624   2.213 -0.7978  0.1405 -0.0126
 3643TIP3    H232345   5.090   4.727   2.121 -0.3274 -0.3857 -0.2857
 3644TIP3   OH232346   0.346   4.046  16.353  0.2049  0.2487  0.0463
 3644TIP3    H132347   0.441   4.030  16.358  0.6193  2.3009 -0.8444
 3644TIP3    H232348   0.321   4.067  16.442  0.4002 -1.1985  0.4622
 3645TIP3   OH232349   0.621   4.012  16.306  0.3605  0.4742  0.1731
 3645TIP3    H132350   0.692   4.065  16.342  0.7870 -1.5008  2.3184
 3645TIP3    H232351   0.651   3.922  16.314 -0.4558 -0.1837 -3.2183
 3646TIP3   OH232352   5.758   1.333  15.906  0.5619  0.4601 -0.3229
 3646TIP3    H132353   5.801   1.299  15.828  0.6279 -0.0356 -0.0705
 3646TIP3    H232354   5.826   1.332  15.973 -0.1680 -1.5036  0.4096
 3647TIP3   OH232355   5.158   3.921   4.570 -0.2814 -0.3661  0.5654
 3647TIP3    H132356   5.172   4.015   4.563  1.4392 -0.4339  2.5980
 3647TIP3    H232357   5.103   3.911   4.648  0.0006 -1.0691  0.6773
 3648TIP3   OH232358   3.014   1.851   2.379  0.0821  0.1027 -0.3502
 3648TIP3    H132359   3.017   1.777   2.319  1.1388 -0.9941  1.0270
 3648TIP3    H232360   2.983   1.924   2.326 -0.4725 -1.2027 -1.8466
 3649TIP3   OH232361   6.781   4.120   0.991  0.2269 -0.4861  0.1762
 3649TIP3    H132362   6.746   4.149   1.075  0.6407  0.7973 -0.0804
 3649TIP3    H232363   6.722   4.050   0.963  1.4606 -2.6392  2.6569
 3650TIP3   OH232364   2.937   6.263   1.245  0.0884 -0.0295 -0.2099
 3650TIP3    H132365   2.917   6.177   1.208 -1.3469 -0.1300  0.7420
 3650TIP3    H232366   3.013   6.248   1.301  0.1552 -0.5667 -0.4422
 3651TIP3   OH232367   3.743   1.310  17.161 -0.3726  0.1955  0.1566
 3651TIP3    H132368   3.801   1.385  17.173 -0.3494 -0.5146  5.2684
 3651TIP3    H232369   3.662   1.347  17.126  0.1667  2.3591  1.1739
 3652TIP3   OH232370   4.941   2.013   0.401  0.0227  0.4424  0.4326
 3652TIP3    H132371   4.996   2.011   0.322 -0.6389  0.4777 -0.0312
 3652TIP3    H232372   4.871   2.074   0.380 -1.5152 -1.3864  0.1490
 3653TIP3   OH232373   3.090   6.632   1.621 -0.4296  0.3160  0.5053
 3653TIP3    H132374   3.175   6.663   1.590  0.2101 -1.7968  0.0671
 3653TIP3    H232375   3.027   6.672   1.560  0.4285  0.2172 -0.4693
 3654TIP3   OH232376   0.904   4.123  13.158  0.2799 -0.1796  0.0713
 3654TIP3    H132377   0.834   4.177  13.120 -0.5377 -0.9945  0.4127
 3654TIP3    H232378   0.916   4.051  13.096  1.1580  0.2190 -0.2281
 3655TIP3   OH232379   2.545   1.703  14.022 -0.3224  0.0259 -0.0936
 3655TIP3    H132380   2.474   1.687  13.960 -0.0353 -0.0822 -0.3980
 3655TIP3    H232381   2.513   1.774  14.078  0.0628  1.2722 -1.4127
 3656TIP3   OH232382   3.840   1.970   6.394  0.3428 -0.2735 -0.3465
 3656TIP3    H132383   3.786   1.940   6.467  0.7326 -0.3424 -0.0817
 3656TIP3    H232384   3.781   1.971   6.319  0.1004 -0.8537 -0.1692
 3657TIP3   OH232385   2.186   3.590  17.015 -0.1327  0.1532  0.2622
 3657TIP3    H132386   2.104   3.612  17.059  0.7121  2.4910  0.7467
 3657TIP3    H232387   2.240   3.549  17.083 -0.4809 -0.3918  0.2171
 3658TIP3   OH232388   0.836   4.640  12.105 -0.3789  0.1577 -0.5030
 3658TIP3    H132389   0.848   4.663  12.197 -0.2444  2.8422 -1.1312
 3658TIP3    H232390   0.918   4.669  12.063 -0.5197 -0.8568 -1.4935
 3659TIP3   OH232391   4.151   3.847  12.433  0.0880  0.6216 -0.4139
 3659TIP3    H132392   4.198   3.864  12.515  0.9126 -0.0552 -0.7459
 3659TIP3    H232393   4.168   3.755  12.414 -1.6188  0.2875 -0.3932
 3660TIP3   OH232394   3.891   0.883   4.360 -0.4051  0.1503  0.2595
 3660TIP3    H132395   3.823   0.827   4.397 -1.1999 -0.5803 -2.2073
 3660TIP3    H232396   3.911   0.946   4.430 -2.2217 -0.8081  1.6955
 3661TIP3   OH232397   2.847   0.098   4.976 -0.1272 -0.1187  0.0612
 3661TIP3    H132398   2.913   0.087   4.908 -2.1739 -1.9497 -1.7180
 3661TIP3    H232399   2.851   0.017   5.027 -0.1276  0.3213  0.7751
 3662TIP3   OH232400   3.573   3.328  12.857  0.4596 -0.2276 -0.2526
 3662TIP3    H132401   3.665   3.306  12.845 -0.1562 -2.4645 -1.3215
 3662TIP3    H232402   3.540   3.262  12.918 -0.3563  0.7801  0.4216
 3663TIP3   OH232403   2.387   3.284  13.106 -0.4837  0.1136  0.4483
 3663TIP3    H132404   2.300   3.317  13.128  0.6078  2.8622  0.8151
 3663TIP3    H232405   2.411   3.328  13.025  0.7187 -0.3132  0.5490
 3664TIP3   OH232406   0.624   5.396   2.639 -0.5533  0.0279 -0.3191
 3664TIP3    H132407   0.640   5.429   2.551  2.3841  0.0273  0.1758
 3664TIP3    H232408   0.661   5.462   2.697 -0.1924 -1.1690  0.8423
 3665TIP3   OH232409   5.284   1.162   5.861 -0.3606 -0.1688 -0.2364
 3665TIP3    H132410   5.375   1.134   5.856  0.4059  2.1940 -0.0522
 3665TIP3    H232411   5.282   1.247   5.817 -1.8310  1.2378  2.4067
 3666TIP3   OH232412   6.675   0.213  13.134 -0.2095  0.4405 -0.3293
 3666TIP3    H132413   6.637   0.181  13.052  0.1140  0.8914 -0.6564
 3666TIP3    H232414   6.739   0.278  13.107  0.1359  0.3500  0.2699
 3667TIP3   OH232415   4.615   2.024   1.276 -0.1349 -0.1252  0.2818
 3667TIP3    H132416   4.555   1.986   1.341 -0.8632  0.0614 -0.2760
 3667TIP3    H232417   4.574   2.006   1.192  1.6860 -1.9330 -0.2655
 3668TIP3   OH232418   1.020   4.383  15.509  0.1711 -0.1026 -0.0923
 3668TIP3    H132419   1.040   4.410  15.599 -1.0592 -1.6323  0.6722
 3668TIP3    H232420   1.066   4.300  15.498 -0.4593 -0.3915 -0.5507
 3669TIP3   OH232421   4.086   4.630  13.399  0.6584  0.1862 -0.2759
 3669TIP3    H132422   4.117   4.540  13.407  0.0031 -0.0226 -0.1118
 3669TIP3    H232423   4.163   4.684  13.421  1.4063 -0.3110 -1.5795
 3670TIP3   OH232424   0.107   5.610  11.264  0.4730  0.1416 -0.7096
 3670TIP3    H132425   0.102   5.701  11.236  0.1783  1.2610  2.7650
 3670TIP3    H232426   0.194   5.601  11.302 -0.0348 -0.5941  0.3186
 3671TIP3   OH232427   3.086   2.494  15.451 -0.4245 -0.3643 -0.2414
 3671TIP3    H132428   3.069   2.401  15.466 -1.3437 -0.5135 -2.1134
 3671TIP3    H232429   3.007   2.539  15.482  0.8404  0.0247  2.6383
 3672TIP3   OH232430   6.139   6.181   1.768  0.0875 -0.2267  0.2813
 3672TIP3    H132431   6.150   6.091   1.799 -0.2455 -0.8446 -1.3632
 3672TIP3    H232432   6.047   6.186   1.741 -0.2417  0.9874  1.5182
 3673TIP3   OH232433   5.703   0.141  11.352  0.1080  0.2850  0.2643
 3673TIP3    H132434   5.767   0.122  11.283 -0.0886  0.5285  0.0124
 3673TIP3    H232435   5.634   0.077  11.338 -0.1102  0.5771  0.0012
 3674TIP3   OH232436   0.986   5.329   3.906 -0.0343 -0.5400 -0.0382
 3674TIP3    H132437   0.919   5.328   3.975 -2.1775 -0.4208 -2.0417
 3674TIP3    H232438   0.969   5.410   3.857  1.9013 -0.2695 -0.2790
 3675TIP3   OH232439   6.695   0.614  13.480  0.1114 -0.3667 -0.6535
 3675TIP3    H132440   6.621   0.674  13.484 -0.6290 -1.1261 -2.4758
 3675TIP3    H232441   6.660   0.531  13.511  0.8813 -0.1302  0.9167
 3676TIP3   OH232442   0.624   4.886  11.389  0.3170 -0.1183  0.9288
 3676TIP3    H132443   0.577   4.803  11.382 -1.2580  0.5960  2.4981
 3676TIP3    H232444   0.593   4.937  11.314 -0.9691  0.1170  1.6099
 3677TIP3   OH232445   4.799   4.512  15.849  0.2776  0.0962 -0.3353
 3677TIP3    H132446   4.779   4.573  15.778 -0.6835 -0.8912 -0.9144
 3677TIP3    H232447   4.847   4.440  15.806  1.3335  0.3852  0.3316
 3678TIP3   OH232448   4.576   4.368  15.722 -0.1211  0.3989 -0.0727
 3678TIP3    H132449   4.647   4.391  15.782 -0.0108 -2.1339  0.8340
 3678TIP3    H232450   4.497   4.381  15.773 -0.1712  0.6790 -0.2207
 3679TIP3   OH232451   4.658   0.602   3.630  0.4387  0.3237 -0.3864
 3679TIP3    H132452   4.626   0.569   3.546 -0.6815 -1.3834  0.7163
 3679TIP3    H232453   4.591   0.578   3.693  1.4602  1.2827  1.0857
 3680TIP3   OH232454   6.520   5.335   3.444  0.0545  0.3182 -0.0159
 3680TIP3    H132455   6.560   5.269   3.388 -0.5392 -0.8726  0.9478
 3680TIP3    H232456   6.593   5.392   3.469  0.5207  0.1964 -1.0647
 3681TIP3   OH232457   5.982   3.827  14.915 -0.3761 -0.3809 -0.6029
 3681TIP3    H132458   5.987   3.756  14.979 -0.6119  0.1584  0.0244
 3681TIP3    H232459   6.069   3.829  14.875 -0.1320 -0.5350 -0.0859
 3682TIP3   OH232460   6.545   3.095   5.183 -0.1875 -0.1842 -0.2796
 3682TIP3    H132461   6.457   3.070   5.156 -0.3883 -0.5219  0.6711
 3682TIP3    H232462   6.567   3.034   5.253  0.7600 -0.0314 -0.4377
 3683TIP3   OH232463   4.124   3.230   0.953 -0.3673  0.0503  0.0991
 3683TIP3    H132464   4.100   3.288   1.024  1.8237  0.3831  0.6162
 3683TIP3    H232465   4.126   3.143   0.992 -2.2010 -0.1997 -0.3229
 3684TIP3   OH232466   2.032   3.888  16.705 -0.6066 -0.3255  0.4300
 3684TIP3    H132467   2.088   3.837  16.647 -1.3518 -0.6113 -0.0424
 3684TIP3    H232468   2.042   3.978  16.675 -0.9093 -0.4606 -0.0820
 3685TIP3   OH232469   0.569   0.434   1.283 -0.1254  0.5417 -0.7646
 3685TIP3    H132470   0.533   0.355   1.322  3.4208 -0.4624  0.6186
 3685TIP3    H232471   0.538   0.505   1.339 -0.0149 -0.2990  0.3665
 3686TIP3   OH232472   2.427   6.739  15.175 -0.4549  0.0942  0.2914
 3686TIP3    H132473   2.430   6.690  15.258 -0.7549  0.0886  0.2987
 3686TIP3    H232474   2.351   6.704  15.129 -0.9675  0.9103  0.5139
 3687TIP3   OH232475   1.057   1.348   1.777  0.3677 -0.3349  0.0914
 3687TIP3    H132476   0.971   1.320   1.810  0.4083 -1.2175 -0.5413
 3687TIP3    H232477   1.039   1.430   1.731  0.1405  0.3559  1.3852
 3688TIP3   OH232478   1.006   2.174   1.175  0.0303  0.3047 -0.0345
 3688TIP3    H132479   0.953   2.208   1.103  1.1359 -1.5840 -1.8032
 3688TIP3    H232480   1.090   2.219   1.166  0.5606 -0.7811 -0.6782
 3689TIP3   OH232481   6.174   2.378   3.063 -0.2091 -0.2939 -0.5028
 3689TIP3    H132482   6.090   2.354   3.101  0.0046  0.2995  0.3587
 3689TIP3    H232483   6.152   2.416   2.978 -0.9302  1.2027  0.3352
 3690TIP3   OH232484   5.563   1.074  13.483 -0.2285 -0.2115 -0.4165
 3690TIP3    H132485   5.621   1.083  13.559 -1.9218  1.8416  0.6755
 3690TIP3    H232486   5.619   1.092  13.407  1.3617 -1.8065  0.3421
 3691TIP3   OH232487   0.525   4.570   0.863 -0.5346 -0.0089  0.0557
 3691TIP3    H132488   0.606   4.596   0.820  0.1943 -0.4990  1.1051
 3691TIP3    H232489   0.516   4.477   0.844  0.4551 -0.5182  1.9869
 3692TIP3   OH232490   6.702   1.242  15.906 -0.1850  0.1139  0.2875
 3692TIP3    H132491   6.777   1.263  15.961  0.5335  0.3213 -0.7505
 3692TIP3    H232492   6.627   1.243  15.965  0.5944  0.1802  1.2805
 3693TIP3   OH232493   2.057   5.390   5.699  0.6973 -0.4601  0.0464
 3693TIP3    H132494   2.020   5.307   5.728 -1.4549  0.7789  0.9754
 3693TIP3    H232495   2.066   5.442   5.780  1.2149  0.5176 -0.6280
 3694TIP3   OH232496   4.416   0.630   3.242 -0.1640  0.1284 -0.2307
 3694TIP3    H132497   4.468   0.560   3.281 -0.2947 -0.0726 -0.4139
 3694TIP3    H232498   4.334   0.629   3.292 -1.0025 -1.2360 -1.5759
 3695TIP3   OH232499   6.002   6.037   0.156  0.0601 -0.3820  0.5583
 3695TIP3    H132500   6.031   5.965   0.100 -1.8098  0.4649 -1.6020
 3695TIP3    H232501   5.937   6.084   0.103  0.5441  2.3481  2.2666
 3696TIP3   OH232502   3.524   6.771   4.260  0.4080  0.0813 -0.0906
 3696TIP3    H132503   3.509   6.686   4.300 -0.4405 -0.4896 -1.6026
 3696TIP3    H232504   3.505   6.834   4.330 -0.3874 -0.9202  0.5984
 3697TIP3   OH232505   6.344   4.610   1.246  0.1751 -0.2284  0.5086
 3697TIP3    H132506   6.401   4.683   1.269  0.8175 -0.5049 -0.1702
 3697TIP3    H232507   6.396   4.556   1.186 -1.1776  0.1094 -1.0165
 3698TIP3   OH232508   0.420   6.511  16.436 -0.4165  0.0808 -0.1459
 3698TIP3    H132509   0.390   6.578  16.375  2.5539  1.8092  0.1883
 3698TIP3    H232510   0.516   6.511  16.426 -0.1112 -1.7449  2.3089
 3699TIP3   OH232511   4.770   3.170  15.211 -0.5231  0.9475 -0.0729
 3699TIP3    H132512   4.750   3.079  15.193 -1.9390  1.0763  0.7327
 3699TIP3    H232513   4.773   3.212  15.125 -0.3690  0.2557 -0.4108
 3700TIP3   OH232514   3.645   6.520  15.795 -0.2335  0.0306 -0.4254
 3700TIP3    H132515   3.686   6.481  15.872  0.4416 -1.3493 -1.4581
 3700TIP3    H232516   3.717   6.559  15.746 -0.7924  1.7980  0.1424
 3701TIP3   OH232517   4.569   0.427   6.601  0.1833 -0.0334 -0.4335
 3701TIP3    H132518   4.554   0.481   6.679 -0.1265  0.7528 -1.0425
 3701TIP3    H232519   4.648   0.462   6.562 -0.0987  0.0700 -0.9090
 3702TIP3   OH232520   3.048   6.451   3.922 -0.5397  0.1146  0.3210
 3702TIP3    H132521   3.026   6.461   4.015  1.2134  0.3571  0.7216
 3702TIP3    H232522   2.979   6.499   3.876 -1.5276 -0.1695  1.4894
 3703TIP3   OH232523   2.929   0.456  15.429  0.0369  0.5223  1.3030
 3703TIP3    H132524   2.847   0.506  15.425  0.9882  2.0512  0.5948
 3703TIP3    H232525   2.998   0.520  15.414  1.4810 -0.4831  3.3833
 3704TIP3   OH232526   2.895   6.334   3.372  0.1793  0.0097  0.7603
 3704TIP3    H132527   2.948   6.412   3.390  0.2260  0.0643  0.3800
 3704TIP3    H232528   2.934   6.296   3.293 -3.1479  2.5961 -2.2978
 3705TIP3   OH232529   3.094   5.032   3.165  0.0616  0.5488 -0.0167
 3705TIP3    H132530   3.096   5.089   3.243 -0.1862 -1.8887  1.8258
 3705TIP3    H232531   3.002   5.031   3.139 -0.5028 -1.6336  1.9711
 3706TIP3   OH232532   2.113   3.934   3.546 -0.0912 -0.0904 -0.0438
 3706TIP3    H132533   2.049   3.924   3.476 -1.9746  0.5453  1.5554
 3706TIP3    H232534   2.089   3.868   3.611  2.0576 -1.1414 -0.2739
 3707TIP3   OH232535   3.015   4.086  12.794 -0.2707  0.8951  0.6711
 3707TIP3    H132536   3.088   4.113  12.739  1.1756 -0.4599  1.8649
 3707TIP3    H232537   3.037   4.119  12.881  0.1345 -1.5172  1.5425
 3708TIP3   OH232538   2.959   2.460  16.199  0.2967  0.3843 -0.4897
 3708TIP3    H132539   3.052   2.480  16.207 -0.5837  4.8618  0.0935
 3708TIP3    H232540   2.934   2.428  16.286  1.2038 -0.4757 -0.5383
 3709TIP3   OH232541   3.703   2.077   1.877 -0.2972 -0.3499 -0.1108
 3709TIP3    H132542   3.715   2.005   1.939  0.5474  0.7375  1.0086
 3709TIP3    H232543   3.780   2.071   1.820 -0.9133 -1.1535 -0.8753
 3710TIP3   OH232544   4.027   5.778   2.530 -0.0289  0.3042 -0.2137
 3710TIP3    H132545   3.993   5.694   2.562 -0.8095  0.0413 -1.6794
 3710TIP3    H232546   4.097   5.801   2.591 -1.7146  0.0055  1.9056
 3711TIP3   OH232547   6.739   2.692  11.965  0.1968 -0.2706  0.2592
 3711TIP3    H132548   6.802   2.645  11.909  0.7751 -1.0092  1.5193
 3711TIP3    H232549   6.714   2.768  11.912  0.9296 -0.8137 -0.9172
 3712TIP3   OH232550   2.576   5.934  11.254  0.2980  0.3127  0.1935
 3712TIP3    H132551   2.604   5.956  11.165  1.7109 -1.0675  0.2801
 3712TIP3    H232552   2.505   5.871  11.242  0.5932  0.0089  0.0496
 3713TIP3   OH232553   0.202   1.193  14.318  0.4930 -0.2249 -0.4842
 3713TIP3    H132554   0.169   1.240  14.395  1.1016 -0.8140  0.1442
 3713TIP3    H232555   0.129   1.194  14.257 -0.1452 -0.1170  0.2656
 3714TIP3   OH232556   2.343   6.358   3.552  0.4030  0.0769 -0.4541
 3714TIP3    H132557   2.416   6.407   3.588 -0.8151  1.2328  0.5172
 3714TIP3    H232558   2.266   6.411   3.574 -0.5278 -0.0222 -3.3427
 3715TIP3   OH232559   3.024   0.756  13.242  0.0181  0.1701 -0.8853
 3715TIP3    H132560   3.075   0.675  13.239  0.7814  0.6314 -0.4466
 3715TIP3    H232561   2.934   0.728  13.258  0.8024 -0.3878  2.9431
 3716TIP3   OH232562   4.837   1.183  11.850  0.4635  0.2984  0.4330
 3716TIP3    H132563   4.801   1.151  11.767  0.5474  0.1156  0.4655
 3716TIP3    H232564   4.812   1.275  11.853  1.2874  0.5535 -0.2482
 3717TIP3   OH232565   1.335   0.302   3.200 -0.0742  0.1812  0.6848
 3717TIP3    H132566   1.256   0.356   3.192 -0.0501  0.1051 -0.1471
 3717TIP3    H232567   1.304   0.212   3.193  0.1253  0.1634 -0.0825
 3718TIP3   OH232568   2.524   4.664   2.850 -0.7638 -0.1903  0.0187
 3718TIP3    H132569   2.590   4.702   2.908 -0.2373  0.6659 -1.1148
 3718TIP3    H232570   2.443   4.666   2.901 -0.4740  1.2781  0.4477
 3719TIP3   OH232571   5.381   2.268  12.168 -0.2206  0.2020 -0.1920
 3719TIP3    H132572   5.456   2.290  12.223  0.1303  1.9810 -1.3464
 3719TIP3    H232573   5.418   2.255  12.080 -0.9412 -1.3413 -0.2935
 3720TIP3   OH232574   0.355   0.641   0.845 -0.2402 -0.1127  0.6821
 3720TIP3    H132575   0.350   0.707   0.914 -2.4849 -0.8399  1.2511
 3720TIP3    H232576   0.400   0.567   0.886  1.1262  0.5474  0.4253
 3721TIP3   OH232577   6.471   0.062  14.912  0.1166 -0.1185 -0.2767
 3721TIP3    H132578   6.454   0.156  14.913 -0.6749 -0.2643  0.7297
 3721TIP3    H232579   6.556   0.052  14.953  1.4155  0.3717 -2.7443
 3722TIP3   OH232580   2.262   3.697  13.699 -0.1311 -0.6086  0.0838
 3722TIP3    H132581   2.322   3.632  13.664 -2.6538 -1.8211 -2.1243
 3722TIP3    H232582   2.269   3.687  13.794  1.3834 -2.2954 -0.1755
 3723TIP3   OH232583   5.393   0.080  14.338  0.4239 -0.0485  0.0460
 3723TIP3    H132584   5.424   0.149  14.280  2.0990 -1.0284 -0.2579
 3723TIP3    H232585   5.316   0.117  14.380 -1.4080  0.3584 -3.4721
 3724TIP3   OH232586   2.437   3.628   5.408 -0.8216  0.2928  0.1725
 3724TIP3    H132587   2.359   3.683   5.419 -1.5439 -0.6007 -0.3755
 3724TIP3    H232588   2.424   3.556   5.469 -1.0519 -0.5322 -0.8328
 3725TIP3   OH232589   6.563   4.471   2.302  0.3261 -0.1234  0.0257
 3725TIP3    H132590   6.497   4.406   2.281  0.7313 -0.6396  0.3278
 3725TIP3    H232591   6.615   4.431   2.373  3.6471 -1.5980 -3.0682
 3726TIP3   OH232592   4.585   5.131  11.344  0.4101  0.3396  0.0153
 3726TIP3    H132593   4.628   5.066  11.288  0.5656 -1.7620  2.4742
 3726TIP3    H232594   4.647   5.204  11.348  0.9528 -0.0354 -1.5050
 3727TIP3   OH232595   2.728   5.042  15.428 -0.4937 -0.8689  0.1445
 3727TIP3    H132596   2.714   5.071  15.338 -1.7410  0.4335  0.7459
 3727TIP3    H232597   2.820   5.063  15.446 -1.0617  1.7492  0.1960
 3728TIP3   OH232598   6.441   0.167  15.997 -0.7668  0.2899 -0.3602
 3728TIP3    H132599   6.453   0.244  16.053 -2.5538  0.3310 -0.0121
 3728TIP3    H232600   6.352   0.137  16.016  1.0490 -4.0638  2.3026
 3729TIP3   OH232601   3.004   2.374  16.817 -0.6326  0.0624  0.3917
 3729TIP3    H132602   2.960   2.290  16.829 -0.2979 -0.3491 -1.1924
 3729TIP3    H232603   3.073   2.357  16.753  0.5431  1.1625  1.3473
 3730TIP3   OH232604   6.652   6.568   4.073  0.3236  0.2758  0.3799
 3730TIP3    H132605   6.607   6.534   4.150  0.2574  2.5743  1.3893
 3730TIP3    H232606   6.585   6.621   4.028  0.4716 -0.7218 -1.0668
 3731TIP3   OH232607   1.619   2.811   0.774  0.4222  0.1656 -0.1116
 3731TIP3    H132608   1.592   2.862   0.851  1.5928  1.1629 -0.3537
 3731TIP3    H232609   1.540   2.804   0.721 -0.4990 -0.8575  1.3515
 3732TIP3   OH232610   0.721   2.547   1.254  0.0432 -0.3904 -0.1758
 3732TIP3    H132611   0.681   2.600   1.322 -2.9047 -0.5942 -1.6793
 3732TIP3    H232612   0.802   2.593   1.231  0.5257  0.2386  2.6506
 3733TIP3   OH232613   0.717   1.031  11.605  0.3489  0.1647  0.1802
 3733TIP3    H132614   0.696   1.048  11.513  0.5761 -1.6199 -0.2191
 3733TIP3    H232615   0.644   1.069  11.654 -0.7337 -0.5682 -0.8456
 3734TIP3   OH232616   5.347   2.836  12.734  0.2337  0.2490 -0.2796
 3734TIP3    H132617   5.383   2.862  12.818  1.9108  1.7248 -1.4230
 3734TIP3    H232618   5.253   2.826  12.750  0.2028  2.6781  1.2359
 3735TIP3   OH232619   5.432   3.129  13.348 -0.2467  0.0437 -0.5126
 3735TIP3    H132620   5.387   3.167  13.424 -0.3537 -0.1144 -0.4977
 3735TIP3    H232621   5.522   3.162  13.355  0.5513 -2.3671  1.3759
 3736TIP3   OH232622   2.054   6.784  14.973 -0.0556  0.4600  0.6789
 3736TIP3    H132623   2.127   6.842  14.953 -0.3122  0.2953 -0.8283
 3736TIP3    H232624   2.092   6.711  15.021  1.0108 -0.3058 -1.2872
 3737TIP3   OH232625   5.402   2.056  13.437  0.4688  0.3140 -0.1316
 3737TIP3    H132626   5.400   2.149  13.461  0.8253  0.0440  0.9894
 3737TIP3    H232627   5.434   2.012  13.516 -2.1260 -1.0262  0.2386
 3738TIP3   OH232628   4.425   5.463   0.016  0.0819 -0.1001 -0.3969
 3738TIP3    H132629   4.369   5.448   0.092  0.9245 -0.2946  0.1863
 3738TIP3    H232630   4.364   5.469  -0.057 -0.8202  1.3062  0.4597
 3739TIP3   OH232631   5.322   4.173   1.388  0.0602  0.2872 -0.7673
 3739TIP3    H132632   5.248   4.120   1.417 -0.5241  0.7508 -1.3838
 3739TIP3    H232633   5.289   4.263   1.388  1.6969  0.9567  2.4198
 3740TIP3   OH232634   5.312   1.865  17.023  0.2263  0.1448 -0.0730
 3740TIP3    H132635   5.266   1.949  17.032 -2.8889 -1.4113 -0.8813
 3740TIP3    H232636   5.344   1.865  16.933  1.0169  0.8417  0.2024
 3741TIP3   OH232637   5.904   0.149  15.803  0.2527  0.8963  0.3486
 3741TIP3    H132638   5.976   0.193  15.758  0.0919 -0.1503 -0.9578
 3741TIP3    H232639   5.836   0.216  15.809  0.5057  1.2315 -0.4015
 3742TIP3   OH232640   2.963   4.497  16.080  0.2364  0.2825  0.3808
 3742TIP3    H132641   2.949   4.478  15.987 -0.9399 -1.0109  0.7985
 3742TIP3    H232642   2.882   4.539  16.109 -0.2335 -1.1707  1.2699
 3743TIP3   OH232643   2.271   1.560   3.366 -0.3067  0.4110 -0.3748
 3743TIP3    H132644   2.289   1.521   3.280 -0.4041  1.0144 -0.6709
 3743TIP3    H232645   2.308   1.648   3.360 -2.1028  1.1776 -0.5051
 3744TIP3   OH232646   6.186   5.273   2.742 -0.7852 -0.0811  0.5984
 3744TIP3    H132647   6.132   5.194   2.740  0.8209 -1.1793 -1.5154
 3744TIP3    H232648   6.223   5.279   2.654  0.6851  1.9559  1.3129
 3745TIP3   OH232649   1.563   6.203   3.822 -0.1654 -0.3655  0.8674
 3745TIP3    H132650   1.658   6.208   3.824  0.0778 -0.2639 -4.0172
 3745TIP3    H232651   1.544   6.114   3.794 -1.2747  0.6711 -1.9064
 3746TIP3   OH232652   2.355   0.088   0.217 -0.2356  0.2854  0.0866
 3746TIP3    H132653   2.374   0.013   0.160  1.1996 -0.4412  1.4955
 3746TIP3    H232654   2.279   0.130   0.176 -0.1734 -1.1000 -1.5148
 3747TIP3   OH232655   3.182   0.800  12.652 -0.4656 -0.1340 -0.3310
 3747TIP3    H132656   3.194   0.878  12.598  1.7561 -0.6863 -0.6701
 3747TIP3    H232657   3.154   0.732  12.591 -2.0508  0.2712 -0.0905
 3748TIP3   OH232658   1.786   1.731   4.694 -0.7295 -0.2455 -0.2878
 3748TIP3    H132659   1.714   1.687   4.649 -0.8998 -1.8879  1.5142
 3748TIP3    H232660   1.755   1.742   4.784  1.4209 -1.3876  0.6422
 3749TIP3   OH232661   1.361   3.819   6.377 -0.2255 -0.1775 -0.1037
 3749TIP3    H132662   1.352   3.854   6.466 -1.0331 -1.6327  0.4101
 3749TIP3    H232663   1.448   3.778   6.377  0.1594  0.6449 -0.2756
 3750TIP3   OH232664   2.841   1.867  15.592  0.0634  0.1976  0.6217
 3750TIP3    H132665   2.894   1.799  15.549 -0.9626 -0.1668 -0.0923
 3750TIP3    H232666   2.878   1.874  15.680  0.5578 -0.8690  0.5093
 3751TIP3   OH232667   6.219   1.455  12.185 -0.5074  0.0271 -0.1745
 3751TIP3    H132668   6.162   1.457  12.262  0.2874 -1.0493  0.4604
 3751TIP3    H232669   6.228   1.362  12.164  0.1428  0.2502 -0.9236
 3752TIP3   OH232670   5.504   0.289  11.171  0.2125 -0.3727  0.3106
 3752TIP3    H132671   5.500   0.356  11.238  0.2916  1.4283 -1.4261
 3752TIP3    H232672   5.568   0.226  11.204 -0.3908  0.0200  2.2864
 3753TIP3   OH232673   4.362   0.303  16.853  0.3889  0.0451  0.0703
 3753TIP3    H132674   4.295   0.243  16.818  1.6657 -0.7104 -1.1573
 3753TIP3    H232675   4.313   0.370  16.899 -1.1215 -1.6622  1.0212
 3754TIP3   OH232676   1.470   3.764   3.266  0.5460  0.3135 -1.0369
 3754TIP3    H132677   1.400   3.701   3.254  0.6720  0.2507 -1.4299
 3754TIP3    H232678   1.503   3.746   3.354  2.2549 -1.8551 -2.0847
 3755TIP3   OH232679   2.938   1.630  15.737  0.4824  0.0286  0.0691
 3755TIP3    H132680   2.993   1.602  15.810  0.5683  1.2166  0.4659
 3755TIP3    H232681   2.964   1.574  15.664  1.4795 -0.1181  0.5363
 3756TIP3   OH232682   4.774   5.594  12.043  0.0818 -0.5586  0.3315
 3756TIP3    H132683   4.746   5.556  12.126  0.0156  0.7144  0.8894
 3756TIP3    H232684   4.869   5.599  12.049 -0.0446  1.2170  1.0669
 3757TIP3   OH232685   0.068   1.503  13.939 -0.0403  0.3807  0.7598
 3757TIP3    H132686   0.074   1.558  13.861 -0.1652  2.6627  2.2742
 3757TIP3    H232687   0.155   1.507  13.978 -0.0485 -0.5247  0.8668
 3758TIP3   OH232688   2.479   5.389  15.166 -0.4275 -0.7824 -0.3277
 3758TIP3    H132689   2.481   5.443  15.087  0.5689  0.4690  0.5483
 3758TIP3    H232690   2.526   5.309  15.142  1.0804  0.1770 -0.5815
 3759TIP3   OH232691   1.049   1.574  13.501 -0.4579 -0.2806 -1.0755
 3759TIP3    H132692   1.000   1.636  13.447  0.9034 -0.1448 -2.1965
 3759TIP3    H232693   1.114   1.628  13.547 -0.1052 -0.6955 -1.0754
 3760TIP3   OH232694   4.519   3.942  13.996  0.4837  0.7427  0.0149
 3760TIP3    H132695   4.488   4.010  13.936  1.5117  1.2721  0.0615
 3760TIP3    H232696   4.479   3.861  13.964  0.5375  1.1168 -1.0255
 3761TIP3   OH232697   1.231   6.169  10.989  0.0879 -0.3982  0.3038
 3761TIP3    H132698   1.325   6.170  11.009  0.4271 -0.4787 -1.2746
 3761TIP3    H232699   1.224   6.118  10.908 -1.1001  1.2785 -0.6715
 3762TIP3   OH232700   3.655   5.007   0.818 -0.9543 -0.4101 -0.5290
 3762TIP3    H132701   3.562   5.030   0.820 -1.1686 -1.2515 -0.9766
 3762TIP3    H232702   3.658   4.916   0.788  0.1350  0.2618 -2.5662
 3763TIP3   OH232703   5.909   2.493  14.522  0.2896 -0.5877  0.2107
 3763TIP3    H132704   5.997   2.466  14.496  0.7672  0.1040  1.0473
 3763TIP3    H232705   5.909   2.485  14.618  0.2428  1.6727  0.4238
 3764TIP3   OH232706   6.329   0.674   1.871 -0.0897 -0.0443  0.3827
 3764TIP3    H132707   6.371   0.712   1.793  1.9111  1.0806  1.9782
 3764TIP3    H232708   6.285   0.748   1.913 -1.8020 -0.7870 -0.0306
 3765TIP3   OH232709   1.803   4.137  11.282  0.3577 -0.0019  0.3006
 3765TIP3    H132710   1.787   4.147  11.188  0.2538 -1.0019  0.2039
 3765TIP3    H232711   1.896   4.155  11.292  0.1682  1.0879  0.1528
 3766TIP3   OH232712   5.770   1.200   4.876  0.0962  0.0755 -0.5810
 3766TIP3    H132713   5.699   1.259   4.902  1.0077  0.9328 -0.0076
 3766TIP3    H232714   5.808   1.241   4.799  0.6526  0.1672 -0.2565
 3767TIP3   OH232715   2.463   2.931   5.712 -0.3256  0.3450  0.2091
 3767TIP3    H132716   2.371   2.916   5.690 -0.3062  0.3470  0.1255
 3767TIP3    H232717   2.482   2.868   5.781 -0.2193 -0.0827 -0.2059
 3768TIP3   OH232718   2.683   2.084   3.876 -0.3323 -0.1698  0.0355
 3768TIP3    H132719   2.676   2.001   3.924 -2.0526 -0.2744 -0.3810
 3768TIP3    H232720   2.704   2.149   3.944 -2.7821 -0.3091  0.9755
 3769TIP3   OH232721   2.193   4.004   1.521  0.3171  0.0384 -0.2477
 3769TIP3    H132722   2.118   4.059   1.544  0.2458 -0.8562  1.7870
 3769TIP3    H232723   2.252   4.063   1.474 -0.8600  1.2176 -0.2707
 3770TIP3   OH232724   5.839   5.663  12.364  0.0996  0.2986 -0.3920
 3770TIP3    H132725   5.744   5.655  12.350  0.0555 -0.0770  0.1111
 3770TIP3    H232726   5.849   5.678  12.458  0.6652 -2.0766 -0.0416
 3771TIP3   OH232727   0.454   0.901   0.188 -0.2480 -0.0529 -0.2643
 3771TIP3    H132728   0.512   0.825   0.195 -0.0652  0.2173  1.1303
 3771TIP3    H232729   0.508   0.969   0.148 -0.3979 -0.6317 -1.4722
 3772TIP3   OH232730   3.309   4.909   6.030  0.3928 -0.6289  0.0264
 3772TIP3    H132731   3.223   4.932   5.996 -0.7536 -1.7327  2.0895
 3772TIP3    H232732   3.344   4.990   6.066  0.1945 -0.1937 -0.7516
 3773TIP3   OH232733   0.041   2.695   0.370 -0.5227 -0.5471 -0.4632
 3773TIP3    H132734   0.063   2.602   0.361  0.6584 -0.3143  0.0337
 3773TIP3    H232735  -0.017   2.698   0.446  0.7464 -0.6612  0.5118
 3774TIP3   OH232736   5.838   0.031  12.773 -0.3271 -0.0261 -0.0271
 3774TIP3    H132737   5.827  -0.004  12.861 -0.4470 -0.4723 -0.2184
 3774TIP3    H232738   5.791  -0.030  12.717  1.3260 -0.7789 -0.6069
 3775TIP3   OH232739   3.970   0.219  15.239 -0.2615 -0.3589  0.2323
 3775TIP3    H132740   4.020   0.187  15.314 -0.2573 -0.3497  0.2336
 3775TIP3    H232741   3.942   0.307  15.265 -0.7096 -0.5619  0.4357
 3776TIP3   OH232742   3.781   1.378  13.448  0.4826 -0.2765 -0.1609
 3776TIP3    H132743   3.861   1.396  13.496 -0.4821 -1.0945  1.8255
 3776TIP3    H232744   3.780   1.283  13.437  0.3124 -0.1678 -1.1170
 3777TIP3   OH232745   0.601   5.871   1.846 -0.5986  0.1321  0.2847
 3777TIP3    H132746   0.661   5.943   1.829  0.3721 -0.3415  1.5974
 3777TIP3    H232747   0.636   5.798   1.795 -0.2096 -0.0601  0.8168
 3778TIP3   OH232748   0.133   5.336   2.121 -0.3366  0.2376 -0.6732
 3778TIP3    H132749   0.128   5.261   2.180  0.6022  0.6082 -0.1022
 3778TIP3    H232750   0.215   5.324   2.073  0.8120  1.8546  0.7876
 3779TIP3   OH232751   0.686   2.218  13.600 -0.1118 -0.3714 -0.4380
 3779TIP3    H132752   0.688   2.123  13.585  1.7680 -0.2328 -1.1927
 3779TIP3    H232753   0.777   2.245  13.590 -0.5656  1.4437  0.2905
 3780TIP3   OH232754   0.724   4.746   4.002 -0.1242  0.1929 -0.4338
 3780TIP3    H132755   0.792   4.762   3.937  1.5826  0.9455  1.5031
 3780TIP3    H232756   0.687   4.832   4.021  0.6614  0.2488  0.9295
 3781TIP3   OH232757   6.453   4.879  12.304 -0.9907  0.0820 -0.0856
 3781TIP3    H132758   6.492   4.848  12.222 -0.7626 -0.5411  0.2549
 3781TIP3    H232759   6.384   4.816  12.322  0.2081 -0.8868  1.2070
 3782TIP3   OH232760   0.258   1.097   2.414 -0.1142  0.3505  0.1533
 3782TIP3    H132761   0.284   1.005   2.402  0.5311  0.7348 -1.6530
 3782TIP3    H232762   0.302   1.124   2.494  0.7612 -0.5494 -0.0100
 3783TIP3   OH232763   6.080   6.249   2.923  0.1110  0.2115  0.1847
 3783TIP3    H132764   5.996   6.205   2.934 -0.1059  0.4850 -0.3423
 3783TIP3    H232765   6.114   6.215   2.840 -0.5114  1.7532 -0.7163
 3784TIP3   OH232766   3.293   1.584  14.733 -0.2073  0.5587 -0.1796
 3784TIP3    H132767   3.297   1.596  14.638  1.1973  0.1885 -0.1892
 3784TIP3    H232768   3.328   1.665  14.769  1.5106 -0.2161 -0.0513
 3785TIP3   OH232769   2.690   6.722   4.630  0.6101  0.2471  0.1608
 3785TIP3    H132770   2.728   6.789   4.574 -1.5476  1.3872  0.0218
 3785TIP3    H232771   2.660   6.654   4.569  1.1200  0.0059  0.1745
 3786TIP3   OH232772   6.638   6.559   3.516  0.3212 -0.2433 -0.3391
 3786TIP3    H132773   6.662   6.634   3.571  0.5376 -0.6909  0.1782
 3786TIP3    H232774   6.542   6.561   3.513  0.3609  0.7005 -1.2300
 3787TIP3   OH232775   6.782   4.391   6.002 -0.1844 -0.1067  0.0581
 3787TIP3    H132776   6.699   4.366   6.043 -0.8222  0.8504 -0.6383
 3787TIP3    H232777   6.848   4.340   6.049 -1.1233 -0.5646  0.8954
 3788TIP3   OH232778   4.196   4.127  12.264  0.3710 -0.0412  0.2416
 3788TIP3    H132779   4.135   4.200  12.255 -1.9383 -1.8467  0.6192
 3788TIP3    H232780   4.275   4.156  12.220 -0.9338  2.1987 -0.7165
 3789TIP3   OH232781   3.741   1.091   0.394 -0.1514  0.0937 -0.6169
 3789TIP3    H132782   3.762   1.158   0.329 -0.7558 -0.5786 -1.5141
 3789TIP3    H232783   3.818   1.034   0.394  0.3553  0.7578  0.1331
 3790TIP3   OH232784   4.340   5.312   1.949 -0.1887  0.7010  0.2107
 3790TIP3    H132785   4.327   5.258   1.871 -0.6487  3.3909 -1.6445
 3790TIP3    H232786   4.257   5.306   1.997 -0.3982  0.1436 -0.2229
 3791TIP3   OH232787   4.943   0.546   5.015  0.0412  0.2106 -0.0131
 3791TIP3    H132788   5.016   0.484   5.015 -0.1759 -0.0502 -0.5701
 3791TIP3    H232789   4.872   0.499   4.970 -0.4215  0.5129  0.4050
 3792TIP3   OH232790   4.070   2.159   1.187  0.2001 -0.0358  0.6316
 3792TIP3    H132791   4.055   2.248   1.218  0.5859  0.0296  0.6255
 3792TIP3    H232792   4.051   2.103   1.262  0.5308  0.0864  0.8050
 3793TIP3   OH232793   2.021   1.145  12.404 -0.4227  0.2104 -0.5947
 3793TIP3    H132794   2.015   1.239  12.425  1.2149  0.0447  0.7110
 3793TIP3    H232795   2.100   1.138  12.350 -0.8590 -0.3588 -1.1660
 3794TIP3   OH232796   3.346   4.383   1.297  0.5752  0.0748  0.0653
 3794TIP3    H132797   3.376   4.348   1.381 -1.6527 -1.5418  0.2195
 3794TIP3    H232798   3.287   4.454   1.320  2.2189  1.5750 -0.2132
 3795TIP3   OH232799   4.789   3.242   5.115 -0.3257 -0.3173  0.1260
 3795TIP3    H132800   4.705   3.276   5.144 -0.4012 -0.5418  0.1688
 3795TIP3    H232801   4.775   3.148   5.105 -0.0523 -0.3710  0.2369
 3796TIP3   OH232802   3.707   4.755   2.389  0.3785  0.6064  0.9656
 3796TIP3    H132803   3.637   4.728   2.330  0.5815  2.2120 -0.0149
 3796TIP3    H232804   3.749   4.672   2.416  0.7607 -0.0982 -1.7150
 3797TIP3   OH232805   6.464   2.379  12.025  0.2622  0.3251  0.0940
 3797TIP3    H132806   6.448   2.377  12.120  0.6775 -0.0565  0.1590
 3797TIP3    H232807   6.555   2.350  12.016 -0.4067 -1.6714 -0.5628
 3798TIP3   OH232808   4.267   0.864  15.474  0.3482  0.1142 -0.2213
 3798TIP3    H132809   4.305   0.777  15.487 -1.0581 -0.5859 -0.7629
 3798TIP3    H232810   4.314   0.920  15.536  1.1731 -1.0477  0.2215
 3799TIP3   OH232811   1.506   0.350   5.676 -0.3137  0.6746  0.1004
 3799TIP3    H132812   1.506   0.353   5.771  3.9556 -0.3044  0.2119
 3799TIP3    H232813   1.475   0.262   5.655  3.2099 -0.8063  0.8027
 3800TIP3   OH232814   5.177   0.008  13.884  0.3503  0.6964  0.4827
 3800TIP3    H132815   5.183  -0.081  13.917  0.2111  0.8589  0.9576
 3800TIP3    H232816   5.155   0.061  13.961 -0.6252  0.9961  0.0077
 3801TIP3   OH232817   0.481   0.580  14.481  0.3213  1.0822  0.6457
 3801TIP3    H132818   0.502   0.494  14.445 -2.1262  0.5136  0.4937
 3801TIP3    H232819   0.535   0.641  14.430  0.8734 -0.1960 -0.3386
 3802TIP3   OH232820   4.893   5.618  14.552 -0.0750 -0.0485 -0.2707
 3802TIP3    H132821   4.891   5.622  14.648  1.4714 -0.8446 -0.1925
 3802TIP3    H232822   4.986   5.618  14.530 -0.4133 -0.7292 -1.7453
 3803TIP3   OH232823   5.644   5.250   4.644 -0.3625  0.1005 -0.0038
 3803TIP3    H132824   5.726   5.226   4.602  0.2858  0.8686  0.8334
 3803TIP3    H232825   5.623   5.175   4.700 -1.2981 -0.9853 -1.7713
 3804TIP3   OH232826   2.503   5.605  12.774 -0.6306 -0.2448  0.4870
 3804TIP3    H132827   2.467   5.688  12.741 -0.1798  0.3307  1.3951
 3804TIP3    H232828   2.532   5.558  12.695  0.6515  1.2016  0.0639
 3805TIP3   OH232829   5.666   0.465   1.815 -0.5783 -0.0466 -0.8920
 3805TIP3    H132830   5.698   0.544   1.772 -0.5995  1.0058  0.9957
 3805TIP3    H232831   5.579   0.452   1.778 -0.8021  1.1236 -0.7993
 3806TIP3   OH232832   0.606   2.332   1.065 -0.0212 -0.7644 -0.2763
 3806TIP3    H132833   0.637   2.382   1.141 -0.7153 -1.7730  0.6905
 3806TIP3    H232834   0.511   2.336   1.071 -0.0919 -2.9443  0.3260
 3807TIP3   OH232835   4.637   0.685   4.897  0.4694  0.1724  0.7001
 3807TIP3    H132836   4.658   0.657   4.986 -0.0250  0.9452  1.0639
 3807TIP3    H232837   4.561   0.743   4.907  0.2739  0.0878 -0.2451
 3808TIP3   OH232838   0.759   2.230   0.589  0.5460 -0.4535  0.0594
 3808TIP3    H132839   0.665   2.240   0.576  0.4133 -1.8313 -0.0570
 3808TIP3    H232840   0.794   2.211   0.502  1.2241  2.0300 -0.2710
 3809TIP3   OH232841   6.147   2.946   4.670 -0.3311  0.2865 -0.2066
 3809TIP3    H132842   6.082   3.004   4.631 -0.1073  1.2890  0.8908
 3809TIP3    H232843   6.148   2.969   4.763  1.3828  0.0740 -0.1473
 3810TIP3   OH232844   2.955   2.903  17.107 -0.1067  0.3395  0.0178
 3810TIP3    H132845   2.936   2.839  17.039 -1.6391  0.8840 -0.0901
 3810TIP3    H232846   3.043   2.935  17.086 -0.1495 -0.2471 -1.1008
 3811TIP3   OH232847   2.496   0.290   5.721 -0.3343 -0.0015  0.1958
 3811TIP3    H132848   2.578   0.323   5.758  0.3609  0.4462 -1.6886
 3811TIP3    H232849   2.432   0.360   5.739 -0.5495 -0.7475  2.4730
 3812TIP3   OH232850   0.375   6.154  16.019 -0.0041  0.1133  0.1691
 3812TIP3    H132851   0.318   6.151  16.096  0.5336  0.5435  0.5853
 3812TIP3    H232852   0.464   6.150  16.054  0.2592  0.9455 -0.3827
 3813TIP3   OH232853   2.024   4.857   5.938  0.0035 -0.1913  0.6943
 3813TIP3    H132854   1.966   4.869   5.863  0.6178 -0.6639  0.1342
 3813TIP3    H232855   1.966   4.839   6.011 -0.6515  1.0639  0.4993
 3814TIP3   OH232856   0.574   1.633  13.603 -0.1780  1.1805 -0.1630
 3814TIP3    H132857   0.638   1.668  13.666 -1.3669  0.9131  1.2190
 3814TIP3    H232858   0.525   1.568  13.652  0.4789 -0.8266 -2.0782
 3815TIP3   OH232859   0.957   4.021  17.066 -0.3260  0.2034 -0.1800
 3815TIP3    H132860   1.039   3.998  17.111  0.9772 -0.5336 -2.8631
 3815TIP3    H232861   0.954   4.117  17.070  0.0392  0.1832  0.9679
 3816TIP3   OH232862   4.833   2.843   1.784  0.3248  0.0596 -0.5008
 3816TIP3    H132863   4.815   2.894   1.705  2.4078 -0.1159 -1.1021
 3816TIP3    H232864   4.927   2.825   1.781 -0.0183 -2.0889  0.7558
 3817TIP3   OH232865   2.159   1.990   4.001  0.0011  0.0361  0.1226
 3817TIP3    H132866   2.140   2.076   3.964 -0.1825 -0.0057  0.1189
 3817TIP3    H232867   2.253   1.977   3.985  0.1358  0.4490  0.5590
 3818TIP3   OH232868   6.618   4.538  11.957 -0.2531  0.3014  0.3972
 3818TIP3    H132869   6.681   4.474  11.988 -0.7100  0.2204  1.1806
 3818TIP3    H232870   6.662   4.622  11.969  0.5261  0.1096 -1.0729
 3819TIP3   OH232871   5.685   3.555  16.829  0.0808  0.0056 -0.0109
 3819TIP3    H132872   5.652   3.591  16.911 -0.8609 -0.7386 -0.0543
 3819TIP3    H232873   5.742   3.624  16.794 -1.3474  1.2760  0.1098
 3820TIP3   OH232874   3.397   3.388   4.383  0.2437  0.0956 -0.2103
 3820TIP3    H132875   3.309   3.423   4.373  0.7177  1.4478  0.1738
 3820TIP3    H232876   3.393   3.300   4.346 -0.8202  0.8077 -1.8525
 3821TIP3   OH232877   5.464   6.150   1.931 -0.6877  0.1747  0.3126
 3821TIP3    H132878   5.368   6.158   1.936 -0.5508  0.6656  2.4691
 3821TIP3    H232879   5.481   6.060   1.959 -0.6738 -0.8731 -2.8178
 3822TIP3   OH232880   1.065   1.115   1.199 -0.0825  0.2878 -0.4716
 3822TIP3    H132881   1.083   1.067   1.118 -0.5010  0.4942 -0.6836
 3822TIP3    H232882   0.990   1.070   1.238 -1.2282  1.4904 -1.2581
 3823TIP3   OH232883   1.396   1.529  12.181  0.6057 -0.1686  0.4428
 3823TIP3    H132884   1.398   1.436  12.158  1.2817 -0.4495  1.6054
 3823TIP3    H232885   1.458   1.537  12.254 -0.0622  1.0487  0.8863
 3824TIP3   OH232886   6.516   3.223   2.737  0.3203  0.1008  0.0735
 3824TIP3    H132887   6.453   3.193   2.803 -1.4757  0.6954 -1.3122
 3824TIP3    H232888   6.514   3.319   2.745 -0.3301  0.1964 -1.2100
 3825TIP3   OH232889   3.781   2.614  13.966 -0.0965  0.1193 -0.2829
 3825TIP3    H132890   3.876   2.609  13.973 -0.0760  1.6778  0.8680
 3825TIP3    H232891   3.754   2.526  13.942  1.7915  0.1043 -2.5700
 3826TIP3   OH232892   2.776   1.554   5.003 -0.3635  0.0399 -0.3877
 3826TIP3    H132893   2.737   1.503   5.074 -0.8914  0.8497 -0.0788
 3826TIP3    H232894   2.870   1.553   5.022 -0.4979  0.2133  0.3134
 3827TIP3   OH232895   0.226   5.485  12.289  1.0105  0.1739  0.3932
 3827TIP3    H132896   0.255   5.425  12.220 -1.1851 -0.5601  0.0726
 3827TIP3    H232897   0.233   5.433  12.369  1.4145  0.2969  0.4400
 3828TIP3   OH232898   5.945   2.501  14.786 -0.5475  0.6692  0.1403
 3828TIP3    H132899   5.905   2.432  14.839  0.0189  1.4764  1.6809
 3828TIP3    H232900   6.032   2.513  14.825  0.1763  0.7485 -1.4852
 3829TIP3   OH232901   2.296   5.957  15.614  0.3443  0.0837 -0.1679
 3829TIP3    H132902   2.306   5.868  15.647 -0.9674  1.3566  4.0524
 3829TIP3    H232903   2.385   5.984  15.590  0.8523 -2.0974 -0.8175
 3830TIP3   OH232904   4.758   6.701  10.696 -0.6130 -0.3554  0.1113
 3830TIP3    H132905   4.718   6.737  10.775  1.1444 -1.2537  1.4407
 3830TIP3    H232906   4.823   6.765  10.670 -1.6941  0.2887 -1.0532
 3831TIP3   OH232907   3.242   1.678  15.145 -0.2003  0.6188  0.1428
 3831TIP3    H132908   3.170   1.738  15.167 -1.1930  0.0641 -1.5674
 3831TIP3    H232909   3.278   1.653  15.231 -2.1855  0.7253  1.0435
 3832TIP3   OH232910   4.581   0.349  14.303 -0.1378  0.5470  0.3556
 3832TIP3    H132911   4.647   0.417  14.290 -0.7953  0.9915 -0.7277
 3832TIP3    H232912   4.574   0.305  14.218 -0.9638  0.2509  0.5684
 3833TIP3   OH232913   6.098   6.545  15.353  0.0420  0.2960  0.1558
 3833TIP3    H132914   6.044   6.615  15.316 -2.8081 -1.0506  1.6005
 3833TIP3    H232915   6.080   6.469  15.296  1.2987  0.1261 -0.0177
 3834TIP3   OH232916   2.596   2.484  12.853  0.3244  0.3271 -0.3398
 3834TIP3    H132917   2.551   2.418  12.799 -1.1187  1.0497 -0.0611
 3834TIP3    H232918   2.525   2.532  12.895  1.4320 -0.1097  2.0872
 3835TIP3   OH232919   4.962   2.811   3.300 -0.0754  0.4748 -0.6125
 3835TIP3    H132920   4.878   2.809   3.255 -0.0317 -0.1721 -0.6812
 3835TIP3    H232921   4.939   2.825   3.392 -0.3758 -1.3371 -0.3918
 3836TIP3   OH232922   5.364   1.392   5.531  0.3218 -0.0308 -0.3371
 3836TIP3    H132923   5.302   1.426   5.466  0.8909  0.8888 -0.4040
 3836TIP3    H232924   5.320   1.403   5.615 -0.3580 -1.0899 -0.5424
 3837TIP3   OH232925   2.565   3.134  10.251  0.4758  0.1063  0.7488
 3837TIP3    H132926   2.602   3.049  10.229  0.6922 -0.7413  4.1285
 3837TIP3    H232927   2.641   3.192  10.261  0.2830  1.0190 -2.5631
 3838TIP3   OH232928   6.005   2.289   4.688 -0.0009 -0.2153  0.5157
 3838TIP3    H132929   5.999   2.324   4.777  2.2677  1.1257  0.1867
 3838TIP3    H232930   6.093   2.253   4.683 -0.0661 -0.1396 -1.2291
 3839TIP3   OH232931   6.600   6.298   2.281  0.7459  0.2657 -0.3210
 3839TIP3    H132932   6.557   6.382   2.298 -0.6560 -0.6497  0.7605
 3839TIP3    H232933   6.648   6.312   2.199 -1.7815  1.2766 -1.6882
 3840TIP3   OH232934   5.771   0.514   6.210 -0.3807  0.6999  0.3867
 3840TIP3    H132935   5.785   0.600   6.249 -0.3134 -0.0494  2.0705
 3840TIP3    H232936   5.738   0.460   6.283 -1.3629 -0.4294 -0.8729
 3841TIP3   OH232937   2.162   2.038  16.328 -0.7872  0.0073 -0.2089
 3841TIP3    H132938   2.079   2.009  16.290 -1.3633  1.0469  0.2306
 3841TIP3    H232939   2.189   2.112  16.273 -0.5913  0.2221  0.1754
 3842TIP3   OH232940   3.167   2.604  11.463  0.4900 -0.4149 -0.2495
 3842TIP3    H132941   3.207   2.553  11.392  1.8483  0.8543 -0.4134
 3842TIP3    H232942   3.225   2.590  11.538  1.4386  1.6574 -0.5599
 3843TIP3   OH232943   4.369   0.193   1.165 -0.1506 -0.4287  0.3189
 3843TIP3    H132944   4.353   0.211   1.258  0.2065  3.0060 -0.2468
 3843TIP3    H232945   4.386   0.098   1.162 -0.6583 -0.6878  3.6600
 3844TIP3   OH232946   4.621   5.786   0.207  0.0863  0.1430 -0.2600
 3844TIP3    H132947   4.623   5.717   0.273  2.9035 -0.4314 -0.8895
 3844TIP3    H232948   4.713   5.808   0.192 -0.6464  2.2194 -1.9626
 3845TIP3   OH232949   0.490   0.527  17.178 -0.5254 -0.4445  0.1733
 3845TIP3    H132950   0.401   0.561  17.178 -0.7220 -0.7156  3.9688
 3845TIP3    H232951   0.545   0.603  17.199  0.0317 -0.5272 -0.9354
 3846TIP3   OH232952   2.526   4.866   0.678 -0.1983 -0.0160  0.0944
 3846TIP3    H132953   2.527   4.954   0.641 -1.0079  0.3531  0.9467
 3846TIP3    H232954   2.612   4.830   0.656  0.2940  1.1309  0.1119
 3847TIP3   OH232955   1.594   4.504  11.922 -0.3431 -0.2817  0.4322
 3847TIP3    H132956   1.681   4.465  11.921  0.4969  1.4847  2.0828
 3847TIP3    H232957   1.556   4.479  11.838  2.6537  0.9665 -1.3596
 3848TIP3   OH232958   3.216   6.626   3.756 -0.1113 -0.3286  0.4235
 3848TIP3    H132959   3.132   6.593   3.787 -0.5874  0.7001  0.2666
 3848TIP3    H232960   3.211   6.621   3.660 -0.5234  0.9612  0.3647
 3849TIP3   OH232961   3.608   5.672   2.467  0.8834  0.4718 -0.2928
 3849TIP3    H132962   3.553   5.647   2.393  0.5225  1.4957 -0.3727
 3849TIP3    H232963   3.574   5.621   2.541 -0.1713  1.1105 -0.3387
 3850TIP3   OH232964   3.624   5.027  14.341  0.1595  0.3447 -0.3290
 3850TIP3    H132965   3.648   4.945  14.384 -1.0804  0.1373 -0.0298
 3850TIP3    H232966   3.553   5.062  14.394  0.9658  1.8357 -0.2128
 3851TIP3   OH232967   5.982   0.714  11.447  0.4221  0.7397 -0.9237
 3851TIP3    H132968   6.016   0.722  11.357 -0.2614  1.3306 -1.1345
 3851TIP3    H232969   5.899   0.762  11.445  0.4209  0.7711  0.0352
 3852TIP3   OH232970   0.270   6.395   5.634  0.4692  0.2146  0.7351
 3852TIP3    H132971   0.271   6.469   5.696 -1.6524  1.5181 -0.6947
 3852TIP3    H232972   0.356   6.356   5.642  1.1137  1.9113  2.6735
 3853TIP3   OH232973   5.264   2.839  13.321 -0.8313 -0.0317  0.0799
 3853TIP3    H132974   5.282   2.931  13.343 -0.1336 -0.0191 -0.5323
 3853TIP3    H232975   5.270   2.794  13.405  2.5074 -0.0854 -0.0923
 3854TIP3   OH232976   6.737   4.512  15.875  0.0024  0.1696 -0.4105
 3854TIP3    H132977   6.797   4.565  15.927 -0.5097 -0.5327  0.9107
 3854TIP3    H232978   6.793   4.456  15.822  0.5200  0.7099 -0.4422
 3855TIP3   OH232979   4.632   2.643  16.327  0.3385  0.4901  0.0628
 3855TIP3    H132980   4.574   2.713  16.358 -0.6991 -0.0717 -0.5922
 3855TIP3    H232981   4.608   2.631  16.235  1.5777  0.3315 -0.2516
 3856TIP3   OH232982   1.515   1.977  11.973  0.2457  0.5868 -0.3195
 3856TIP3    H132983   1.587   2.038  11.987  1.3177 -0.5019 -0.9602
 3856TIP3    H232984   1.463   2.015  11.903  0.1810  1.3822  0.1559
 3857TIP3   OH232985   5.708   1.676   4.887  0.4101 -0.4106  0.3447
 3857TIP3    H132986   5.738   1.766   4.878  0.5761 -0.3778  1.1698
 3857TIP3    H232987   5.788   1.624   4.886  0.2248 -0.7347 -2.0003
 3858TIP3   OH232988   0.445   1.987   2.932 -0.2033  0.1735  0.1046
 3858TIP3    H132989   0.495   1.974   2.851  0.0991  3.6819 -0.3670
 3858TIP3    H232990   0.499   2.046   2.984 -0.6175 -1.6731  2.7273
 3859TIP3   OH232991   2.628   0.474  15.151  0.0016  0.0462  0.3190
 3859TIP3    H132992   2.569   0.531  15.102 -0.0846 -0.6597 -0.4154
 3859TIP3    H232993   2.696   0.450  15.088 -0.0873 -0.8394  0.5533
 3860TIP3   OH232994   4.165   3.667   3.807 -0.3738  0.0776 -0.3090
 3860TIP3    H132995   4.140   3.735   3.870 -1.4793 -0.6985  0.1095
 3860TIP3    H232996   4.082   3.638   3.769  0.2075 -0.0900 -1.4795
 3861TIP3   OH232997   6.078   3.250  15.337  0.1242 -0.9629  0.1609
 3861TIP3    H132998   6.121   3.234  15.253  0.3590  0.1800  0.0475
 3861TIP3    H232999   6.070   3.164  15.377  0.6017 -1.4395 -0.7539
 3862TIP3   OH233000   1.625   5.324   1.520 -0.8325 -0.1465  0.0170
 3862TIP3    H133001   1.546   5.290   1.561 -0.8632 -0.7012 -0.4819
 3862TIP3    H233002   1.684   5.344   1.593 -0.1248 -2.9799  0.3044
 3863TIP3   OH233003   5.015   5.302   5.076 -0.1156 -0.5417 -0.4059
 3863TIP3    H133004   4.948   5.341   5.020 -0.8260 -3.0005 -1.3440
 3863TIP3    H233005   5.098   5.321   5.032 -0.5646 -1.3146 -1.5762
 3864TIP3   OH233006   4.213   5.024  11.931 -0.4873  0.1704  0.2824
 3864TIP3    H133007   4.141   5.087  11.930 -0.3560  0.3226  0.3142
 3864TIP3    H233008   4.285   5.069  11.885 -0.5425 -0.1379 -0.1044
 3865TIP3   OH233009   6.375   2.334   4.926  0.5188 -0.4234  0.0161
 3865TIP3    H133010   6.424   2.303   4.849  1.1699  0.5295  0.0458
 3865TIP3    H233011   6.361   2.255   4.978  0.2754 -1.0410 -0.9621
 3866TIP3   OH233012   3.691   2.728   4.540  0.5681  0.4496 -0.3392
 3866TIP3    H133013   3.752   2.694   4.475  1.4401  0.5371  0.4203
 3866TIP3    H233014   3.747   2.774   4.603  0.1027 -2.1262  2.0905
 3867TIP3   OH233015   5.775   0.712   2.208 -0.0073 -0.8718 -0.0036
 3867TIP3    H133016   5.741   0.801   2.204 -0.9403 -1.1247  1.5591
 3867TIP3    H233017   5.847   0.710   2.145  1.9629  1.8248  2.0410
 3868TIP3   OH233018   2.348   5.150   2.906 -0.0326  0.3126 -0.2598
 3868TIP3    H133019   2.439   5.131   2.926 -0.5991 -1.3523  0.8348
 3868TIP3    H233020   2.338   5.243   2.925  1.5715  0.6321 -0.9229
 3869TIP3   OH233021   0.110   2.993  11.992  0.4831 -0.3197 -0.2671
 3869TIP3    H133022   0.109   2.965  11.900 -3.3233  0.7378 -0.6449
 3869TIP3    H233023   0.197   3.030  12.005  1.7261 -2.1532 -2.9084
 3870TIP3   OH233024   2.831   6.745   0.869 -0.0719  0.2302 -0.1430
 3870TIP3    H133025   2.919   6.707   0.860  0.6900  1.8771  0.0683
 3870TIP3    H233026   2.808   6.730   0.960  0.4006  0.6557  0.0464
 3871TIP3   OH233027   5.845   2.054  10.380 -0.3021  0.0372 -0.3045
 3871TIP3    H133028   5.758   2.014  10.373  0.1371 -0.5010 -4.0315
 3871TIP3    H233029   5.906   1.981  10.369  0.6199  0.6652  0.5087
 3872TIP3   OH233030   3.051   3.414   0.945 -0.1881  0.3560 -0.1701
 3872TIP3    H133031   3.027   3.465   1.022 -0.6731 -0.6473  0.3445
 3872TIP3    H233032   2.969   3.373   0.917  0.2794 -0.4766 -0.3395
 3873TIP3   OH233033   6.320   6.376   3.001 -0.2606  0.4812 -0.1589
 3873TIP3    H133034   6.294   6.403   2.913  0.1859  0.6124 -0.2512
 3873TIP3    H233035   6.263   6.301   3.021 -1.2790  1.2931 -0.0232
 3874TIP3   OH233036   4.931   3.312  15.558  0.1285  0.1823 -0.7457
 3874TIP3    H133037   4.851   3.327  15.507 -0.1799 -2.4839 -1.1195
 3874TIP3    H233038   4.908   3.338  15.647 -0.8794  0.2334 -1.0160
 3875TIP3   OH233039   6.294   6.062   5.951  0.0441 -0.2630  0.0910
 3875TIP3    H133040   6.227   6.018   6.003  0.7651 -1.2319  0.2067
 3875TIP3    H233041   6.288   6.154   5.977 -1.5716 -0.2520 -0.2707
 3876TIP3   OH233042   5.361   6.044   0.959  0.6073  0.3944 -0.0457
 3876TIP3    H133043   5.281   6.018   0.912  0.0905  3.3014 -0.8508
 3876TIP3    H233044   5.428   5.984   0.925 -0.7335 -0.5437 -1.1228
 3877TIP3   OH233045   6.505   2.880  13.621 -0.1158  0.1036  0.3634
 3877TIP3    H133046   6.570   2.819  13.655 -0.5127  0.5600  1.9945
 3877TIP3    H233047   6.530   2.893  13.530  1.5902 -0.3676  0.7427
 3878TIP3   OH233048   4.172   3.318   4.073  0.1914  0.4737 -0.6001
 3878TIP3    H133049   4.169   3.229   4.038  0.5298 -0.0712  0.7199
 3878TIP3    H233050   4.083   3.333   4.106  0.3444  0.3214 -0.1107
 3879TIP3   OH233051   0.620   1.995   5.989  0.3692 -0.2553  0.3017
 3879TIP3    H133052   0.612   1.942   5.910  1.0318  0.8087 -0.4888
 3879TIP3    H233053   0.636   2.083   5.958 -1.5458  0.5847  1.6023
 3880TIP3   OH233054   4.835   5.022   1.103 -0.1405  0.0148  0.0574
 3880TIP3    H133055   4.740   5.026   1.094  0.1888  1.2790 -3.6624
 3880TIP3    H233056   4.856   5.092   1.165 -1.5017  0.9776 -0.5382
 3881TIP3   OH233057   1.292   2.162  11.849  0.4961 -0.5131 -0.3392
 3881TIP3    H133058   1.202   2.186  11.873  0.5130  0.5768 -1.3199
 3881TIP3    H233059   1.289   2.147  11.755  1.4347 -0.0187 -0.4579
 3882TIP3   OH233060   4.699   6.782  12.642  0.0787  0.4330  0.0281
 3882TIP3    H133061   4.623   6.750  12.690  0.7942  0.0211  0.9149
 3882TIP3    H233062   4.750   6.703  12.622  1.1557  0.8546  1.0131
 3883TIP3   OH233063   5.321   5.603   0.356  0.4250 -0.0092  0.9018
 3883TIP3    H133064   5.234   5.643   0.364 -0.0880 -0.4892 -1.9004
 3883TIP3    H233065   5.311   5.516   0.396 -0.2324  0.1200  1.0334
 3884TIP3   OH233066   2.140   0.489   0.918  0.4370  0.1550  0.2372
 3884TIP3    H133067   2.144   0.396   0.940  2.8002 -0.0010 -0.6770
 3884TIP3    H233068   2.051   0.502   0.884  0.9187 -2.4078 -2.1829
 3885TIP3   OH233069   1.723   2.208  13.089 -0.0110 -0.1180 -0.7633
 3885TIP3    H133070   1.811   2.182  13.116  0.1478  0.3855 -0.7858
 3885TIP3    H233071   1.734   2.241  13.000 -0.2060  0.0328 -0.7312
 3886TIP3   OH233072   0.919   3.237  11.477  0.1813 -0.2642 -0.6032
 3886TIP3    H133073   0.955   3.279  11.399  1.4416 -0.7656 -0.3004
 3886TIP3    H233074   0.945   3.294  11.550 -2.9058  1.4214 -0.7323
 3887TIP3   OH233075   0.462   0.083  13.455  0.3991 -0.3324  0.2871
 3887TIP3    H133076   0.506   0.159  13.418  1.3715 -0.3938  1.2784
 3887TIP3    H233077   0.505   0.008  13.414  2.5144 -0.4455  2.5667
 3888TIP3   OH233078   6.357   4.549   5.823 -0.3169 -0.2013  0.0467
 3888TIP3    H133079   6.427   4.614   5.812 -2.0953  1.6576 -0.6963
 3888TIP3    H233080   6.299   4.588   5.888 -1.0307 -1.3836  0.1204
 3889TIP3   OH233081   5.919   5.867  12.203 -0.0382  0.7399  0.3238
 3889TIP3    H133082   5.848   5.915  12.246 -1.2273 -0.9786  0.2906
 3889TIP3    H233083   5.916   5.780  12.242 -0.1073 -0.3653 -2.1006
 3890TIP3   OH233084   0.937   2.448   6.045 -0.2792 -0.4915 -0.0277
 3890TIP3    H133085   0.999   2.441   5.972 -1.3417 -0.5065 -0.9367
 3890TIP3    H233086   0.886   2.526   6.025 -1.5118 -1.2942 -0.0290
 3891TIP3   OH233087   2.898   5.102  14.080  0.2573 -0.8165  0.4771
 3891TIP3    H133088   2.954   5.160  14.030 -1.3663  1.1127  0.8551
 3891TIP3    H233089   2.840   5.061  14.015 -0.6186  0.2950  0.5471
 3892TIP3   OH233090   4.007   1.306   2.817  0.1047 -0.4295 -0.1916
 3892TIP3    H133091   4.071   1.363   2.858  0.3381 -1.7453  1.3337
 3892TIP3    H233092   3.946   1.365   2.774 -0.5397  1.0548  2.6443
 3893TIP3   OH233093   4.326   5.476  14.169 -0.2652 -0.1009  0.0411
 3893TIP3    H133094   4.243   5.483  14.122 -0.0415 -1.4167 -0.5572
 3893TIP3    H233095   4.305   5.501  14.259 -0.7715  2.1103 -0.6605
 3894TIP3   OH233096   5.847   1.533  14.115 -0.6652 -0.2744  0.2611
 3894TIP3    H133097   5.913   1.590  14.153 -0.2729 -0.2030 -0.5298
 3894TIP3    H233098   5.896   1.462  14.075 -0.8368  1.4672 -3.2085
 3895TIP3   OH233099   4.466   4.866   5.058 -0.1223 -0.6294  0.1215
 3895TIP3    H133100   4.391   4.895   5.007  0.8951 -0.6366 -1.3957
 3895TIP3    H233101   4.531   4.838   4.993  0.8700 -1.4320  1.4273
 3896TIP3   OH233102   6.032   2.118   5.677  0.1627 -0.8194  0.2030
 3896TIP3    H133103   5.961   2.080   5.728 -0.3267  1.5164  1.3039
 3896TIP3    H233104   6.091   2.155   5.742  1.2607 -0.7531 -0.8067
 3897TIP3   OH233105   5.575   6.513   0.542 -0.5731  0.4635  0.0696
 3897TIP3    H133106   5.619   6.563   0.473 -0.1747  0.2652  0.1755
 3897TIP3    H233107   5.491   6.557   0.554 -0.8143  0.2595 -0.8197
 3898TIP3   OH233108   6.137   0.319  16.891  0.1117 -0.2333  0.3960
 3898TIP3    H133109   6.205   0.314  16.823  1.2995 -3.0182  1.7019
 3898TIP3    H233110   6.082   0.242  16.875 -0.5997  0.0296  1.5595
 3899TIP3   OH233111   6.167   0.225   0.673  0.0751 -0.0494  0.4061
 3899TIP3    H133112   6.239   0.262   0.724 -1.2207  0.1618  2.1433
 3899TIP3    H233113   6.112   0.300   0.651  0.2828 -0.2319 -0.7754
 3900TIP3   OH233114   6.484   4.209  16.980 -0.2957 -0.1550  0.0557
 3900TIP3    H133115   6.496   4.289  17.032  0.0784  0.6057 -1.1520
 3900TIP3    H233116   6.526   4.140  17.031 -0.2074  0.5164  0.9009
 3901TIP3   OH233117   4.557   3.868  11.377  0.2144 -0.2575  0.3219
 3901TIP3    H133118   4.639   3.917  11.380  0.4425 -0.7217  2.1647
 3901TIP3    H233119   4.489   3.935  11.384  0.4846 -0.0362  0.8824
 3902TIP3   OH233120   1.212   1.406   3.066  0.1543  0.1289 -0.2792
 3902TIP3    H133121   1.156   1.393   2.988  0.6567 -2.2389 -0.2945
 3902TIP3    H233122   1.157   1.376   3.139  0.8329 -0.7610 -0.1220
 3903TIP3   OH233123   1.571   0.320  11.758  0.6339  0.5190 -0.1514
 3903TIP3    H133124   1.618   0.283  11.682  0.9449  2.4710 -0.9518
 3903TIP3    H233125   1.638   0.370  11.805 -0.7978  4.2449 -1.9055
 3904TIP3   OH233126   5.971   6.638   0.434 -0.4812  0.6672  0.2040
 3904TIP3    H133127   5.978   6.543   0.447 -3.1427  0.0497 -2.3483
 3904TIP3    H233128   6.005   6.676   0.515 -0.3433 -2.4835  1.6889
 3905TIP3   OH233129   5.543   5.608   0.930 -0.3258  0.0616  0.2322
 3905TIP3    H133130   5.570   5.517   0.929  0.2808  0.2142  1.9202
 3905TIP3    H233131   5.564   5.640   0.842  3.2461 -0.3343  0.8711
 3906TIP3   OH233132   3.324   2.584  14.399  0.3506 -0.4256 -0.1384
 3906TIP3    H133133   3.392   2.527  14.361 -0.1746 -0.6797 -0.7156
 3906TIP3    H233134   3.372   2.648  14.451  0.9122 -1.9068  1.1954
 3907TIP3   OH233135   1.925   4.116   1.162  0.5014 -0.5808 -0.2055
 3907TIP3    H133136   1.838   4.077   1.166  0.2545  0.1369  2.8324
 3907TIP3    H233137   1.985   4.042   1.157 -0.2498 -1.0636 -3.3661
 3908TIP3   OH233138   6.154   5.009   4.522 -0.6025 -0.4434 -0.5101
 3908TIP3    H133139   6.208   4.930   4.518 -0.1578 -0.1386 -0.5859
 3908TIP3    H233140   6.201   5.067   4.582 -1.5178 -0.6779  0.4550
 3909TIP3   OH233141   3.292   1.693   1.775  0.5247  0.2970 -0.4943
 3909TIP3    H133142   3.345   1.714   1.851  2.1095 -0.2381 -1.4330
 3909TIP3    H233143   3.352   1.650   1.714 -0.9452 -0.2067 -1.6360
 3910TIP3   OH233144   6.462   1.109   1.231  0.1272 -0.0964  0.6890
 3910TIP3    H133145   6.521   1.128   1.158 -0.9193  1.1430  0.1399
 3910TIP3    H233146   6.421   1.025   1.208 -0.3545  0.3956 -0.2602
 3911TIP3   OH233147   0.532   3.160  13.199  1.0761  0.8218  0.1637
 3911TIP3    H133148   0.482   3.079  13.209  0.8317  0.9692  0.1341
 3911TIP3    H233149   0.561   3.158  13.107 -1.7894  2.4017 -0.8309
 3912TIP3   OH233150   4.125   4.927  15.670 -0.1063  0.0888  0.0127
 3912TIP3    H133151   4.041   4.950  15.629  0.7670  2.6912 -0.4506
 3912TIP3    H233152   4.181   4.902  15.597 -0.6452 -2.2697  0.3873
 3913TIP3   OH233153   5.019   3.459  11.498 -0.0920  0.4512 -0.4389
 3913TIP3    H133154   5.051   3.410  11.574 -1.1201  1.3860  0.6163
 3913TIP3    H233155   5.038   3.550  11.519 -1.2532  0.7989 -0.8622
 3914TIP3   OH233156   0.067   3.929   2.852  0.4467  0.6916 -0.5500
 3914TIP3    H133157   0.057   3.993   2.922  0.4395 -0.3696  0.4404
 3914TIP3    H233158   0.135   3.869   2.884  1.4489  1.0100 -2.0645
 3915TIP3   OH233159   2.550   6.701   2.990  0.4064  0.0860 -0.3037
 3915TIP3    H133160   2.520   6.690   3.081 -1.9986  0.0458 -1.0558
 3915TIP3    H233161   2.475   6.674   2.937  1.5734  0.6836 -2.3125
 3916TIP3   OH233162   2.385   2.610   1.809  0.3176 -0.5404  0.3634
 3916TIP3    H133163   2.397   2.675   1.878  2.5605  0.6371 -1.0542
 3916TIP3    H233164   2.457   2.549   1.821  0.4773 -0.5641 -0.6519
 3917TIP3   OH233165   1.254   2.280   2.400  0.5778  0.1171 -0.4162
 3917TIP3    H133166   1.304   2.350   2.443 -0.3540  0.5508 -0.0267
 3917TIP3    H233167   1.179   2.325   2.362 -2.1371 -1.1649  3.1492
 3918TIP3   OH233168   4.401   0.554  15.539 -0.0940  0.3799 -0.0322
 3918TIP3    H133169   4.396   0.504  15.457  1.2825 -1.1778  0.8055
 3918TIP3    H233170   4.350   0.503  15.602 -0.5269  1.1889  0.2742
 3919TIP3   OH233171   0.102   6.626  12.580  0.0475 -0.4572  0.3231
 3919TIP3    H133172   0.069   6.539  12.605 -0.4001 -0.7635 -1.2547
 3919TIP3    H233173   0.123   6.617  12.487  0.3404  1.0295  0.2421
 3920TIP3   OH233174   2.521   1.299   2.370 -0.1208 -0.0432 -0.8848
 3920TIP3    H133175   2.552   1.255   2.449 -0.7893  1.0899  0.0243
 3920TIP3    H233176   2.587   1.366   2.352 -1.5060  1.7597  0.5238
 3921TIP3   OH233177   2.379   5.662   0.856 -0.0859  0.5426 -0.0122
 3921TIP3    H133178   2.326   5.621   0.925 -0.1815  0.1184 -0.3296
 3921TIP3    H233179   2.461   5.685   0.899 -0.2499  0.5308  0.3087
 3922TIP3   OH233180   0.604   2.321  11.069  0.3351 -0.3090  0.3822
 3922TIP3    H133181   0.667   2.390  11.091  0.7422 -0.5676  0.0302
 3922TIP3    H233182   0.640   2.278  10.992 -0.3212 -0.4031  0.1218
 3923TIP3   OH233183   6.748   0.338   2.893  0.5928  0.5808  0.1987
 3923TIP3    H133184   6.723   0.413   2.947 -1.0448 -0.2244  0.6143
 3923TIP3    H233185   6.664   0.300   2.865  1.4126 -0.0632 -1.4364
 3924TIP3   OH233186   2.323   3.837   3.325 -0.1555 -0.2328 -0.2791
 3924TIP3    H133187   2.278   3.918   3.302  0.0735  0.2696  1.0114
 3924TIP3    H233188   2.264   3.768   3.294 -1.2943  0.4213  0.3615
 3925TIP3   OH233189   2.622   0.095  10.992  0.4676 -0.2009  0.4078
 3925TIP3    H133190   2.702   0.042  10.985  0.9620  0.2206  2.4902
 3925TIP3    H233191   2.610   0.106  11.086 -1.7257  0.2550  0.0816
 3926TIP3   OH233192   0.540   5.974  16.806  0.5493  0.0036 -0.1385
 3926TIP3    H133193   0.563   5.971  16.899 -0.8570 -0.6071  0.2010
 3926TIP3    H233194   0.618   5.941  16.761  1.5125  1.0230  0.7670
 3927TIP3   OH233195   5.715   2.563   0.139  0.5842  0.0059 -0.5433
 3927TIP3    H133196   5.704   2.614   0.219 -1.2127 -1.0636 -0.0859
 3927TIP3    H233197   5.631   2.517   0.127  0.5810  0.6587 -3.4004
 3928TIP3   OH233198   1.368   3.678  14.823 -0.4257 -0.4844  0.1022
 3928TIP3    H133199   1.367   3.707  14.914 -1.0894  0.0176 -0.0624
 3928TIP3    H233200   1.460   3.686  14.796 -0.7411  2.5086 -0.2670
 3929TIP3   OH233201   1.205   0.751   4.516 -0.4061 -0.1769  0.1424
 3929TIP3    H133202   1.226   0.700   4.438  2.0307  1.5129 -0.3455
 3929TIP3    H233203   1.259   0.713   4.585 -0.4942  0.1121  0.3724
 3930TIP3   OH233204   4.417   3.335   6.030  0.1576  0.0672  0.0560
 3930TIP3    H133205   4.487   3.375   6.082  1.1315 -1.2374 -0.2293
 3930TIP3    H233206   4.462   3.274   5.972 -1.2288 -0.8539 -0.0686
 3931TIP3   OH233207   6.716   0.443  16.064  0.3820  0.5281  0.2616
 3931TIP3    H133208   6.737   0.535  16.053 -1.5100  0.9302 -0.2575
 3931TIP3    H233209   6.687   0.435  16.155  2.3826  0.0399  0.8825
 3932TIP3   OH233210   3.290   0.703   5.778 -0.1398 -0.0582  0.0520
 3932TIP3    H133211   3.317   0.615   5.753  0.9910  0.1468  0.5128
 3932TIP3    H233212   3.269   0.746   5.695 -2.0478 -1.1793 -0.0644
 3933TIP3   OH233213   3.655   3.944   4.709  0.0755  0.0502 -0.5211
 3933TIP3    H133214   3.626   3.853   4.699 -2.4757  0.8285 -0.7008
 3933TIP3    H233215   3.698   3.965   4.627 -0.6799 -0.5475 -1.0741
 3934TIP3   OH233216   1.211   4.860   0.925 -0.3756 -0.3470 -0.2051
 3934TIP3    H133217   1.138   4.826   0.873 -1.5015 -0.2864  1.2696
 3934TIP3    H233218   1.273   4.787   0.930 -1.4613 -1.2435  0.5485
 3935TIP3   OH233219   0.572   6.668   4.257  0.3777 -0.2311  0.2174
 3935TIP3    H133220   0.479   6.690   4.256 -0.1037 -2.1778  0.9041
 3935TIP3    H233221   0.602   6.692   4.344  0.3524 -0.3300  0.2526
 3936TIP3   OH233222   1.138   1.402   1.441 -0.3777  0.2064 -0.2136
 3936TIP3    H133223   1.189   1.484   1.444  0.3705 -0.2761  0.5316
 3936TIP3    H233224   1.090   1.407   1.358  0.3751  0.9820 -0.6159
 3937TIP3   OH233225   4.737   3.389   3.737  0.0749  0.5004  0.0436
 3937TIP3    H133226   4.711   3.299   3.718 -0.2142  0.3789  0.9564
 3937TIP3    H233227   4.826   3.381   3.771 -0.2994  0.4481  1.0325
 3938TIP3   OH233228   3.393   5.157   4.622 -0.0467 -0.8205 -0.0559
 3938TIP3    H133229   3.366   5.248   4.606  0.1430 -0.4424  1.6961
 3938TIP3    H233230   3.361   5.109   4.545 -0.2490  0.7064 -0.9425
 3939TIP3   OH233231   5.069   5.953  16.748 -1.1496 -0.2938 -0.4308
 3939TIP3    H133232   5.000   5.887  16.751 -1.0361 -0.4345 -0.8605
 3939TIP3    H233233   5.056   6.005  16.828  0.2417 -2.3064  1.1659
 3940TIP3   OH233234   4.307   5.977   0.561  1.0529  0.2141 -0.5063
 3940TIP3    H133235   4.393   6.010   0.536  1.4337 -0.3257  0.0783
 3940TIP3    H233236   4.292   6.013   0.649  0.7800  0.1171 -0.5125
 3941TIP3   OH233237   0.608   3.666  14.978  0.2612 -0.5363 -0.1034
 3941TIP3    H133238   0.570   3.719  15.048 -0.4580 -1.2262  0.0333
 3941TIP3    H233239   0.629   3.729  14.909  2.4857  0.3767  1.3562
 3942TIP3   OH233240   2.675   2.905  13.443  0.1454 -0.2329 -0.1909
 3942TIP3    H133241   2.756   2.942  13.478  0.1376  0.0194 -0.4285
 3942TIP3    H233242   2.664   2.950  13.359 -0.0015 -0.5965 -0.3661
 3943TIP3   OH233243   0.646   5.195   1.628 -0.2977  0.3878 -0.5102
 3943TIP3    H133244   0.647   5.186   1.532 -0.0744  0.8319 -0.5499
 3943TIP3    H233245   0.569   5.145   1.656  1.2206 -2.1720 -0.6936
 3944TIP3   OH233246   4.044   4.774   3.027 -0.2157  0.6782 -0.4974
 3944TIP3    H133247   4.077   4.723   2.953  1.1398  1.6840 -0.5913
 3944TIP3    H233248   4.120   4.784   3.085 -1.0494  0.6456  0.6072
 3945TIP3   OH233249   5.133   6.471  16.114  0.1285  0.5758  0.1569
 3945TIP3    H133250   5.094   6.546  16.157 -1.9746 -0.7582  0.6557
 3945TIP3    H233251   5.109   6.481  16.022 -2.9984 -1.1234  0.7119
 3946TIP3   OH233252   3.903   5.036  14.770  0.0229 -0.0802  0.0721
 3946TIP3    H133253   3.913   5.091  14.848 -0.8773 -0.3738  0.4024
 3946TIP3    H233254   3.978   4.976  14.773 -0.5916 -0.8038  1.3069
 3947TIP3   OH233255   3.082   4.464  15.360 -0.2357  0.2023  0.4214
 3947TIP3    H133256   3.085   4.435  15.451 -0.7861  0.2162  0.4434
 3947TIP3    H233257   3.035   4.547  15.362 -0.0043  0.3399  0.1591
 3948TIP3   OH233258   1.175   3.094  12.556  0.2762  0.0520  0.4552
 3948TIP3    H133259   1.175   3.004  12.523  2.4498 -0.3374  1.3814
 3948TIP3    H233260   1.190   3.085  12.650 -0.4812  1.3470  0.7059
 3949TIP3   OH233261   5.722   3.838  12.011 -0.5036  0.0331 -0.1865
 3949TIP3    H133262   5.709   3.797  12.096  0.6987  0.5087  0.2432
 3949TIP3    H233263   5.711   3.931  12.026  2.2601  0.3811  0.0294
 3950TIP3   OH233264   5.202   4.919   5.272 -0.4004 -0.7773 -0.2076
 3950TIP3    H133265   5.297   4.922   5.268 -0.3554 -0.4036  1.0210
 3950TIP3    H233266   5.181   4.919   5.365 -1.6041 -0.7402 -0.4640
 3951TIP3   OH233267   2.357   0.054  17.131  0.0336 -0.7614  0.1026
 3951TIP3    H133268   2.325  -0.034  17.116 -1.1936 -0.6243  1.7462
 3951TIP3    H233269   2.282   0.102  17.167  0.6327  0.9992 -0.8928
 3952TIP3   OH233270   6.687   4.193   3.318 -0.0907 -0.0138  0.0278
 3952TIP3    H133271   6.735   4.179   3.400  1.0120  2.5734 -0.1487
 3952TIP3    H233272   6.604   4.233   3.346 -0.1501 -0.0992 -0.0277
 3953TIP3   OH233273   3.924   0.429  12.060 -0.1418  0.1502  0.3605
 3953TIP3    H133274   3.858   0.439  11.991 -0.1219  1.4429  0.5203
 3953TIP3    H233275   3.997   0.386  12.017 -0.5555 -0.0399 -0.1603
 3954TIP3   OH233276   6.473   0.626  13.708  0.0631  0.0455 -0.2953
 3954TIP3    H133277   6.471   0.535  13.678 -0.0832 -0.1404  0.2736
 3954TIP3    H233278   6.385   0.659  13.690  0.1901  0.1486 -0.7273
 3955TIP3   OH233279   3.624   3.496  12.046  0.2998 -0.2136 -0.3558
 3955TIP3    H133280   3.581   3.566  11.997 -1.0050 -0.6582  0.1284
 3955TIP3    H233281   3.595   3.416  12.003  2.3281 -0.4321 -1.3269
 3956TIP3   OH233282   0.540   0.600   3.270  0.4223 -0.4547  0.0674
 3956TIP3    H133283   0.516   0.609   3.178  1.1900 -0.6751 -0.1573
 3956TIP3    H233284   0.509   0.513   3.295 -1.5805  0.3803  0.5764
 3957TIP3   OH233285   2.447   5.519   4.332  0.4018 -0.4364  0.2358
 3957TIP3    H133286   2.472   5.507   4.240  0.7206  0.2650  0.2266
 3957TIP3    H233287   2.428   5.431   4.363 -0.4291 -0.6038 -0.7059
 3958TIP3   OH233288   5.596   2.414   4.364  0.2346  0.0864 -0.2790
 3958TIP3    H133289   5.689   2.399   4.377 -0.1438 -0.1310  2.5107
 3958TIP3    H233290   5.588   2.509   4.354  0.7579  0.0894 -0.6948
 3959TIP3   OH233291   0.356   2.397  12.290  0.0563  0.0872  0.0029
 3959TIP3    H133292   0.315   2.384  12.204  1.8196  0.5787 -0.9434
 3959TIP3    H233293   0.320   2.327  12.344  0.8907 -1.8704 -1.8766
 3960TIP3   OH233294   6.157   6.326   0.109 -0.0516  0.2605  0.0217
 3960TIP3    H133295   6.231   6.267   0.121 -1.1900 -1.4991 -1.3105
 3960TIP3    H233296   6.095   6.276   0.056 -1.4462  2.3357 -0.3701
 3961TIP3   OH233297   0.146   3.658  12.990 -0.5191 -0.5014  0.3437
 3961TIP3    H133298   0.108   3.606  12.919 -3.1935  0.2736  1.1893
 3961TIP3    H233299   0.237   3.672  12.962 -1.5303 -0.0924 -2.9957
 3962TIP3   OH233300   1.413   0.680   4.950 -0.3531  0.4644 -0.1512
 3962TIP3    H133301   1.372   0.619   5.012 -2.3271  0.7044 -1.1875
 3962TIP3    H233302   1.367   0.665   4.868  2.2280  0.1715 -1.5834
 3963TIP3   OH233303   5.670   4.189   0.520 -0.9291  0.5656  0.0048
 3963TIP3    H133304   5.629   4.111   0.556 -2.2965  1.5041  0.5473
 3963TIP3    H233305   5.676   4.250   0.594 -1.4758  1.5951 -0.7716
 3964TIP3   OH233306   3.689   5.408   4.879  1.0053  0.5881 -0.4239
 3964TIP3    H133307   3.659   5.348   4.947  0.3825  1.7447  0.3357
 3964TIP3    H233308   3.688   5.356   4.799 -1.2726  0.0857 -0.0997
 3965TIP3   OH233309   2.195   5.464  14.961  0.0231 -0.0859  0.1165
 3965TIP3    H133310   2.192   5.530  15.030 -0.2534  0.0007  0.0210
 3965TIP3    H233311   2.172   5.511  14.882  0.0964 -0.2403  0.0042
 3966TIP3   OH233312   3.276   2.345   3.325  0.1078  0.0469 -0.2831
 3966TIP3    H133313   3.205   2.327   3.386 -0.2544 -0.8156 -0.9627
 3966TIP3    H233314   3.354   2.352   3.381 -0.7711  2.8677  0.6771
 3967TIP3   OH233315   2.753   6.005  12.850  0.5472  0.0629  0.9468
 3967TIP3    H133316   2.732   5.968  12.936  0.2368 -0.2715  0.7291
 3967TIP3    H233317   2.767   5.929  12.794 -0.5957  0.2648  0.3762
 3968TIP3   OH233318   2.394   5.442  17.143 -0.0511 -0.0630 -0.6125
 3968TIP3    H133319   2.398   5.512  17.208  2.3974  0.9579 -1.7769
 3968TIP3    H233320   2.402   5.487  17.059 -0.6848 -1.5664 -1.5016
 3969TIP3   OH233321   5.375   5.957  14.985 -0.4899  0.2053  0.2609
 3969TIP3    H133322   5.420   5.939  15.067 -1.0637  0.0728  0.5415
 3969TIP3    H233323   5.337   5.874  14.959  2.3186 -0.5527 -1.7503
 3970TIP3   OH233324   4.749   0.786   2.510 -0.0781  0.4972 -0.8502
 3970TIP3    H133325   4.805   0.807   2.436  0.6170  1.2149 -0.1244
 3970TIP3    H233326   4.726   0.694   2.497  3.1392 -0.5095  0.0402
 3971TIP3   OH233327   5.170   6.366  16.929  0.0581  0.2417  0.0669
 3971TIP3    H133328   5.096   6.419  16.959 -1.3665 -2.1735  1.0106
 3971TIP3    H233329   5.173   6.381  16.834 -2.5847 -0.6986 -0.2189
 3972TIP3   OH233330   0.084   3.980   1.947  0.7596 -0.0864  0.2396
 3972TIP3    H133331   0.175   3.977   1.976  0.8196 -0.9014 -0.0113
 3972TIP3    H233332   0.039   3.916   2.003  0.2468  0.6444  0.6729
 3973TIP3   OH233333   1.335   0.134  14.312  0.0067 -0.4860 -0.7733
 3973TIP3    H133334   1.370   0.071  14.375  0.9053  0.1669 -0.6205
 3973TIP3    H233335   1.246   0.103  14.295  0.4054 -1.7619 -0.6415
 3974TIP3   OH233336   4.282   0.390  13.479 -0.0589  0.5621 -0.2127
 3974TIP3    H133337   4.341   0.421  13.410 -1.1603  1.0508 -0.9414
 3974TIP3    H233338   4.289   0.294  13.475  1.4979  0.6388  0.4275
 3975TIP3   OH233339   2.661   4.741  13.905  0.0805  0.1399  0.1720
 3975TIP3    H133340   2.630   4.732  13.815 -0.9266 -1.0727  0.6097
 3975TIP3    H233341   2.586   4.713  13.959  0.6713  0.8355  1.3750
 3976TIP3   OH233342   3.927   6.156   2.395  0.3101 -0.5437 -0.9336
 3976TIP3    H133343   3.911   6.206   2.315 -0.2919 -2.0523 -1.7709
 3976TIP3    H233344   3.921   6.064   2.368  1.9396 -1.0824  0.4786
 3977TIP3   OH233345   2.984   0.484  12.760  0.1937 -0.2775 -0.3974
 3977TIP3    H133346   3.078   0.467  12.760  0.0086 -1.2950  0.0703
 3977TIP3    H233347   2.966   0.523  12.846 -0.1142 -1.7824  0.2306
 3978TIP3   OH233348   1.821   5.090   3.843 -0.0398 -0.0427  0.0429
 3978TIP3    H133349   1.840   5.077   3.750 -0.7600 -0.7161 -0.0140
 3978TIP3    H233350   1.863   5.173   3.864  0.8531 -0.3002 -0.6785
 3979TIP3   OH233351   5.822   4.860  14.981 -0.1455 -0.0712  0.2192
 3979TIP3    H133352   5.845   4.934  14.925  1.1269 -0.4336  0.2474
 3979TIP3    H233353   5.876   4.871  15.059 -0.5076 -0.6169  0.5483
 3980TIP3   OH233354   1.046   1.410  12.243 -0.4732  0.1565 -0.0937
 3980TIP3    H133355   1.022   1.337  12.301 -0.1193  0.9450  1.0769
 3980TIP3    H233356   1.111   1.373  12.184  0.2806 -0.2962  0.9890
 3981TIP3   OH233357   0.066   4.563   1.682  0.5530  0.2617  0.0070
 3981TIP3    H133358  -0.011   4.612   1.654  1.4496  2.0009  0.4824
 3981TIP3    H233359   0.047   4.538   1.772  0.4787  0.5882  0.0836
 3982TIP3   OH233360   1.660   0.592  14.452  0.2419 -0.5690  0.5592
 3982TIP3    H133361   1.717   0.567  14.525 -0.7115  0.9794  1.8734
 3982TIP3    H233362   1.712   0.655  14.402  0.3090 -0.4054  0.8313
 3983TIP3   OH233363   1.919   3.882   2.399  0.2226 -0.2533  0.1962
 3983TIP3    H133364   1.847   3.843   2.447  0.2702 -2.1541 -1.2058
 3983TIP3    H233365   1.904   3.856   2.308  2.7057 -0.7714 -0.1095
 3984TIP3   OH233366   0.616   2.154   1.491  0.6929 -0.0881 -0.3416
 3984TIP3    H133367   0.635   2.062   1.509  1.5248 -0.2439 -1.9418
 3984TIP3    H233368   0.656   2.201   1.563 -0.1379 -1.0001  0.7420
 3985TIP3   OH233369   3.616   1.239   5.564 -0.3906 -0.1658 -0.2216
 3985TIP3    H133370   3.527   1.251   5.594 -0.7138 -0.0012 -1.2156
 3985TIP3    H233371   3.662   1.319   5.589 -0.0551 -0.9962  1.8886
 3986TIP3   OH233372   0.627   6.638   3.963  0.2693 -0.0289 -0.4082
 3986TIP3    H133373   0.572   6.639   4.041 -0.3146 -0.4501 -0.8099
 3986TIP3    H233374   0.631   6.546   3.938  0.1723  0.1434 -1.0709
 3987TIP3   OH233375   0.390   2.183  13.425 -0.0343  0.1786 -0.2712
 3987TIP3    H133376   0.454   2.254  13.423 -1.6867  1.7009 -0.6625
 3987TIP3    H233377   0.372   2.164  13.333  0.4786 -0.8503 -0.1712
 3988TIP3   OH233378   4.846   0.553   2.678 -0.0548  0.2265 -0.4499
 3988TIP3    H133379   4.886   0.540   2.592 -1.1430  0.4764 -1.0021
 3988TIP3    H233380   4.824   0.646   2.680 -2.8729 -0.3643 -1.1715
 3989TIP3   OH233381   2.583   4.559   1.880  0.4050  0.1719 -0.3643
 3989TIP3    H133382   2.664   4.596   1.845  0.4381 -0.9041 -1.4462
 3989TIP3    H233383   2.571   4.477   1.832 -1.2343  0.2367 -0.0982
 3990TIP3   OH233384   2.574   0.814  14.292 -0.3400  0.2185 -0.1705
 3990TIP3    H133385   2.661   0.800  14.330 -0.4323 -1.7016 -0.6497
 3990TIP3    H233386   2.547   0.900  14.326  1.3978  0.4710  0.6188
 3991TIP3   OH233387   2.967   2.873  14.069  0.5119  0.5768  0.0228
 3991TIP3    H133388   2.965   2.805  14.002  0.4315 -0.8567  1.4389
 3991TIP3    H233389   3.005   2.829  14.146  0.9671  2.2866  0.7959
 3992TIP3   OH233390   3.502   1.177   2.414 -0.0147 -0.2539  0.7163
 3992TIP3    H133391   3.478   1.269   2.402 -0.0537 -0.3621 -0.0582
 3992TIP3    H233392   3.511   1.167   2.508  2.9059  1.2732  0.6334
 3993TIP3   OH233393   4.456   4.307   2.082 -0.3024 -0.6281  0.3539
 3993TIP3    H133394   4.376   4.306   2.031  0.4829 -1.0670 -0.8885
 3993TIP3    H233395   4.427   4.304   2.173 -1.8064  3.2490  0.0973
 3994TIP3   OH233396   0.210   3.388  14.723  0.1712 -0.3811 -0.4225
 3994TIP3    H133397   0.195   3.417  14.634 -0.9403 -1.2564 -0.5464
 3994TIP3    H233398   0.173   3.299  14.725  0.3473 -0.4328  0.8501
 3995TIP3   OH233399   6.023   5.382   1.604  0.3280  0.2476  0.2089
 3995TIP3    H133400   5.985   5.463   1.570 -0.2884 -0.9752 -2.0626
 3995TIP3    H233401   6.107   5.374   1.561 -0.3026 -1.1312 -0.8062
 3996TIP3   OH233402   6.232   2.475  15.629  0.0995  0.2289  0.1774
 3996TIP3    H133403   6.324   2.494  15.610 -0.0583 -0.6918 -1.6349
 3996TIP3    H233404   6.187   2.559  15.619 -0.0745 -0.2964 -4.3783
 3997TIP3   OH233405   1.285   5.745  12.489 -0.1100 -0.0979  0.4428
 3997TIP3    H133406   1.314   5.654  12.480  1.0620  0.3417 -0.4500
 3997TIP3    H233407   1.351   5.795  12.442 -2.3990  0.9556 -1.7688
 3998TIP3   OH233408   1.315   2.029  12.485 -0.3103  0.5613  0.1357
 3998TIP3    H133409   1.360   1.971  12.423 -0.8062  2.1910 -1.7836
 3998TIP3    H233410   1.365   2.020  12.566  1.4381 -0.2564 -0.9947
 3999TIP3   OH233411   6.029   6.465   3.652 -0.3470  0.5375 -0.1776
 3999TIP3    H133412   5.950   6.499   3.693  0.8730  0.9270  1.9304
 3999TIP3    H233413   6.004   6.449   3.561 -2.6242  1.3476  0.2720
 4000TIP3   OH233414   2.385   3.180  17.039  0.2674 -0.6085  0.1292
 4000TIP3    H133415   2.397   3.226  16.955 -0.4824 -0.5220  0.0638
 4000TIP3    H233416   2.367   3.251  17.101 -1.6111 -0.8391 -0.1076
 4001TIP3   OH233417   4.631   2.747  11.777 -0.3405 -0.2889  0.1182
 4001TIP3    H133418   4.647   2.841  11.774 -2.1277 -0.0022 -1.1254
 4001TIP3    H233419   4.717   2.708  11.760  0.5016  1.0915  1.1100
 4002TIP3   OH233420   4.155   3.215  15.488 -0.5422 -0.3303 -0.0196
 4002TIP3    H133421   4.150   3.171  15.573  0.7447 -1.5095 -0.5237
 4002TIP3    H233422   4.091   3.169  15.434 -1.7744  0.8036  0.4775
 4003TIP3   OH233423   3.905   5.059   6.271  0.3333  0.3518  0.3745
 4003TIP3    H133424   3.820   5.021   6.248  0.9783 -0.8278 -0.0985
 4003TIP3    H233425   3.967   4.987   6.261  1.3386  1.1089  1.0840
 4004TIP3   OH233426   3.939   5.575   2.668  0.1862  0.1136 -0.2829
 4004TIP3    H133427   4.003   5.505   2.655  0.4414 -0.1478  2.2368
 4004TIP3    H233428   3.856   5.530   2.684 -0.1289  0.4287 -0.9924
 4005TIP3   OH233429   6.678   4.678  17.139  0.0139  0.0118 -0.4563
 4005TIP3    H133430   6.676   4.670  17.234 -1.7011  0.8370 -0.3958
 4005TIP3    H233431   6.708   4.592  17.108  0.4642 -0.2995  0.8117
 4006TIP3   OH233432   5.339   5.892  12.518 -0.0967  0.0334  0.1700
 4006TIP3    H133433   5.421   5.844  12.526  1.1648  1.5890 -2.7667
 4006TIP3    H233434   5.294   5.850  12.445 -1.4326 -0.0946  1.0541
 4007TIP3   OH233435   6.270   3.721  12.968  0.1289 -0.2165 -0.8857
 4007TIP3    H133436   6.238   3.749  13.054  0.5349  0.6001 -0.9925
 4007TIP3    H233437   6.362   3.699  12.983  1.0291  2.7990 -1.7005
 4008TIP3   OH233438   4.267   2.624   5.208 -0.0098 -0.0006 -0.2492
 4008TIP3    H133439   4.223   2.590   5.286  2.2256 -1.2504  0.5145
 4008TIP3    H233440   4.329   2.555   5.183  0.6262  1.1715 -2.0208
 4009TIP3   OH233441   5.074   1.056   0.153  0.4433 -0.1785 -0.4557
 4009TIP3    H133442   5.101   1.032   0.064  0.9910  1.3263 -0.7048
 4009TIP3    H233443   4.991   1.011   0.166  0.5752 -0.7589 -1.5690
 4010TIP3   OH233444   6.097   3.694   3.690  0.0691 -0.0167  0.3726
 4010TIP3    H133445   6.110   3.786   3.667 -1.7153  0.6678  1.9024
 4010TIP3    H233446   6.158   3.678   3.762  0.7304 -0.1838 -0.2189
 4011TIP3   OH233447   3.457   4.936   5.594  0.5047 -0.2449 -0.2045
 4011TIP3    H133448   3.432   4.978   5.511  0.3228  0.4219  0.1872
 4011TIP3    H233449   3.418   4.849   5.589  0.4654 -0.1961 -0.8084
 4012TIP3   OH233450   6.015   1.527   6.298  0.0401 -0.1137 -0.5063
 4012TIP3    H133451   6.058   1.494   6.219  0.0160 -0.6413 -0.2947
 4012TIP3    H233452   6.078   1.590   6.334  0.5791 -0.7695 -0.2808
 4013TIP3   OH233453   0.416   1.769  12.058  0.5104  0.5321 -0.1766
 4013TIP3    H133454   0.452   1.853  12.086 -0.6536  0.9333  0.1399
 4013TIP3    H233455   0.338   1.792  12.008 -0.4854 -0.3921  0.9171
 4014TIP3   OH233456   5.736   6.384  13.977 -0.1854  0.0566  0.2680
 4014TIP3    H133457   5.803   6.423  13.920 -0.6402 -1.3258 -1.2508
 4014TIP3    H233458   5.740   6.290  13.957 -2.9036 -0.0005 -0.2028
 4015TIP3   OH233459   5.767   3.307  15.345 -0.1680  0.2050  0.3156
 4015TIP3    H133460   5.836   3.281  15.284  1.3815  0.8794  1.7378
 4015TIP3    H233461   5.767   3.402  15.343  0.7141  0.2778  2.1938
 4016TIP3   OH233462   5.857   6.178  12.143  0.0213  0.6024  0.0252
 4016TIP3    H133463   5.938   6.133  12.116 -1.4425 -0.7563 -2.2813
 4016TIP3    H233464   5.790   6.142  12.085 -1.6461  4.1305 -0.3239
 4017TIP3   OH233465   2.880   0.478  14.995 -0.4152 -0.1121  0.0103
 4017TIP3    H133466   2.896   0.414  14.925  3.2149 -1.4328  1.9172
 4017TIP3    H233467   2.891   0.429  15.076 -0.6042  2.2611  1.5231
 4018TIP3   OH233468   2.828   2.974  15.545  0.1043  0.3834 -0.3213
 4018TIP3    H133469   2.820   3.069  15.540  1.3736  0.4498 -1.1985
 4018TIP3    H233470   2.920   2.958  15.565  0.0403 -0.6839 -0.8323
 4019TIP3   OH233471   3.251   4.516   0.374  0.5534  1.1301 -0.4732
 4019TIP3    H133472   3.265   4.594   0.320 -3.5705  1.1307 -1.7600
 4019TIP3    H233473   3.239   4.550   0.462  0.6322  1.7927 -0.7122
 4020TIP3   OH233474   4.487   5.314  16.927 -0.3164  0.4667 -0.1209
 4020TIP3    H133475   4.462   5.362  17.007  1.0743  0.3338  0.4075
 4020TIP3    H233476   4.512   5.382  16.865  2.1613  0.4410  0.8027
 4021TIP3   OH233477   1.680   6.193   1.692 -0.2340  0.8998 -0.4792
 4021TIP3    H133478   1.614   6.150   1.639 -1.7816 -0.3068  2.3321
 4021TIP3    H233479   1.653   6.285   1.694 -0.6206  0.7994 -1.0957
 4022TIP3   OH233480   6.673   3.217   4.049 -0.0342  0.2936 -0.5927
 4022TIP3    H133481   6.682   3.223   3.954 -2.9865  1.0457 -0.8869
 4022TIP3    H233482   6.637   3.301   4.075  1.2986  0.2956  1.2842
 4023TIP3   OH233483   1.843   2.484  11.270 -0.4345  0.2282  0.2373
 4023TIP3    H133484   1.883   2.571  11.270 -1.2893  0.6574  2.3546
 4023TIP3    H233485   1.755   2.498  11.235 -0.1928  0.0094 -0.4695
 4024TIP3   OH233486   3.854   3.184  14.081 -0.2632  0.0876 -0.2589
 4024TIP3    H133487   3.804   3.118  14.128 -1.2964  1.0241 -0.0106
 4024TIP3    H233488   3.789   3.250  14.057  0.8769  1.3822  0.1664
 4025TIP3   OH233489   2.834   3.547   1.318 -0.4447  0.1121  0.6756
 4025TIP3    H133490   2.783   3.523   1.240  1.2421 -1.6538  0.0795
 4025TIP3    H233491   2.768   3.573   1.382 -1.9299  0.6223 -0.9914
 4026TIP3   OH233492   4.467   0.186  12.665 -0.6003  0.4701 -0.1255
 4026TIP3    H133493   4.530   0.116  12.647 -2.0623 -1.1621  0.9122
 4026TIP3    H233494   4.517   0.267  12.652  0.5383 -0.6835 -3.5752
 4027TIP3   OH233495   1.258   6.745   0.181 -0.3405  0.0062  0.1349
 4027TIP3    H133496   1.189   6.799   0.221  0.5635  1.2015  0.1053
 4027TIP3    H233497   1.267   6.780   0.092  0.9536  0.4812  0.4435
 4028TIP3   OH233498   2.202   1.675  14.767  0.6911  0.1279 -0.6275
 4028TIP3    H133499   2.213   1.768  14.750  1.3958  0.1301 -0.1652
 4028TIP3    H233500   2.195   1.668  14.862  1.4040 -0.3684 -0.6107
 4029TIP3   OH233501   0.393   4.237  14.785  0.0026  0.2332  0.1550
 4029TIP3    H133502   0.334   4.220  14.711 -1.3918  1.2807  0.9954
 4029TIP3    H233503   0.460   4.295  14.749 -1.2201  1.5365 -0.0634
 4030TIP3   OH233504   1.559   0.056   4.406  0.2555  0.3267 -0.2641
 4030TIP3    H133505   1.529   0.090   4.322 -1.0392 -0.4521 -0.1219
 4030TIP3    H233506   1.479   0.041   4.456  0.9799 -0.0311  0.7946
 4031TIP3   OH233507   0.895   5.539  12.569 -0.4085  0.0996 -0.6503
 4031TIP3    H133508   0.839   5.550  12.646 -0.8670 -0.3272 -0.9189
 4031TIP3    H233509   0.895   5.445  12.552  0.7150  0.0580 -0.4261
 4032TIP3   OH233510   0.447   0.631   0.599 -0.4131 -0.7637  0.0935
 4032TIP3    H133511   0.473   0.542   0.622  2.1323  0.0023  0.2741
 4032TIP3    H233512   0.394   0.660   0.673 -0.5681 -1.8416  0.4087
 4033TIP3   OH233513   5.113   0.674   4.266  0.0752 -0.2226 -0.6294
 4033TIP3    H133514   5.042   0.729   4.301  0.7432  0.5004 -0.3874
 4033TIP3    H233515   5.161   0.732   4.208  1.2524 -0.3261  0.2293
 4034TIP3   OH233516   5.754   3.417  16.586  0.1066 -0.1600 -0.7584
 4034TIP3    H133517   5.767   3.511  16.576 -0.9922 -0.1765 -2.4810
 4034TIP3    H233518   5.713   3.407  16.672  3.4647  0.5996  1.0344
 4035TIP3   OH233519   6.119   6.030  11.429 -0.0431 -0.1086  0.0329
 4035TIP3    H133520   6.049   6.032  11.494 -2.3082 -1.5080 -2.3163
 4035TIP3    H233521   6.089   6.088  11.360  0.5981 -1.5690 -1.4959
 4036TIP3   OH233522   0.512   2.427  12.910 -0.2605 -0.1495 -0.0067
 4036TIP3    H133523   0.426   2.385  12.909 -0.7772  0.8338  1.2444
 4036TIP3    H233524   0.507   2.494  12.842 -1.2982  1.4173  1.5592
 4037TIP3   OH233525   3.425   0.372  13.642 -0.3177  0.5471  0.9325
 4037TIP3    H133526   3.389   0.393  13.556  0.0665 -1.8730  0.1370
 4037TIP3    H233527   3.450   0.279  13.636 -1.0654  0.0854  3.9109
 4038TIP3   OH233528   3.192   6.049   1.714 -0.1552  0.2498  0.0567
 4038TIP3    H133529   3.188   6.001   1.631  0.7157  0.9719 -0.4164
 4038TIP3    H233530   3.251   5.996   1.768  0.8942  0.8262 -0.5043
 4039TIP3   OH233531   4.950   6.061  15.000  0.1583 -0.3032 -0.0896
 4039TIP3    H133532   5.007   6.137  15.012 -0.9608  0.4178  0.8088
 4039TIP3    H233533   4.989   5.993  15.055 -0.0668  0.3126  0.8448
 4040TIP3   OH233534   4.227   3.805  14.434 -0.4026  0.0445  0.3647
 4040TIP3    H133535   4.240   3.803  14.340  1.3206  1.3022  0.5387
 4040TIP3    H233536   4.255   3.719  14.465  1.6871  0.5660  0.0038
 4041TIP3   OH233537   2.584   2.122   1.329 -0.2671  0.3653  0.0476
 4041TIP3    H133538   2.564   2.133   1.236  0.8303  2.2279 -0.0015
 4041TIP3    H233539   2.647   2.050   1.331 -2.0589 -1.2583 -0.3927
 4042TIP3   OH233540   4.703   4.849   3.230 -0.4186 -0.5928 -0.0576
 4042TIP3    H133541   4.785   4.828   3.185 -1.1490 -1.2150 -1.1454
 4042TIP3    H233542   4.669   4.763   3.257 -0.0277 -0.2229  1.6113
 4043TIP3   OH233543   5.959   4.207   6.078  0.4660  0.8730  0.1739
 4043TIP3    H133544   6.011   4.146   6.129 -0.9403 -0.0889  0.4765
 4043TIP3    H233545   6.005   4.291   6.087  1.1673  0.3544  1.6171
 4044TIP3   OH233546   1.076   5.764  14.753  0.0446 -0.1636  0.3017
 4044TIP3    H133547   1.101   5.823  14.825 -0.4487  1.1109 -0.5453
 4044TIP3    H233548   1.017   5.700  14.794 -2.4383  2.1581  0.5596
 4045TIP3   OH233549   1.406   5.995  11.814  0.4538  0.2383 -0.0111
 4045TIP3    H133550   1.365   6.016  11.730 -0.9974 -1.4675  0.2448
 4045TIP3    H233551   1.333   5.970  11.871  1.3913  1.7009  1.8771
 4046TIP3   OH233552   3.327   3.687  15.694 -0.1902  0.4998  0.2474
 4046TIP3    H133553   3.291   3.679  15.782  0.0146 -0.4635  0.2524
 4046TIP3    H233554   3.412   3.644  15.699 -1.0014 -1.2907 -0.9010
 4047TIP3   OH233555   4.328   6.527  11.783  0.0105  0.5552  0.1469
 4047TIP3    H133556   4.317   6.621  11.796  2.3755  1.2385 -2.3562
 4047TIP3    H233557   4.423   6.515  11.773 -0.2389 -2.1239  0.5452
 4048TIP3   OH233558   4.983   1.314   0.068 -0.0554 -0.0063 -0.8456
 4048TIP3    H133559   5.017   1.227   0.087  0.5823  0.4643  0.1903
 4048TIP3    H233560   5.030   1.372   0.128  0.5161  1.2357 -2.4544
 4049TIP3   OH233561   4.808   3.459  14.510 -0.7534  0.1312 -0.3051
 4049TIP3    H133562   4.727   3.419  14.480 -1.0000  0.0281  0.4826
 4049TIP3    H233563   4.808   3.546  14.471 -1.3390  0.2013 -0.1559
 4050TIP3   OH233564   5.830   6.698   0.824 -0.4439 -0.2152  0.2487
 4050TIP3    H133565   5.861   6.731   0.908 -1.1127 -1.0023  0.8158
 4050TIP3    H233566   5.893   6.732   0.760 -0.1021  0.6358  1.0251
 4051TIP3   OH233567   4.180   5.305   5.993  0.4416 -0.2456  0.4025
 4051TIP3    H133568   4.262   5.320   5.947  0.4064  1.2895  0.8208
 4051TIP3    H233569   4.116   5.286   5.924  0.4832  1.6097 -0.1627
 4052TIP3   OH233570   1.997   4.766  11.580  0.2747 -0.0498 -0.8405
 4052TIP3    H133571   1.981   4.782  11.487  0.0706  1.3704 -0.5733
 4052TIP3    H233572   2.092   4.753  11.586  0.3357  0.2262 -1.2002
 4053TIP3   OH233573   6.759   3.553  15.626 -0.0884  0.6303 -0.0818
 4053TIP3    H133574   6.840   3.593  15.657  0.3965  0.3033 -0.9006
 4053TIP3    H233575   6.689   3.599  15.673  0.6545 -0.4774  2.1766
 4054TIP3   OH233576   1.281   4.956   6.423  0.5463  0.2476  0.1118
 4054TIP3    H133577   1.349   4.952   6.356  1.0402 -1.5565  0.7018
 4054TIP3    H233578   1.299   4.882   6.481 -1.0157  0.6451  1.1522
 4055TIP3   OH233579   2.999   3.718   4.238 -0.1306  0.4602 -0.2298
 4055TIP3    H133580   2.930   3.766   4.284 -1.5678  0.4456 -2.3173
 4055TIP3    H233581   3.042   3.784   4.184  0.1893  0.0759 -0.4445
 4056TIP3   OH233582   1.743   3.545  14.975  0.3122  0.3979 -0.2373
 4056TIP3    H133583   1.795   3.480  14.928 -0.4302  0.0384 -0.5689
 4056TIP3    H233584   1.757   3.525  15.067  0.7892  0.3280 -0.3245
 4057TIP3   OH233585   6.743   6.637  12.851  0.4884 -0.6484  0.2443
 4057TIP3    H133586   6.694   6.709  12.889  0.6453 -0.1890 -0.4096
 4057TIP3    H233587   6.794   6.678  12.781  0.1618 -1.4810 -0.4864
 4058TIP3   OH233588   4.082   3.054   3.175  0.1858  0.4493 -0.0802
 4058TIP3    H133589   4.080   2.994   3.100 -0.4784 -0.4251  0.6204
 4058TIP3    H233590   4.085   2.997   3.251  1.4537  1.3406  0.5616
 4059TIP3   OH233591   5.860   1.761  14.830  0.1717 -0.0683  0.0376
 4059TIP3    H133592   5.837   1.808  14.910 -0.3075 -1.1435  0.5375
 4059TIP3    H233593   5.858   1.828  14.762  2.3932  1.2363  1.2111
 4060TIP3   OH233594   4.052   0.541   2.772 -0.3743 -0.5727 -0.2564
 4060TIP3    H133595   4.108   0.474   2.812 -0.9513  0.0756  1.6818
 4060TIP3    H233596   3.966   0.527   2.811 -0.4105  1.5411  0.4750
 4061TIP3   OH233597   1.011   4.907   5.193 -0.3491 -0.4438  0.3615
 4061TIP3    H133598   1.048   4.862   5.117  1.4503  0.7013  0.5339
 4061TIP3    H233599   1.003   4.998   5.166  2.4765  0.4283  2.2516
 4062TIP3   OH233600   2.867   4.964  12.045  0.3744 -0.4743 -0.1990
 4062TIP3    H133601   2.933   5.033  12.050 -0.4040  0.2674 -0.0739
 4062TIP3    H233602   2.900   4.904  11.978  1.9355 -0.9302  0.9211
 4063TIP3   OH233603   0.923   6.256   0.184 -0.4386 -0.3841  0.3662
 4063TIP3    H133604   0.939   6.284   0.274  0.7947 -0.3971  0.1665
 4063TIP3    H233605   0.876   6.329   0.143  3.1551  1.7046 -0.2905
 4064TIP3   OH233606   3.029   3.503  16.444 -0.4441 -0.2456  0.4352
 4064TIP3    H133607   3.058   3.429  16.391 -0.0709  0.5764 -0.5155
 4064TIP3    H233608   3.075   3.492  16.528 -2.8223 -2.8604  1.4918
 4065TIP3   OH233609   5.498   4.651   5.501 -0.0642  0.1812 -0.3228
 4065TIP3    H133610   5.571   4.621   5.448 -0.7383  1.6788 -2.1442
 4065TIP3    H233611   5.511   4.746   5.510 -1.7643  0.4790 -0.7059
 4066TIP3   OH233612   5.263   2.346   1.657 -0.4007 -0.2222 -0.3543
 4066TIP3    H133613   5.340   2.300   1.623  0.7630  0.4755  1.2658
 4066TIP3    H233614   5.297   2.430   1.687 -1.4740 -0.5617  1.9235
 4067TIP3   OH233615   1.612   5.946   4.088 -0.4400 -0.3013 -0.3368
 4067TIP3    H133616   1.547   5.976   4.151 -0.2602 -0.6168  0.0013
 4067TIP3    H233617   1.692   5.992   4.112 -0.4710 -0.1155 -0.5871
 4068TIP3   OH233618   6.086   4.982  12.714  0.0230 -0.3302 -0.6223
 4068TIP3    H133619   6.042   4.930  12.781  0.4937  0.6359  0.4546
 4068TIP3    H233620   6.177   4.988  12.743  0.1425  0.4653 -1.1159
 4069TIP3   OH233621   0.981   2.393  15.161 -0.1736  0.7123 -0.1343
 4069TIP3    H133622   0.894   2.363  15.186  0.3596 -0.7776 -0.0206
 4069TIP3    H233623   0.967   2.481  15.125 -1.8479  0.0280 -1.1924
 4070TIP3   OH233624   2.246   1.722   0.582 -0.1325  0.1110 -0.1520
 4070TIP3    H133625   2.270   1.776   0.658  0.2811  0.9405 -0.8608
 4070TIP3    H233626   2.153   1.701   0.596 -1.0051  3.1175 -1.1149
 4071TIP3   OH233627   4.512   2.981   6.381  0.0319 -0.4142 -0.5077
 4071TIP3    H133628   4.430   2.936   6.402  0.2460 -1.9519 -2.7482
 4071TIP3    H233629   4.580   2.915   6.392  1.0258  0.8793  1.4313
 4072TIP3   OH233630   0.731   0.107  15.697  0.6306 -0.5700  0.0510
 4072TIP3    H133631   0.681   0.037  15.656 -0.1578 -0.5905  1.0361
 4072TIP3    H233632   0.698   0.187  15.657 -1.4949 -0.4408  2.0146
 4073TIP3   OH233633   0.521   1.508   5.157  0.0244  0.1733 -0.2760
 4073TIP3    H133634   0.490   1.432   5.106 -2.4314  0.0475  1.3441
 4073TIP3    H233635   0.471   1.582   5.123  0.0422  0.4964  0.3996
 4074TIP3   OH233636   1.377   4.506   4.619  0.1184  0.2755  0.9050
 4074TIP3    H133637   1.430   4.563   4.674 -1.5701  0.9096  1.8969
 4074TIP3    H233638   1.407   4.524   4.530  1.1698  1.0397  1.4127
 4075TIP3   OH233639   1.396   1.479  14.816 -0.2145 -0.2055 -0.6183
 4075TIP3    H133640   1.455   1.555  14.820  0.2799 -0.4377 -2.6779
 4075TIP3    H233641   1.435   1.415  14.876 -0.0389  0.7752  0.3123
 4076TIP3   OH233642   3.498   2.071  13.799 -0.2149  0.3680  0.4723
 4076TIP3    H133643   3.504   2.147  13.741 -1.6095 -0.5959 -0.9772
 4076TIP3    H233644   3.545   2.098  13.878  0.5240  2.2178 -0.5502
 4077TIP3   OH233645   5.743   4.528  14.303  0.6511  0.8922 -0.0843
 4077TIP3    H133646   5.833   4.558  14.311  0.9153  0.1511 -0.2228
 4077TIP3    H233647   5.749   4.433  14.307 -0.1017  0.8284 -0.3667
 4078TIP3   OH233648   4.903   4.268  16.050 -0.1727 -0.1718 -0.1304
 4078TIP3    H133649   4.820   4.287  16.005 -0.0202  0.8350  0.0127
 4078TIP3    H233650   4.936   4.190  16.005 -0.8738 -0.1898 -0.6279
 4079TIP3   OH233651   5.433   1.350  16.490 -0.3430  0.2423 -0.1993
 4079TIP3    H133652   5.479   1.283  16.440 -2.3309 -0.5998 -0.9420
 4079TIP3    H233653   5.354   1.306  16.523 -0.1197  1.3530  1.9291
 4080TIP3   OH233654   5.806   2.199  15.865  0.7560 -0.0511 -0.1475
 4080TIP3    H133655   5.750   2.123  15.850  1.7965 -1.0608  0.9288
 4080TIP3    H233656   5.854   2.178  15.945  1.2344  1.6442  0.0362
 4081TIP3   OH233657   4.834   6.113   0.719  0.0899 -0.6301 -0.0658
 4081TIP3    H133658   4.827   6.038   0.779 -1.7242 -2.3351 -2.2973
 4081TIP3    H233659   4.763   6.172   0.746 -0.3310 -1.1030 -0.1320
 4082TIP3   OH233660   0.801   4.380  16.746  0.2154 -0.5893 -0.0437
 4082TIP3    H133661   0.763   4.468  16.756  1.1694 -0.1114 -0.5176
 4082TIP3    H233662   0.827   4.376  16.654 -3.0541 -2.6924 -0.9634
 4083TIP3   OH233663   1.763   6.362   2.201  0.1600 -0.8123 -0.3309
 4083TIP3    H133664   1.829   6.296   2.183  0.3911 -1.4992  2.7674
 4083TIP3    H233665   1.680   6.314   2.203  0.1877 -0.8271  0.7760
 4084TIP3   OH233666   0.279   2.737   4.061  0.1971  0.1176  0.2732
 4084TIP3    H133667   0.270   2.754   4.155 -0.4471 -0.1447  0.2622
 4084TIP3    H233668   0.193   2.703   4.034  0.9412 -1.5211 -0.0580
 4085TIP3   OH233669   4.492   0.590  12.105 -0.2027  0.2099 -0.1573
 4085TIP3    H133670   4.523   0.514  12.056 -0.0480 -0.2001  0.5620
 4085TIP3    H233671   4.405   0.608  12.070 -0.8059 -1.1449  0.5916
 4086TIP3   OH233672   0.612   5.041  10.818 -0.4546  0.3941 -0.2362
 4086TIP3    H133673   0.656   5.109  10.767  2.3636 -1.1068  0.0920
 4086TIP3    H233674   0.577   4.980  10.754  0.2631  0.1993 -0.4388
 4087TIP3   OH233675   2.697   3.332   2.269 -0.5138  0.1332 -0.1946
 4087TIP3    H133676   2.724   3.256   2.321 -0.1653  0.5515  0.2398
 4087TIP3    H233677   2.698   3.405   2.331 -2.9481  0.1133 -0.0788
 4088TIP3   OH233678   2.611   4.667  14.717 -0.8994 -0.4698 -0.3505
 4088TIP3    H133679   2.520   4.648  14.693 -1.1975  0.5830 -0.0758
 4088TIP3    H233680   2.643   4.585  14.754 -1.7072 -0.8822 -0.5389
 4089TIP3   OH233681   2.835   1.189  11.284  1.0981 -0.7483 -0.3083
 4089TIP3    H133682   2.917   1.164  11.326  1.9856 -1.2727 -2.2703
 4089TIP3    H233683   2.849   1.279  11.254  1.4758 -1.2817 -1.8070
 4090TIP3   OH233684   0.987   6.746  14.867  0.3207  0.6825 -0.1792
 4090TIP3    H133685   0.925   6.710  14.804  0.0192  1.8420 -0.5612
 4090TIP3    H233686   0.964   6.839  14.874  2.9008  1.4769 -1.3969
 4091TIP3   OH233687   3.323   2.317   2.564  0.5314 -0.3693  0.1152
 4091TIP3    H133688   3.362   2.286   2.646  1.1074  0.6281  0.2369
 4091TIP3    H233689   3.257   2.252   2.543  0.4770 -0.7200  1.3026
 4092TIP3   OH233690   4.878   5.582   2.683 -0.1501 -0.0695  0.5143
 4092TIP3    H133691   4.863   5.665   2.638  0.8508  0.4600  1.1385
 4092TIP3    H233692   4.883   5.517   2.613 -1.0364  0.3712  0.0324
 4093TIP3   OH233693   0.203   4.139  11.811  0.2582  0.6088 -0.0568
 4093TIP3    H133694   0.206   4.047  11.838 -0.8995  0.6724  0.2986
 4093TIP3    H233695   0.157   4.137  11.727 -2.1047  1.1333  1.1898
 4094TIP3   OH233696   0.352   5.418   2.623 -0.5184 -0.3931 -0.0904
 4094TIP3    H133697   0.316   5.362   2.555  0.2231 -1.0242  0.0247
 4094TIP3    H233698   0.447   5.417   2.607 -0.3753 -0.2535  0.7187
 4095TIP3   OH233699   5.498   2.045   3.971  0.3257  0.2632  0.0538
 4095TIP3    H133700   5.543   2.107   4.028  0.2244 -0.0476  0.4761
 4095TIP3    H233701   5.477   1.971   4.028  0.4265 -0.1491 -0.4413
 4096TIP3   OH233702   1.280   1.424   0.117 -0.3864 -0.6701 -0.1440
 4096TIP3    H133703   1.330   1.469   0.185  0.2496  0.9406 -1.6478
 4096TIP3    H233704   1.292   1.478   0.039 -0.5290 -2.8550 -1.7149
 4097TIP3   OH233705   4.982   6.726  15.443 -0.0888  0.3918 -0.2339
 4097TIP3    H133706   4.944   6.738  15.356  0.4522 -0.0984 -0.5426
 4097TIP3    H233707   5.063   6.677  15.427 -0.6445 -0.8333  0.6734
 4098TIP3   OH233708   2.085   2.118   5.618  0.6603  0.0719 -0.0773
 4098TIP3    H133709   2.104   2.211   5.614 -3.4483  1.0286 -0.3595
 4098TIP3    H233710   2.080   2.090   5.526 -1.7128  0.4782 -0.1072
 4099TIP3   OH233711   4.579   0.795  15.610 -0.3294  0.0402  0.0203
 4099TIP3    H133712   4.528   0.714  15.604 -1.0514  0.3032  2.0618
 4099TIP3    H233713   4.603   0.816  15.520 -1.5780 -1.5378 -0.6935
 4100TIP3   OH233714   4.873   1.260   2.906  0.0621  0.0579 -0.0227
 4100TIP3    H133715   4.913   1.315   2.838  0.8804  0.7711  1.0085
 4100TIP3    H233716   4.867   1.173   2.866  1.3190  0.2683 -0.7099
 4101TIP3   OH233717   0.043   2.629   3.279  0.1525 -0.2425 -0.4030
 4101TIP3    H133718   0.081   2.544   3.255  2.7628  0.8526 -0.3282
 4101TIP3    H233719   0.118   2.687   3.289 -1.4687  1.6374  1.4121
 4102TIP3   OH233720   5.738   5.205   5.052 -0.0207 -0.2510 -0.4813
 4102TIP3    H133721   5.688   5.217   5.132 -0.4068  0.3239 -0.8072
 4102TIP3    H233722   5.737   5.110   5.037  0.7577 -0.4387  0.6338
 4103TIP3   OH233723   4.349   6.583  12.605  0.1513 -0.4998  0.1960
 4103TIP3    H133724   4.267   6.626  12.627 -0.1426 -1.5367  1.1449
 4103TIP3    H233725   4.412   6.618  12.668 -0.2731 -2.0659  1.5094
 4104TIP3   OH233726   1.143   4.130  15.594  0.0978  0.0384  0.3930
 4104TIP3    H133727   1.107   4.105  15.679 -0.4776  0.8528  0.3899
 4104TIP3    H233728   1.237   4.112  15.602 -0.3502 -2.5412  0.2427
 4105TIP3   OH233729   5.499   1.990   1.737  1.1013  0.3274 -0.1492
 4105TIP3    H133730   5.452   2.048   1.675  0.4803 -0.8523 -0.7983
 4105TIP3    H233731   5.460   2.010   1.822 -0.5243 -0.5591 -0.6674
 4106TIP3   OH233732   2.095   0.615  12.054  0.0572 -0.3553 -0.7641
 4106TIP3    H133733   2.183   0.629  12.020  0.0985 -1.2745 -1.0484
 4106TIP3    H233734   2.087   0.676  12.127  0.4167  0.7484 -1.6486
 4107TIP3   OH233735   3.266   1.416   3.983 -0.4910  0.2333  0.1865
 4107TIP3    H133736   3.335   1.382   4.040 -0.8666 -2.0772 -0.6925
 4107TIP3    H233737   3.185   1.393   4.028 -0.8200 -2.5033 -1.7046
 4108TIP3   OH233738   4.949   2.422  14.451 -0.4044  0.2172  0.0423
 4108TIP3    H133739   5.036   2.391  14.426 -0.0667  1.5475 -0.4678
 4108TIP3    H233740   4.965   2.506  14.494 -1.3081 -0.2824  1.3752
 4109TIP3   OH233741   5.590   0.026   3.185 -0.2490  0.0462 -0.3456
 4109TIP3    H133742   5.643   0.062   3.256  1.4635  0.7890 -1.9566
 4109TIP3    H233743   5.517   0.088   3.176  0.9851  1.4555 -0.9992
 4110TIP3   OH233744   3.568   2.219   1.153 -0.3839  0.3640 -0.4875
 4110TIP3    H133745   3.532   2.148   1.100  1.1037 -1.6955  1.2107
 4110TIP3    H233746   3.510   2.225   1.229 -0.2219  0.6552 -0.3855
 4111TIP3   OH233747   3.788   4.607  15.285  0.1799  0.0867 -0.0060
 4111TIP3    H133748   3.736   4.564  15.217  0.3573 -1.5404  0.8675
 4111TIP3    H233749   3.726   4.626  15.355 -0.0745  2.0821 -0.7269
 4112TIP3   OH233750   4.482   3.922   4.515 -0.0356 -0.4360  0.2977
 4112TIP3    H133751   4.465   3.851   4.454  0.9422 -0.4260  0.0015
 4112TIP3    H233752   4.435   3.897   4.595  0.5988 -1.5846  0.3197
 4113TIP3   OH233753   2.733   3.837   0.984 -0.4674 -0.3617  0.1971
 4113TIP3    H133754   2.755   3.854   1.076  0.1101  0.9352 -0.1638
 4113TIP3    H233755   2.795   3.769   0.958  2.1881  2.1677 -0.3602
 4114TIP3   OH233756   4.515   0.221  17.182 -0.0149 -0.7295 -0.2685
 4114TIP3    H133757   4.566   0.255  17.108 -0.4742  1.4884  0.3926
 4114TIP3    H233758   4.577   0.219  17.255 -1.0405  3.0226  0.8207
 4115TIP3   OH233759   0.970   5.585   6.080  0.0554  0.4083 -0.5393
 4115TIP3    H133760   1.031   5.632   6.137 -2.2348  1.5410  1.0554
 4115TIP3    H233761   0.900   5.557   6.138 -1.4250 -0.0201 -2.4912
 4116TIP3   OH233762   1.721   2.624   4.284  0.1668  0.0136  0.3162
 4116TIP3    H133763   1.716   2.665   4.198 -1.2622 -0.3056  0.2276
 4116TIP3    H233764   1.633   2.634   4.320  1.0549  1.1962  2.2402
 4117TIP3   OH233765   6.166   6.139  14.553 -0.6634  0.4444 -0.2907
 4117TIP3    H133766   6.236   6.074  14.546 -0.7525  0.3235 -0.0615
 4117TIP3    H233767   6.167   6.184  14.469  0.4427  1.2200  0.1281
 4118TIP3   OH233768   4.040   0.218   3.561 -0.2472 -0.0302 -0.7438
 4118TIP3    H133769   4.071   0.177   3.642 -0.6243  1.6721  0.2849
 4118TIP3    H233770   4.113   0.207   3.500  0.1457 -1.0996 -0.1022
 4119TIP3   OH233771   4.132   4.434  12.654  0.2484  0.0805 -0.1190
 4119TIP3    H133772   4.154   4.484  12.575 -0.5431  0.3469 -0.1746
 4119TIP3    H233773   4.095   4.352  12.620  1.7860 -0.6711 -0.0311
 4120TIP3   OH233774   4.350   0.037   5.435 -0.4300  0.3369 -0.1334
 4120TIP3    H133775   4.270   0.090   5.433 -0.4213  0.3125 -2.0808
 4120TIP3    H233776   4.319  -0.052   5.453 -0.9389  0.1973 -1.6308
 4121TIP3   OH233777   4.186   3.118  13.068 -0.2895 -0.3460  0.0424
 4121TIP3    H133778   4.149   3.196  13.109  0.4559  0.2478 -0.4009
 4121TIP3    H233779   4.162   3.125  12.976 -0.8710 -1.0347  0.1299
 4122TIP3   OH233780   6.483   3.562  15.436  0.2962 -0.1995  0.6834
 4122TIP3    H133781   6.462   3.613  15.514 -0.9137 -2.0538  1.5946
 4122TIP3    H233782   6.467   3.471  15.462  3.5329 -1.1606 -0.5482
 4123TIP3   OH233783   3.722   3.127   1.777  0.3457 -0.0436 -0.1398
 4123TIP3    H133784   3.720   3.039   1.813  3.4690  0.3414  1.0614
 4123TIP3    H233785   3.687   3.182   1.847 -1.1986 -0.2382 -0.7331
 4124TIP3   OH233786   1.289   6.106   4.891 -0.7417  0.2299  0.4349
 4124TIP3    H133787   1.380   6.112   4.920 -0.5546 -1.4939  0.2878
 4124TIP3    H233788   1.295   6.078   4.799 -1.4202 -3.9143  1.5474
 4125TIP3   OH233789   2.933   1.975  11.890 -0.1139 -0.5354 -0.4165
 4125TIP3    H133790   2.888   1.909  11.943 -1.0556  1.6216  1.5823
 4125TIP3    H233791   2.878   1.986  11.813 -1.2345 -0.4026  0.3826
 4126TIP3   OH233792   0.016   5.485   3.021  0.3230 -0.3893 -0.1010
 4126TIP3    H133793   0.005   5.453   2.932  1.1879 -0.7387 -0.0898
 4126TIP3    H233794   0.109   5.472   3.040  0.0754 -0.6471  0.9815
 4127TIP3   OH233795   3.370   1.108   1.820  0.3194  0.3606 -0.3641
 4127TIP3    H133796   3.442   1.134   1.763  1.0317 -1.3607 -0.2525
 4127TIP3    H233797   3.354   1.016   1.800 -1.9985  0.7748 -0.5398
 4128TIP3   OH233798   4.045   0.355   5.852  1.0251  0.2277 -0.2009
 4128TIP3    H133799   4.051   0.440   5.895  0.5266  0.6132 -0.8947
 4128TIP3    H233800   4.096   0.296   5.908 -1.8844  0.1148  2.4197
 4129TIP3   OH233801   6.077   0.379  16.281 -0.4648  0.2592 -0.1590
 4129TIP3    H133802   6.020   0.305  16.259  1.4658 -1.2388 -0.2136
 4129TIP3    H233803   6.077   0.434  16.203  0.0221 -0.9468 -1.0200
 4130TIP3   OH233804   2.253   3.965   4.260  0.3536  0.0048  0.4770
 4130TIP3    H133805   2.328   4.021   4.278 -1.0517  1.8231  0.8176
 4130TIP3    H233806   2.190   3.985   4.329 -2.3857  2.0943 -2.4172
 4131TIP3   OH233807   1.483   5.505   1.323  0.6153  0.1125 -0.6171
 4131TIP3    H133808   1.424   5.444   1.279  1.1490  0.2788 -1.5897
 4131TIP3    H233809   1.532   5.451   1.385  0.8687 -0.4020 -1.2541
 4132TIP3   OH233810   2.221   5.353   2.359 -0.0200 -0.1083  1.0797
 4132TIP3    H133811   2.281   5.426   2.376  0.3866 -0.0284 -0.6034
 4132TIP3    H233812   2.267   5.277   2.393  1.2902 -0.1183 -0.6090
 4133TIP3   OH233813   2.964   3.797   3.123  0.2524 -0.1886  0.3413
 4133TIP3    H133814   2.923   3.861   3.064  0.9376 -0.5313 -0.5200
 4133TIP3    H233815   2.981   3.846   3.204  3.3385  1.4996 -1.2471
 4134TIP3   OH233816   0.607   1.318  15.941  0.0650 -0.2517 -0.0131
 4134TIP3    H133817   0.543   1.284  16.004 -0.6014  0.7288 -0.1317
 4134TIP3    H233818   0.691   1.286  15.972 -0.2302  0.3821  1.5027
 4135TIP3   OH233819   6.033   6.390  16.186 -0.0882  0.8384  0.2297
 4135TIP3    H133820   5.953   6.339  16.175 -0.5716  1.6212  0.0508
 4135TIP3    H233821   6.102   6.325  16.197 -0.5356  0.1372 -1.0338
 4136TIP3   OH233822   2.432   2.804  13.959  0.2761  0.1724 -0.3604
 4136TIP3    H133823   2.428   2.719  13.915 -1.6755  0.5805 -1.0393
 4136TIP3    H233824   2.385   2.791  14.042  2.6718 -0.2057  0.9746
 4137TIP3   OH233825   1.333   0.557   4.699 -0.1999 -0.2925 -0.3861
 4137TIP3    H133826   1.392   0.486   4.724 -0.3165 -0.7832 -1.5050
 4137TIP3    H233827   1.245   0.521   4.710 -0.4009  1.0286  3.1039
 4138TIP3   OH233828   4.145   4.048   2.402  0.8817  0.1553 -0.0381
 4138TIP3    H133829   4.201   3.995   2.344 -0.5337 -0.3431 -0.9773
 4138TIP3    H233830   4.058   4.007   2.395 -0.2381  2.5724 -0.7485
 4139TIP3   OH233831   2.498   1.362  12.838  0.0412 -0.0212 -0.2301
 4139TIP3    H133832   2.408   1.333  12.821 -0.4324  1.4416 -0.3075
 4139TIP3    H233833   2.529   1.394  12.753  0.2367  0.5140  0.0423
 4140TIP3   OH233834   0.706   3.610   2.346  0.1310  0.2802  0.6728
 4140TIP3    H133835   0.734   3.539   2.288 -0.0713 -0.3679  1.3657
 4140TIP3    H233836   0.764   3.683   2.324  0.0983  0.0259 -0.3037
 4141TIP3   OH233837   3.109   4.635   4.361  0.3926  0.6953 -0.7334
 4141TIP3    H133838   3.083   4.640   4.269 -3.3263 -0.7513  0.1217
 4141TIP3    H233839   3.128   4.542   4.375 -0.0423  0.7436  0.1871
 4142TIP3   OH233840   1.670   1.156   1.245  0.5033 -0.6077  0.4071
 4142TIP3    H133841   1.739   1.215   1.277 -0.2258 -0.2677  1.3547
 4142TIP3    H233842   1.667   1.085   1.308 -0.6031 -0.1851  0.8359
 4143TIP3   OH233843   0.455   1.537   0.066  0.2854  0.0635  0.5247
 4143TIP3    H133844   0.486   1.628   0.069 -2.0417  1.1686 -3.7943
 4143TIP3    H233845   0.397   1.529   0.141  1.1664  1.8859  1.4468
 4144TIP3   OH233846   5.884   4.008   1.738  0.1175  0.1818  0.3911
 4144TIP3    H133847   5.840   4.082   1.780 -1.0863  0.4809 -1.3609
 4144TIP3    H233848   5.960   4.048   1.694  0.6453  0.0534  1.1657
 4145TIP3   OH233849   0.408   2.656  16.642 -0.1307  0.5495  0.1764
 4145TIP3    H133850   0.344   2.588  16.619 -2.1172  1.6423  2.3347
 4145TIP3    H233851   0.484   2.606  16.672 -1.4035 -0.7610  1.3245
 4146TIP3   OH233852   5.485   4.239   4.376 -0.1197  0.0775  0.5762
 4146TIP3    H133853   5.527   4.277   4.453  1.0928 -0.1525  0.0233
 4146TIP3    H233854   5.556   4.200   4.326 -0.7642  1.1939 -1.2423
 4147TIP3   OH233855   1.757   5.006  11.403 -0.6540 -0.7163 -0.0892
 4147TIP3    H133856   1.693   5.070  11.371 -1.1366 -0.9397  0.4222
 4147TIP3    H233857   1.737   4.998  11.497 -1.8103 -3.0256 -0.5103
 4148TIP3   OH233858   5.528   4.655  12.731 -0.1901  0.7511 -0.2078
 4148TIP3    H133859   5.511   4.726  12.792 -1.5370 -0.7470  1.2123
 4148TIP3    H233860   5.447   4.604  12.728  0.8104 -0.8781 -0.9733
 4149TIP3   OH233861   6.760   4.631   1.143  0.1817 -0.3618  0.4146
 4149TIP3    H133862   6.679   4.588   1.116 -0.1110  0.9162 -0.7776
 4149TIP3    H233863   6.734   4.720   1.167  1.0327 -0.3346  1.3327
 4150TIP3   OH233864   3.899   6.030   5.536  0.3510  0.5060  0.2053
 4150TIP3    H133865   3.811   6.067   5.531  0.7011  1.4227  0.6943
 4150TIP3    H233866   3.893   5.948   5.486 -0.5715  0.9460 -0.4344
 4151TIP3   OH233867   5.230   3.975   0.610  0.0807 -0.0674 -0.6452
 4151TIP3    H133868   5.197   3.958   0.699 -0.3387 -1.5447 -1.0572
 4151TIP3    H233869   5.187   3.908   0.556  1.6255 -0.2491 -1.6744
 4152TIP3   OH233870   2.282   1.812  12.270 -0.1870 -0.2199  0.5498
 4152TIP3    H133871   2.207   1.872  12.265 -1.7479 -2.1453  0.4948
 4152TIP3    H233872   2.253   1.741  12.327  2.4925  0.2423  2.5883
 4153TIP3   OH233873   1.499   1.451  10.392  0.4814 -0.0205 -0.1626
 4153TIP3    H133874   1.469   1.369  10.432 -0.6288  1.4860  2.1396
 4153TIP3    H233875   1.591   1.457  10.416  0.4803 -0.4145 -0.0487
 4154TIP3   OH233876   0.138   2.411   5.992  0.0709 -0.1160  0.3661
 4154TIP3    H133877   0.146   2.474   5.920  1.2260 -1.6199 -0.8516
 4154TIP3    H233878   0.198   2.340   5.968 -0.6057 -1.2966  2.1227
 4155TIP3   OH233879   3.162   3.247  15.867  0.7167 -0.2283  0.1975
 4155TIP3    H133880   3.233   3.312  15.871  1.0446 -0.6351  0.9681
 4155TIP3    H233881   3.186   3.190  15.795  0.1119  0.8672 -0.9046
 4156TIP3   OH233882   4.478   0.671  15.076 -0.2198  0.6529  0.1415
 4156TIP3    H133883   4.562   0.626  15.083 -0.8147 -0.3475  0.8559
 4156TIP3    H233884   4.502   0.764  15.067  0.9282  0.6361  2.5316
 4157TIP3   OH233885   5.224   3.154   2.719 -0.0394 -0.3339 -0.4258
 4157TIP3    H133886   5.171   3.097   2.663 -0.4982  1.2788 -1.6566
 4157TIP3    H233887   5.164   3.222   2.748  0.2906 -0.9096  1.7494
 4158TIP3   OH233888   1.343   4.625   4.049  0.2841  0.4248 -0.1390
 4158TIP3    H133889   1.252   4.621   4.078  0.7090 -0.7571  1.0941
 4158TIP3    H233890   1.353   4.712   4.012 -0.4730  1.8180  2.7689
 4159TIP3   OH233891   5.016   5.584  13.525 -0.1879 -0.5197 -0.1586
 4159TIP3    H133892   5.034   5.598  13.618 -0.3610  0.8103 -0.3117
 4159TIP3    H233893   4.946   5.647  13.505 -0.8627 -1.5082 -0.9505
 4160TIP3   OH233894   4.784   5.335  15.248  0.1994 -0.0754 -0.0231
 4160TIP3    H133895   4.713   5.340  15.185  0.2310  0.1807 -0.0387
 4160TIP3    H233896   4.740   5.334  15.333  0.0803 -1.9871 -0.0808
 4161TIP3   OH233897   4.826   2.814  17.185 -0.1780 -0.7176  0.2925
 4161TIP3    H133898   4.891   2.884  17.187 -0.2765 -0.6492  1.2789
 4161TIP3    H233899   4.792   2.810  17.274 -0.9689 -1.2793 -0.0268
 4162TIP3   OH233900   3.438   1.941   0.620  0.9045  0.5232  0.3291
 4162TIP3    H133901   3.364   1.975   0.669  1.4213 -1.3463  2.4586
 4162TIP3    H233902   3.403   1.866   0.573  0.6431  1.7422 -1.4992
 4163TIP3   OH233903   6.551   0.601  14.597  0.1971  0.0346  0.5672
 4163TIP3    H133904   6.463   0.571  14.621  0.2459 -0.7091 -0.1964
 4163TIP3    H233905   6.570   0.557  14.514  1.3742  0.0427  0.8299
 4164TIP3   OH233906   4.480   2.288  12.540 -0.3214 -0.1708  0.0057
 4164TIP3    H133907   4.459   2.351  12.609  0.9312  1.1954 -0.8376
 4164TIP3    H233908   4.412   2.301  12.474 -0.9390 -0.7755  0.5135
 4165TIP3   OH233909   4.057   0.867   4.890  0.0437  0.9647  0.2779
 4165TIP3    H133910   4.113   0.855   4.813  2.8293  0.7035  2.2808
 4165TIP3    H233911   3.987   0.802   4.879  1.9345 -0.9808 -0.7057
 4166TIP3   OH233912   1.817   2.284  14.495  0.0917 -0.2086 -0.2783
 4166TIP3    H133913   1.892   2.268  14.552  0.0330  0.3473 -0.0401
 4166TIP3    H233914   1.795   2.198  14.459  0.4584 -0.4736  0.1284
 4167TIP3   OH233915   3.491   5.174  16.338  0.3763 -0.4197  0.0196
 4167TIP3    H133916   3.460   5.264  16.344 -1.0914 -0.8386 -0.8443
 4167TIP3    H233917   3.483   5.152  16.245  1.0224 -1.3389  0.1704
 4168TIP3   OH233918   3.851   5.632   5.005  0.4717  0.1128  0.3252
 4168TIP3    H133919   3.923   5.582   5.042 -0.4703 -1.8984 -0.4856
 4168TIP3    H233920   3.807   5.571   4.945 -0.8701  1.8212 -0.4926
 4169TIP3   OH233921   3.142   3.862  10.719  0.2040 -0.1192  0.6478
 4169TIP3    H133922   3.226   3.899  10.690 -0.7232  0.4192 -1.4331
 4169TIP3    H233923   3.112   3.922  10.787  0.7230  0.6355  0.2235
 4170TIP3   OH233924   5.599   1.214   3.782 -0.6249 -0.0191  0.2803
 4170TIP3    H133925   5.670   1.245   3.725 -1.2102 -0.3788 -0.6479
 4170TIP3    H233926   5.579   1.126   3.750 -0.8578 -0.2932  1.1495
 4171TIP3   OH233927   0.418   2.530  12.654 -0.4313 -0.1313 -0.5106
 4171TIP3    H133928   0.406   2.450  12.603 -0.7291  0.6949 -1.7407
 4171TIP3    H233929   0.371   2.597  12.606 -1.6256  0.4580  1.4193
 4172TIP3   OH233930   1.374   4.413   2.760  0.0428 -0.0814  0.5363
 4172TIP3    H133931   1.307   4.352   2.728 -0.3951  1.1606 -1.0154
 4172TIP3    H233932   1.421   4.440   2.681  0.7067  1.0414  1.3021
 4173TIP3   OH233933   6.536   1.043   4.558  0.6191  0.4198  0.4937
 4173TIP3    H133934   6.512   1.007   4.644  2.5384 -0.2967  0.7427
 4173TIP3    H233935   6.614   1.096   4.576  1.4562 -0.3220 -0.9342
 4174TIP3   OH233936   0.637   4.500   2.948 -0.6722  0.6655 -0.0621
 4174TIP3    H133937   0.636   4.463   2.860  0.2635  2.8599 -1.0198
 4174TIP3    H233938   0.679   4.432   3.001 -1.0696 -0.6000 -1.3375
 4175TIP3   OH233939   3.596   6.636  11.799 -0.1198  0.2408  0.3090
 4175TIP3    H133940   3.606   6.580  11.723 -1.6107  0.7572 -0.2843
 4175TIP3    H233941   3.565   6.578  11.869 -0.4531  0.0854  0.0322
 4176TIP3   OH233942   3.562   1.499  13.561  0.1710 -0.1588 -0.1725
 4176TIP3    H133943   3.557   1.424  13.621 -0.3845  0.6990  0.8889
 4176TIP3    H233944   3.610   1.467  13.485 -0.9062 -1.8662 -0.1498
 4177TIP3   OH233945   4.826   6.446  16.641 -0.5289  0.0554  0.1004
 4177TIP3    H133946   4.828   6.445  16.545  0.4650 -0.6013  0.1251
 4177TIP3    H233947   4.830   6.539  16.664  0.6898  0.1566 -0.4781
 4178TIP3   OH233948   5.232   3.381  13.820 -0.0916  0.3221  0.5530
 4178TIP3    H133949   5.219   3.287  13.833  2.4570  0.1018  1.7373
 4178TIP3    H233950   5.149   3.420  13.848 -0.5965 -1.4491  1.6642
 4179TIP3   OH233951   4.820   4.709  13.026  0.3360  0.3826 -0.2531
 4179TIP3    H133952   4.862   4.624  13.016  1.3331  0.8487 -0.0993
 4179TIP3    H233953   4.891   4.767  13.056 -0.5351  1.0604  0.5094
 4180TIP3   OH233954   2.187   2.868  12.715 -0.3712  0.5567  0.0665
 4180TIP3    H133955   2.269   2.865  12.762 -1.7952 -1.9964  2.5429
 4180TIP3    H233956   2.164   2.961  12.712  0.5733  0.9206  2.9670
 4181TIP3   OH233957   5.054   4.720  12.161 -0.0000  0.2501 -0.2268
 4181TIP3    H133958   5.133   4.774  12.171 -0.6868  1.1932  0.1243
 4181TIP3    H233959   4.992   4.776  12.114 -1.1619  0.2247  1.2502
 4182TIP3   OH233960   3.529   2.122   0.406  0.0044 -0.5195 -0.1419
 4182TIP3    H133961   3.512   2.085   0.493 -0.7296  1.1219  0.4257
 4182TIP3    H233962   3.592   2.192   0.421 -1.6266  1.0806 -0.6418
 4183TIP3   OH233963   1.110   4.647   4.666 -0.6712  0.2552 -0.1352
 4183TIP3    H133964   1.123   4.738   4.692  2.0269 -0.0592 -0.2251
 4183TIP3    H233965   1.196   4.618   4.636 -1.7821 -1.9558 -1.3075
 4184TIP3   OH233966   2.642   0.547   5.061  0.2863 -0.0961  0.2760
 4184TIP3    H133967   2.583   0.620   5.080  0.7779  0.4350 -0.2091
 4184TIP3    H233968   2.629   0.486   5.133 -1.4244 -0.3415 -0.2046
 4185TIP3   OH233969   2.041   4.655  14.671  0.2559  0.2313 -0.7766
 4185TIP3    H133970   1.993   4.685  14.748 -2.5860 -1.2899 -1.8820
 4185TIP3    H233971   1.982   4.673  14.598  0.8662 -2.8088 -2.0677
 4186TIP3   OH233972   3.405   1.199   3.261 -0.1887 -0.1585  0.5674
 4186TIP3    H133973   3.321   1.203   3.306  0.4098  0.3197  1.6595
 4186TIP3    H233974   3.414   1.106   3.237 -1.8167  0.0965 -1.1217
 4187TIP3   OH233975   5.164   2.409   5.090  0.0651 -0.5968 -0.6742
 4187TIP3    H133976   5.210   2.413   5.175 -1.6251 -0.5907  0.2545
 4187TIP3    H233977   5.129   2.497   5.078 -0.6483 -0.9018 -0.8447
 4188TIP3   OH233978   5.348   4.806  11.036  0.4376  0.1145  0.5431
 4188TIP3    H133979   5.313   4.850  10.958 -0.1318 -0.8848  0.2290
 4188TIP3    H233980   5.299   4.845  11.108  1.0172  1.0991  0.4169
 4189TIP3   OH233981   2.031   2.062  13.470  0.0360 -0.0070  0.3595
 4189TIP3    H133982   2.118   2.098  13.487 -0.5825  1.3554  0.6993
 4189TIP3    H233983   1.971   2.134  13.490 -1.2085 -1.1564  0.8070
 4190TIP3   OH233984   4.727   0.572  12.852  0.0387  0.2243 -0.1612
 4190TIP3    H133985   4.664   0.605  12.787  0.8110  0.1323 -0.9762
 4190TIP3    H233986   4.690   0.597  12.936  0.6972  3.4330 -0.7611
 4191TIP3   OH233987   4.242   0.424   2.925 -0.5760 -0.3380  0.4359
 4191TIP3    H133988   4.263   0.348   2.979 -2.4332 -1.4106 -0.2559
 4191TIP3    H233989   4.320   0.479   2.927  0.4615 -1.8305  1.7127
 4192TIP3   OH233990   0.156   5.337  14.502 -0.0342 -0.2382  0.2190
 4192TIP3    H133991   0.226   5.331  14.436 -0.2964  0.0678 -0.0917
 4192TIP3    H233992   0.084   5.379  14.456  0.2469  1.2358  1.0876
 4193TIP3   OH233993   2.564   3.950   4.337 -0.3485 -0.0468  0.2968
 4193TIP3    H133994   2.626   3.974   4.406  1.2405  1.0683 -1.4769
 4193TIP3    H233995   2.485   4.000   4.357  0.5783  1.3528  0.5309
 4194TIP3   OH233996   2.448   4.299  13.055  0.4548  0.2511  0.6427
 4194TIP3    H133997   2.538   4.325  13.037  0.5081 -0.0351  0.4828
 4194TIP3    H233998   2.395   4.372  13.024  0.6746  0.7874  1.5137
 4195TIP3   OH233999   5.147   1.490  11.559  0.1379  0.1229 -0.0518
 4195TIP3    H134000   5.065   1.468  11.605  1.3719  1.4026  2.8750
 4195TIP3    H234001   5.185   1.405  11.538 -1.3132 -0.4996 -0.2737
 4196TIP3   OH234002   4.334   4.723  11.592 -0.4417  0.2074 -0.4730
 4196TIP3    H134003   4.256   4.779  11.598  0.5820  1.7110 -0.8939
 4196TIP3    H234004   4.362   4.732  11.501  1.9740  2.0912  0.4171
 4197TIP3   OH234005   4.263   1.977  13.194  1.0730  0.0424  0.6602
 4197TIP3    H134006   4.191   2.039  13.198  1.0375 -0.0177  1.0382
 4197TIP3    H234007   4.338   2.025  13.232  1.4036  0.3370 -0.3577
 4198TIP3   OH234008   5.773   6.171  14.664  0.2468 -0.0988 -0.4455
 4198TIP3    H134009   5.769   6.255  14.619  0.2488 -0.5375 -1.2712
 4198TIP3    H234010   5.816   6.112  14.602  0.4455 -0.6580  0.2134
 4199TIP3   OH234011   1.381   1.085  14.067 -0.0193 -0.9644  0.3361
 4199TIP3    H134012   1.385   1.081  13.972 -0.5919  0.5793  0.2348
 4199TIP3    H234013   1.315   1.020  14.092  0.8751 -2.1129 -0.2303
 4200TIP3   OH234014   6.767   5.994  14.792 -0.5135  0.4776 -0.2658
 4200TIP3    H134015   6.735   6.059  14.855 -0.0795 -0.1576  0.6182
 4200TIP3    H234016   6.851   6.028  14.762 -0.2943  0.3365  0.1839
 4201TIP3   OH234017   5.782   4.760   3.986  0.0178  0.0672 -0.0326
 4201TIP3    H134018   5.702   4.760   4.039  0.1936  2.0813  0.2801
 4201TIP3    H234019   5.766   4.824   3.917  0.4173 -1.3513 -1.4692
 4202TIP3   OH234020   6.772   4.485  16.996  0.1725  0.3279 -0.4523
 4202TIP3    H134021   6.856   4.490  17.040  0.3452 -1.9788 -0.4267
 4202TIP3    H234022   6.789   4.516  16.907  0.8138  0.8764 -0.1402
 4203TIP3   OH234023   3.922   1.711   4.272 -0.3904  0.2160 -0.1884
 4203TIP3    H134024   3.894   1.797   4.304  0.3389  0.1640  0.6190
 4203TIP3    H234025   3.869   1.649   4.322 -0.5813  0.1906 -0.4267
 4204TIP3   OH234026   0.623   0.637   2.495  0.4421  0.2503 -0.2916
 4204TIP3    H134027   0.576   0.699   2.550 -0.6934  0.5482 -1.5697
 4204TIP3    H234028   0.632   0.559   2.549  0.7499  1.0860  0.8690
 4205TIP3   OH234029   0.178   0.846  16.725  0.2946 -0.1426 -0.3099
 4205TIP3    H134030   0.105   0.903  16.750  2.2604  1.2760  2.4234
 4205TIP3    H234031   0.153   0.760  16.760  1.1274  0.9365  3.1339
 4206TIP3   OH234032   5.252   4.190   4.571  0.0954 -0.5746  0.3485
 4206TIP3    H134033   5.241   4.252   4.499 -2.4399 -2.2684 -0.7573
 4206TIP3    H234034   5.301   4.240   4.637  3.1674  0.7830 -2.7560
 4207TIP3   OH234035   5.709   2.466   1.499 -0.3527  0.2045  0.4125
 4207TIP3    H134036   5.637   2.461   1.436  2.3750 -2.3756 -2.6684
 4207TIP3    H234037   5.761   2.541   1.470 -0.2183  0.2749  0.8379
 4208TIP3   OH234038   4.073   3.129   2.401 -0.0758 -0.0245 -0.2281
 4208TIP3    H134039   4.012   3.094   2.465 -0.0292  0.1631 -0.0806
 4208TIP3    H234040   4.133   3.184   2.452  0.5012 -0.5769 -0.3061
 4209TIP3   OH234041   2.335   4.847   5.312  0.1250  0.3866  0.3252
 4209TIP3    H134042   2.419   4.801   5.308 -0.6301 -0.9677 -0.2136
 4209TIP3    H234043   2.331   4.880   5.402  1.6189  1.2290  0.1078
 4210TIP3   OH234044   1.130   4.898  15.589 -0.6524  0.0873 -0.0121
 4210TIP3    H134045   1.086   4.879  15.672 -2.7857  1.2215 -0.8392
 4210TIP3    H234046   1.113   4.821  15.535 -1.1305  0.2711 -0.1272
 4211TIP3   OH234047   1.696   4.466  12.817  0.0365  0.1634  0.1664
 4211TIP3    H134048   1.767   4.446  12.756  1.5105  1.7765  1.3185
 4211TIP3    H234049   1.665   4.552  12.792  0.2888  0.6089  1.3309
 4212TIP3   OH234050   3.394   4.099   2.842  0.7473  0.2454  1.2355
 4212TIP3    H134051   3.314   4.118   2.793  0.2021 -0.6534  1.7483
 4212TIP3    H234052   3.384   4.147   2.924  0.6613  0.0130  1.3619
 4213TIP3   OH234053   4.730   3.206  14.075 -0.0036 -0.6702 -0.1595
 4213TIP3    H134054   4.658   3.239  14.129 -0.5926 -0.4610 -1.0634
 4213TIP3    H234055   4.791   3.167  14.138 -0.6324 -0.3403  0.6640
 4214TIP3   OH234056   5.042   5.137   0.626  0.3085 -0.2463  0.3615
 4214TIP3    H134057   5.014   5.222   0.592 -0.3594 -0.9846 -0.9613
 4214TIP3    H234058   4.961   5.093   0.651  0.6827 -0.3531  1.4275
 4215TIP3   OH234059   6.209   6.601   2.224  0.0615  0.5170 -0.4862
 4215TIP3    H134060   6.287   6.564   2.266 -1.2122 -0.1744  1.2962
 4215TIP3    H234061   6.147   6.528   2.218 -0.4976  1.0843 -1.8094
 4216TIP3   OH234062   1.224   1.792  11.750 -0.0448  0.5051  0.4827
 4216TIP3    H134063   1.186   1.865  11.702  0.4252  1.4827  1.5548
 4216TIP3    H234064   1.220   1.819  11.842 -0.2444 -0.9952  0.9322
 4217TIP3   OH234065   2.302   3.010   5.176 -0.3348  0.2390 -0.4424
 4217TIP3    H134066   2.228   3.041   5.123  0.2498 -0.1805 -1.5113
 4217TIP3    H234067   2.261   2.974   5.255 -1.3262 -0.8685 -1.4499
 4218TIP3   OH234068   3.573   5.237   1.175  0.2890  0.1281 -0.3961
 4218TIP3    H134069   3.572   5.170   1.106  1.1705 -0.4788  0.1734
 4218TIP3    H234070   3.500   5.296   1.152 -1.6258 -1.9951  0.0572
 4219TIP3   OH234071   5.255   4.531  13.451 -0.1223  0.1849  0.3107
 4219TIP3    H134072   5.215   4.613  13.480  1.8857  1.3309 -0.0553
 4219TIP3    H234073   5.334   4.558  13.404  0.9632 -1.9987  0.7967
 4220TIP3   OH234074   2.320   0.418   1.790  0.1880  0.0109  0.3726
 4220TIP3    H134075   2.287   0.382   1.708  1.9504 -1.6013  0.3524
 4220TIP3    H234076   2.244   0.417   1.848 -1.0461  1.0395 -1.1639
 4221TIP3   OH234077   3.964   3.493  13.986 -0.2679  0.6171 -0.5130
 4221TIP3    H134078   3.884   3.441  13.994  0.5937 -0.5267  1.0083
 4221TIP3    H234079   3.937   3.572  13.939 -2.1772  0.0305 -0.4514
 4222TIP3   OH234080   2.483   4.739   3.672 -0.2529  0.0916 -0.0038
 4222TIP3    H134081   2.562   4.775   3.632  0.4670  0.2612  1.5235
 4222TIP3    H234082   2.515   4.670   3.730 -1.2962 -0.3396  0.0604
 4223TIP3   OH234083   2.519   0.324   6.027 -0.3905 -0.5124 -0.0896
 4223TIP3    H134084   2.547   0.343   6.117  2.6162  0.3028 -1.1582
 4223TIP3    H234085   2.508   0.410   5.987 -0.5476 -0.8937 -0.8657
 4224TIP3   OH234086   2.054   0.837   5.405  0.6056 -0.0119  0.0455
 4224TIP3    H134087   2.009   0.753   5.405  0.5733 -0.0109 -1.0763
 4224TIP3    H234088   1.987   0.900   5.376  1.0126  0.1621 -0.5435
 4225TIP3   OH234089   3.529   4.286   5.327  0.0809 -0.2374 -0.1055
 4225TIP3    H134090   3.521   4.333   5.245 -2.6411 -0.2396  0.1134
 4225TIP3    H234091   3.536   4.194   5.302 -2.7083 -0.4305 -0.3292
 4226TIP3   OH234092   1.590   1.187  15.344  1.3734 -0.3291 -0.2576
 4226TIP3    H134093   1.506   1.146  15.363  1.1298 -0.4071 -1.4191
 4226TIP3    H234094   1.573   1.281  15.348  1.3154 -0.3439 -0.1502
 4227TIP3   OH234095   0.893   3.337  12.213  0.5749  0.1085 -0.0727
 4227TIP3    H134096   0.927   3.398  12.148  1.0161  1.4906  1.4100
 4227TIP3    H234097   0.972   3.297  12.250  0.3918  0.2189  0.4380
 4228TIP3   OH234098   0.622   4.949  13.862  0.4181 -0.1135  0.2663
 4228TIP3    H134099   0.625   4.997  13.945 -1.0031 -1.2424  0.9830
 4228TIP3    H234100   0.569   5.004  13.804 -0.2463 -0.2605  0.7266
 4229TIP3   OH234101   1.073   6.072   2.066 -0.6648 -0.1065 -0.3996
 4229TIP3    H134102   0.998   6.013   2.074 -1.0230  0.2321 -1.1720
 4229TIP3    H234103   1.117   6.044   1.986 -2.3343  2.3179 -2.2645
 4230TIP3   OH234104   1.565   4.669   2.369  0.2282 -0.5193 -0.0133
 4230TIP3    H134105   1.612   4.750   2.351 -0.2959 -0.3123 -0.4489
 4230TIP3    H234106   1.591   4.610   2.298  2.4000 -1.5043  1.5497
 4231TIP3   OH234107   2.054   6.576  12.932 -0.3200  0.3745  0.2606
 4231TIP3    H134108   2.020   6.499  12.886 -0.0677  0.5109 -0.1640
 4231TIP3    H234109   2.149   6.562  12.935 -0.3032  0.5225  0.4558
 4232TIP3   OH234110   3.468   5.367  16.573 -0.2206 -0.3107 -0.1919
 4232TIP3    H134111   3.554   5.403  16.553  0.0434 -1.0457 -0.4173
 4232TIP3    H234112   3.415   5.385  16.494 -0.8920  1.9622  0.7313
 4233TIP3   OH234113   2.186   6.145   5.293  0.2332 -0.0938  0.1701
 4233TIP3    H134114   2.259   6.120   5.237  1.1174  2.2371  0.2028
 4233TIP3    H234115   2.225   6.156   5.380 -0.4633 -0.3441  0.5196
 4234TIP3   OH234116   3.289   1.938   4.137  0.0778  0.2741 -0.1127
 4234TIP3    H134117   3.203   1.933   4.094  0.5169 -1.7110 -0.7712
 4234TIP3    H234118   3.343   1.988   4.075  0.3364 -1.4164 -1.2695
 4235TIP3   OH234119   2.883   0.564   1.339  0.3268  0.3594  0.2628
 4235TIP3    H134120   2.951   0.576   1.405  0.2874 -0.6305  0.4953
 4235TIP3    H234121   2.929   0.523   1.265 -0.2892 -1.7117  0.9920
 4236TIP3   OH234122   3.412   5.346  14.740  0.1737  0.2339 -0.1560
 4236TIP3    H134123   3.405   5.381  14.651  1.5786  0.7751 -0.0751
 4236TIP3    H234124   3.486   5.394  14.778 -0.1472 -0.2986  1.1587
 4237TIP3   OH234125   5.238   4.170   2.568  0.5693 -0.4478  0.1516
 4237TIP3    H134126   5.216   4.088   2.524  0.6396 -0.3890  0.0065
 4237TIP3    H234127   5.311   4.148   2.626  1.0079 -0.3452 -0.3606
 4238TIP3   OH234128   0.277   4.343  11.964  0.0417 -0.1339  0.1033
 4238TIP3    H134129   0.234   4.284  11.902  1.9431 -2.9988  1.3820
 4238TIP3    H234130   0.365   4.353  11.929 -0.2044  1.8205  0.0212
 4239TIP3   OH234131   2.959   0.036   2.767 -0.0287  0.1366  0.3972
 4239TIP3    H134132   2.870   0.021   2.799  0.7887 -0.3565  2.5518
 4239TIP3    H234133   2.951   0.034   2.672 -2.1841 -0.7334  0.5583
 4240TIP3   OH234134   5.522   6.422  11.473  0.2666  0.6034  0.4367
 4240TIP3    H134135   5.438   6.428  11.520 -0.1183 -1.1838 -0.0122
 4240TIP3    H234136   5.522   6.500  11.417 -0.5689  1.2280  1.2635
 4241TIP3   OH234137   1.086   4.383  15.037 -0.0868 -0.5401 -0.5359
 4241TIP3    H134138   1.029   4.388  14.960  0.0818  0.8860 -0.5755
 4241TIP3    H234139   1.025   4.378  15.111 -0.2638 -0.0368 -0.6448
 4242TIP3   OH234140   2.921   0.241  14.832  0.0317  0.1700  0.2108
 4242TIP3    H134141   2.945   0.247  14.739 -1.8609  1.4851 -0.2212
 4242TIP3    H234142   2.896   0.150  14.844  0.0677  0.0406 -0.6296
 4243TIP3   OH234143   1.490   4.475   1.323 -0.7402  0.2441 -0.1708
 4243TIP3    H134144   1.545   4.459   1.399 -1.1120 -0.5089 -0.0491
 4243TIP3    H234145   1.537   4.435   1.250  0.0664  1.7924 -0.5023
 4244TIP3   OH234146   3.098   5.506   2.439 -0.1634  0.2380 -0.0066
 4244TIP3    H134147   3.039   5.526   2.367  1.0391  1.5588 -0.6385
 4244TIP3    H234148   3.040   5.499   2.516 -1.5333 -1.9432 -1.1875
 4245TIP3   OH234149   4.076   0.813  13.367 -0.4972  0.6267 -0.5948
 4245TIP3    H134150   4.131   0.747  13.324  1.4393  2.6216 -1.2522
 4245TIP3    H234151   4.106   0.813  13.458 -0.8425  0.2708 -0.4770
 4246TIP3   OH234152   4.045   6.770   3.215 -0.2384 -0.1595 -0.2900
 4246TIP3    H134153   4.028   6.706   3.283 -2.0482 -1.3095 -1.7701
 4246TIP3    H234154   4.017   6.854   3.252 -0.9640 -0.7417  0.4742
 4247TIP3   OH234155   5.479   0.857   5.685  0.6074 -0.0269 -0.7482
 4247TIP3    H134156   5.491   0.767   5.653 -0.6146  0.4423 -2.5916
 4247TIP3    H234157   5.517   0.912   5.616 -0.4860  0.9404 -0.5982
 4248TIP3   OH234158   2.216   1.256  11.641  0.2669  0.0455 -0.1094
 4248TIP3    H134159   2.300   1.254  11.596 -0.4155 -0.3223 -1.3669
 4248TIP3    H234160   2.239   1.254  11.734  1.6795  0.8786 -0.4276
 4249TIP3   OH234161   4.929   3.962  15.476 -0.4090 -0.5992  0.3079
 4249TIP3    H134162   5.013   3.918  15.485  0.3987  0.4858 -1.5544
 4249TIP3    H234163   4.905   3.948  15.384 -1.8696 -0.2301  0.6256
 4250TIP3   OH234164   1.396   3.593   1.484 -0.5000 -0.8569  0.0493
 4250TIP3    H134165   1.427   3.519   1.536 -2.4787  0.3323  3.0788
 4250TIP3    H234166   1.367   3.554   1.402  3.0685 -2.7344 -0.4038
 4251TIP3   OH234167   0.884   6.765  12.077 -0.1879  0.5641  0.2458
 4251TIP3    H134168   0.870   6.859  12.080  0.1844  0.6596 -0.9161
 4251TIP3    H234169   0.965   6.751  12.127  0.5543  1.0307 -0.8125
 4252TIP3   OH234170   0.781   1.259   0.942  0.0835  0.4430  0.6774
 4252TIP3    H134171   0.824   1.343   0.960 -0.1928  0.8276 -0.3661
 4252TIP3    H234172   0.828   1.225   0.866 -3.2045  2.2217 -2.3196
 4253TIP3   OH234173   0.635   1.156  13.223  0.0983  0.3558 -0.0767
 4253TIP3    H134174   0.569   1.089  13.204  1.4898 -0.8552 -0.7115
 4253TIP3    H234175   0.656   1.194  13.138  0.1876  0.7716  0.1290
 4254TIP3   OH234176   5.374   6.443   4.565  0.4984  0.1278 -0.0768
 4254TIP3    H134177   5.434   6.492   4.622  1.5160 -0.6611 -0.4494
 4254TIP3    H234178   5.379   6.489   4.481  1.5162 -0.6355 -0.4498
 4255TIP3   OH234179   3.443   3.809   5.763  0.4291  0.0587  0.6575
 4255TIP3    H134180   3.431   3.729   5.813 -0.5362  0.9731  1.9071
 4255TIP3    H234181   3.507   3.860   5.813 -0.4991  0.9534  0.9438
 4256TIP3   OH234182   3.204   0.837  16.538  0.7818 -0.5206  0.2639
 4256TIP3    H134183   3.133   0.870  16.483  0.0255 -0.6008  1.1822
 4256TIP3    H234184   3.226   0.752  16.500  0.7639 -0.2435 -0.3619
 4257TIP3   OH234185   0.095   4.420  11.529 -0.3511 -0.7906 -0.2864
 4257TIP3    H134186   0.015   4.386  11.569  0.1881 -1.2216  0.4370
 4257TIP3    H234187   0.064   4.477  11.458 -1.2917 -1.1551 -0.1768
 4258TIP3   OH234188   5.185   0.882  12.802 -0.6245 -0.0329 -0.0460
 4258TIP3    H134189   5.136   0.810  12.840  0.0400 -0.3554  0.2154
 4258TIP3    H234190   5.276   0.851  12.800 -0.5587  0.2417 -1.2930
 4259TIP3   OH234191   5.148   3.674  13.862  0.0629 -0.2693  0.9116
 4259TIP3    H134192   5.181   3.760  13.837  0.3644 -0.9866 -1.1996
 4259TIP3    H234193   5.060   3.691  13.895 -0.0363  0.8010  0.1234
 4260TIP3   OH234194   2.143   0.232   3.570  0.5468 -0.1938  0.0091
 4260TIP3    H134195   2.073   0.290   3.540 -0.7170 -0.6671  2.0050
 4260TIP3    H234196   2.120   0.146   3.533  2.1372  0.4173 -2.5050
 4261TIP3   OH234197   0.087   5.542  16.590 -0.3117  0.5683 -0.2305
 4261TIP3    H134198  -0.005   5.561  16.568 -0.8756 -0.2047  1.3546
 4261TIP3    H234199   0.108   5.463  16.541 -0.6447  0.4919 -0.2559
 4262TIP3   OH234200   3.388   4.956  14.858 -0.3075 -0.2008  0.3482
 4262TIP3    H134201   3.319   5.019  14.877 -0.6750 -0.8534  1.1996
 4262TIP3    H234202   3.350   4.897  14.793 -1.1748 -1.5949  2.0803
 4263TIP3   OH234203   0.928   1.738   5.752  0.0710 -0.1607  0.7426
 4263TIP3    H134204   0.950   1.823   5.790  0.4942  0.2419 -0.3643
 4263TIP3    H234205   1.008   1.710   5.709 -0.4619 -0.4770 -0.0568
 4264TIP3   OH234206   2.835   4.248  15.290 -0.4286 -0.0878  0.0933
 4264TIP3    H134207   2.742   4.230  15.306 -0.5211  0.7054  0.4912
 4264TIP3    H234208   2.835   4.315  15.221 -0.1151 -0.9997 -0.8006
 4265TIP3   OH234209   4.383   1.274  12.749  0.7452 -0.0404 -0.0615
 4265TIP3    H134210   4.438   1.352  12.762 -1.5040  1.6086 -0.1069
 4265TIP3    H234211   4.321   1.277  12.822 -1.8707  0.4334 -2.2351
 4266TIP3   OH234212   0.611   4.304  16.527  0.1864  0.6132 -0.2147
 4266TIP3    H134213   0.691   4.275  16.483 -0.1399 -0.6114 -0.0234
 4266TIP3    H234214   0.608   4.398  16.511 -0.2332  0.1152 -3.3092
 4267TIP3   OH234215   1.461   6.021  16.792  0.3925 -0.3272  0.1555
 4267TIP3    H134216   1.495   6.069  16.717  0.9428 -0.6418  0.1995
 4267TIP3    H234217   1.366   6.020  16.780  0.3087  1.3692  0.5113
 4268TIP3   OH234218   3.951   1.219   5.443 -0.5755  0.7410  0.0665
 4268TIP3    H134219   3.993   1.239   5.527 -0.9428 -1.2319  0.7522
 4268TIP3    H234220   3.879   1.160   5.466  0.6268 -1.5694 -1.8397
 4269TIP3   OH234221   2.237   0.229  12.246 -0.3928 -0.3275 -0.3628
 4269TIP3    H134222   2.330   0.243  12.227 -0.0639 -2.8989 -0.8633
 4269TIP3    H234223   2.236   0.152  12.303 -2.1389  0.5262  0.7912
 4270TIP3   OH234224   1.252   3.213  13.032 -0.7116  0.3742  0.2779
 4270TIP3    H134225   1.316   3.233  13.100 -2.7352 -1.7999  2.9631
 4270TIP3    H234226   1.205   3.294  13.018  1.5833  1.5949 -0.6416
 4271TIP3   OH234227   2.028   4.569   3.355  0.5129  0.1575  0.2554
 4271TIP3    H134228   2.122   4.553   3.358  0.8317  2.0082  0.3442
 4271TIP3    H234229   2.001   4.573   3.446  0.6771  1.4494  0.2570
 4272TIP3   OH234230   0.000   1.619   2.265 -0.2513  0.6532  0.2290
 4272TIP3    H134231   0.085   1.607   2.223  0.5987 -3.1735  2.7683
 4272TIP3    H234232  -0.060   1.567   2.211 -0.0076 -0.6229  1.1639
 4273TIP3   OH234233   4.010   4.239   2.158 -0.0226 -0.4214 -0.7307
 4273TIP3    H134234   4.060   4.179   2.213 -1.6047 -1.1991 -0.1135
 4273TIP3    H234235   4.031   4.212   2.068  1.9181  0.3219 -0.5211
 4274TIP3   OH234236   6.320   1.468   2.585 -0.6269  0.1205  0.2213
 4274TIP3    H134237   6.332   1.531   2.656 -0.0876 -0.8716  1.0162
 4274TIP3    H234238   6.277   1.393   2.626  0.6458 -0.8998 -0.2600
 4275TIP3   OH234239   5.705   5.202   2.066  0.4358  0.5609 -0.0295
 4275TIP3    H134240   5.694   5.195   1.971  0.2685 -2.4515  0.1548
 4275TIP3    H234241   5.617   5.188   2.101  0.9735 -1.3782  0.6334
 4276TIP3   OH234242   5.165   1.836   0.445  0.2576  0.0220 -0.3523
 4276TIP3    H134243   5.075   1.804   0.434 -0.4941  1.2462  1.9737
 4276TIP3    H234244   5.195   1.794   0.525  1.0730  1.1347 -0.0768
 4277TIP3   OH234245   4.502   1.956  12.622  0.0519  0.5708 -0.0399
 4277TIP3    H134246   4.504   2.045  12.587 -2.5318  0.6037 -0.1713
 4277TIP3    H234247   4.468   1.903  12.550 -0.6429 -0.1477  0.8117
 4278TIP3   OH234248   5.440   3.545   6.529 -0.3528  0.1433  0.0987
 4278TIP3    H134249   5.526   3.505   6.540 -0.0404  1.2645  1.9488
 4278TIP3    H234250   5.379   3.472   6.540  0.3399 -0.6691 -1.2745
 4279TIP3   OH234251   2.817   2.900  12.169  0.2496  0.2517  0.4779
 4279TIP3    H134252   2.746   2.837  12.172  0.9541 -0.5499  0.4892
 4279TIP3    H234253   2.776   2.983  12.194 -0.6003 -0.2706  0.8487
 4280TIP3   OH234254   5.676   0.836  16.180  0.2754 -0.3800 -0.2866
 4280TIP3    H134255   5.636   0.797  16.257  1.9774  0.7480  1.1975
 4280TIP3    H234256   5.608   0.892  16.143 -0.5775 -1.0043  0.3319
 4281TIP3   OH234257   3.150   1.486  14.071 -0.1911 -0.3746 -0.2899
 4281TIP3    H134258   3.236   1.450  14.051  0.7724  0.5991  1.9471
 4281TIP3    H234259   3.113   1.509  13.986  1.3105 -1.7885 -1.3464
 4282TIP3   OH234260   4.802   4.488   5.678  0.2633  0.3365 -0.1463
 4282TIP3    H134261   4.763   4.542   5.747  0.3741  0.2473 -0.0118
 4282TIP3    H234262   4.770   4.526   5.596 -0.5219 -0.0615 -0.0218
 4283TIP3   OH234263   1.765   4.691  13.969 -0.3093  0.0648 -0.0236
 4283TIP3    H134264   1.753   4.776  14.011  1.0246  0.3910 -0.2755
 4283TIP3    H234265   1.856   4.692  13.938 -0.5171 -1.1458 -0.7112
 4284TIP3   OH234266   4.671   3.028   4.794  0.0668 -0.3883  0.0494
 4284TIP3    H134267   4.586   3.060   4.823  0.2625 -0.6488  0.9153
 4284TIP3    H234268   4.677   3.056   4.703  1.3651  4.3214  1.4930
 4285TIP3   OH234269   1.492   1.638  14.121  0.5297 -0.0359  0.7840
 4285TIP3    H134270   1.450   1.664  14.203 -0.2600  0.4373  0.2402
 4285TIP3    H234271   1.447   1.557  14.095 -0.5664  0.8564 -0.1647
 4286TIP3   OH234272   4.467   3.453   4.299  0.6119 -0.5229 -0.6063
 4286TIP3    H134273   4.556   3.424   4.317  0.3117 -1.1750 -0.1950
 4286TIP3    H234274   4.453   3.432   4.206  1.2409  0.5050 -0.9389
 4287TIP3   OH234275   5.289   4.468  14.972 -0.4106 -0.0829 -0.0507
 4287TIP3    H134276   5.300   4.373  14.969 -1.0296 -0.1862  0.7203
 4287TIP3    H234277   5.378   4.503  14.968 -0.0847 -0.7453  1.1939
 4288TIP3   OH234278   6.191   4.616   4.331  0.1674  0.0846  0.1316
 4288TIP3    H134279   6.218   4.659   4.412  0.3882 -0.4114  0.3244
 4288TIP3    H234280   6.257   4.548   4.317  0.7228  0.8560 -1.0220
 4289TIP3   OH234281   6.478   0.267  16.781 -0.3654 -0.4591  0.1087
 4289TIP3    H134282   6.451   0.359  16.788 -3.2493 -1.1714 -0.7235
 4289TIP3    H234283   6.479   0.250  16.687  0.2963 -1.2514  0.2520
 4290TIP3   OH234284   1.120   6.414   2.412  0.3986 -0.1967  0.2358
 4290TIP3    H134285   1.204   6.411   2.367  0.8277 -0.5246  1.0632
 4290TIP3    H234286   1.120   6.338   2.470 -0.2669  0.0752  0.5988
 4291TIP3   OH234287   0.550   2.054   1.041 -0.0470 -0.7447 -0.3470
 4291TIP3    H134288   0.586   2.142   1.035  0.0298 -0.7613 -0.1441
 4291TIP3    H234289   0.518   2.034   0.953  1.0777 -1.0090 -0.6977
 4292TIP3   OH234290   3.592   1.525  12.287 -0.5629 -0.1125 -1.0018
 4292TIP3    H134291   3.552   1.561  12.366 -1.1365 -2.2706 -0.2757
 4292TIP3    H234292   3.686   1.543  12.297 -0.7549  0.5308 -0.3248
 4293TIP3   OH234293   4.326   4.718   4.349  0.1401  0.3813  0.4779
 4293TIP3    H134294   4.253   4.657   4.342  0.0597  0.6526 -1.0485
 4293TIP3    H234295   4.318   4.775   4.273  2.4439 -0.1180 -0.1679
 4294TIP3   OH234296   4.750   4.397  12.995  0.0630 -0.8643  0.1714
 4294TIP3    H134297   4.790   4.426  12.913  0.4749  1.4083  1.1405
 4294TIP3    H234298   4.801   4.321  13.021  2.3407  0.6236  0.1972
 4295TIP3   OH234299   1.933   3.567   1.948 -0.4203  0.1895 -0.5636
 4295TIP3    H134300   1.838   3.561   1.935 -0.4710 -0.5593  0.1105
 4295TIP3    H234301   1.951   3.507   2.020  0.6418 -0.0552 -1.0265
 4296TIP3   OH234302   1.705   0.680   1.014  0.1921 -0.4321 -0.0390
 4296TIP3    H134303   1.716   0.755   0.956 -1.3371 -0.4295 -0.3312
 4296TIP3    H234304   1.637   0.627   0.973 -0.8309 -0.4998  1.7080
 4297TIP3   OH234305   2.499   1.645  17.052 -0.0345 -0.0514  0.1426
 4297TIP3    H134306   2.442   1.607  16.985  0.7226 -0.6958 -0.1399
 4297TIP3    H234307   2.467   1.735  17.063 -2.0549 -0.8622  1.0735
 4298TIP3   OH234308   0.543   6.430  13.612 -0.0561 -0.2460 -0.3592
 4298TIP3    H134309   0.586   6.511  13.583  1.6357 -1.4389 -1.3130
 4298TIP3    H234310   0.549   6.372  13.536  0.3718 -1.8698  0.8847
 4299TIP3   OH234311   0.438   2.675   3.578  0.6137 -0.6473 -0.2379
 4299TIP3    H134312   0.368   2.621   3.540  1.1166 -1.4190 -0.0834
 4299TIP3    H234313   0.495   2.695   3.503 -0.3582  0.9122 -0.5756
 4300TIP3   OH234314   6.276   5.541  13.622  0.0952 -0.6499 -0.0709
 4300TIP3    H134315   6.369   5.529  13.640  0.0778 -0.8560 -0.1149
 4300TIP3    H234316   6.260   5.490  13.543 -0.2257 -1.2706  0.3907
 4301TIP3   OH234317   5.896   5.928   4.478  0.8137  0.1542  0.1106
 4301TIP3    H134318   5.887   5.833   4.489 -1.1419  0.1545 -1.1477
 4301TIP3    H234319   5.878   5.963   4.564 -0.3720 -0.5316  0.1546
 4302TIP3   OH234320   2.919   3.839  13.113 -0.0939  0.0149 -0.1317
 4302TIP3    H134321   2.920   3.930  13.084  0.2839  0.2096  0.4938
 4302TIP3    H234322   2.861   3.838  13.189 -0.2251 -0.2974 -0.2326
 4303TIP3   OH234323   4.188   0.765  16.691  0.0339  0.2693  0.0571
 4303TIP3    H134324   4.244   0.729  16.621  1.0923  2.1327 -0.0885
 4303TIP3    H234325   4.118   0.810  16.644 -0.2608 -0.0238  0.2185
 4304TIP3   OH234326   1.279   3.796   4.373 -0.4341 -0.2870 -0.1665
 4304TIP3    H134327   1.298   3.883   4.409 -1.1543  0.3401 -1.2551
 4304TIP3    H234328   1.341   3.786   4.301 -0.3055 -0.7145  0.0004
 4305TIP3   OH234329   3.418   4.670  11.829 -0.4040  0.4875  0.0139
 4305TIP3    H134330   3.363   4.648  11.905  0.8322 -1.8090  0.2904
 4305TIP3    H234331   3.404   4.598  11.768  2.1319 -0.0664  0.0300
 4306TIP3   OH234332   5.606   4.569  13.539  0.4448 -0.0071 -0.0831
 4306TIP3    H134333   5.611   4.617  13.622  0.3591 -0.0023 -0.0805
 4306TIP3    H234334   5.682   4.601  13.489  0.4016  0.1122 -0.0714
 4307TIP3   OH234335   2.279   3.934   0.550 -0.1574  0.1790 -0.0744
 4307TIP3    H134336   2.224   4.011   0.538 -1.3665 -0.8259 -1.1945
 4307TIP3    H234337   2.335   3.932   0.472 -0.1007 -0.0380 -0.0302
 4308TIP3   OH234338   3.501   4.883   3.209 -0.0205  0.1234  0.4178
 4308TIP3    H134339   3.511   4.889   3.114  0.9352 -0.3843  0.4868
 4308TIP3    H234340   3.590   4.889   3.244 -0.5239  2.5167  1.4106
 4309TIP3   OH234341   0.007   5.650   2.532  0.2121  0.0489  0.6020
 4309TIP3    H134342   0.037   5.641   2.442  0.0466 -0.1557  0.5698
 4309TIP3    H234343  -0.089   5.652   2.526  0.2238  2.1802  0.5519
 4310TIP3   OH234344   5.132   1.960   0.186  0.1158  0.1896 -0.3489
 4310TIP3    H134345   5.142   1.878   0.138  0.2103 -0.1290  0.2030
 4310TIP3    H234346   5.220   1.998   0.187  0.3907 -0.4488  0.6986
 4311TIP3   OH234347   6.637   0.802  14.247  0.1378 -0.1422  0.3191
 4311TIP3    H134348   6.684   0.726  14.280  0.7815 -0.1200 -0.5335
 4311TIP3    H234349   6.664   0.874  14.303 -0.2144 -0.4783  0.9166
 4312TIP3   OH234350   5.497   2.885  16.325  0.2276  0.5611  0.1274
 4312TIP3    H134351   5.564   2.852  16.265  1.1246  1.9640  0.3277
 4312TIP3    H234352   5.542   2.892  16.409 -0.8841 -0.9073  0.8538
 4313TIP3   OH234353   2.712   3.371  12.678 -0.3195 -0.5356 -0.0902
 4313TIP3    H134354   2.709   3.421  12.596 -0.2767 -1.3831 -0.6093
 4313TIP3    H234355   2.747   3.433  12.742 -2.2788  0.7771 -0.2457
 4314TIP3   OH234356   1.128   6.472  14.416 -0.0386  0.0235 -0.5695
 4314TIP3    H134357   1.046   6.497  14.457  0.5975 -0.1232  0.8134
 4314TIP3    H234358   1.114   6.489  14.322 -1.0091  1.7013 -0.1369
 4315TIP3   OH234359   4.147   5.223   6.242  0.3197  0.4070  0.3669
 4315TIP3    H134360   4.090   5.146   6.250  1.5725 -0.5219  0.4432
 4315TIP3    H234361   4.159   5.235   6.148  0.0915  0.5340  0.3537
 4316TIP3   OH234362   5.338   2.333  13.552  0.0388 -0.3408  0.3959
 4316TIP3    H134363   5.243   2.321  13.557  0.2769 -1.8234  1.5242
 4316TIP3    H234364   5.363   2.366  13.638  0.7762 -1.6474  0.6905
 4317TIP3   OH234365   3.577   2.595  11.911 -0.5893  0.0254  0.4166
 4317TIP3    H134366   3.525   2.675  11.902 -0.6051 -0.0814 -0.5378
 4317TIP3    H234367   3.627   2.607  11.991 -0.2561  1.1921  0.0433
 4318TIP3   OH234368   5.165   1.419   2.153 -0.1783  0.2111 -0.1557
 4318TIP3    H134369   5.127   1.420   2.065 -2.3570 -0.3112  0.7689
 4318TIP3    H234370   5.115   1.353   2.201  0.3929  1.1224  1.7502
 4319TIP3   OH234371   6.577   0.429  14.991 -0.3786 -0.4042 -0.2980
 4319TIP3    H134372   6.489   0.418  14.956 -0.5513 -2.7406  0.7779
 4319TIP3    H234373   6.592   0.351  15.045  1.1701  1.4304  2.0549
 4320TIP3   OH234374   6.191   0.168  13.758 -0.3369  0.2432  0.2149
 4320TIP3    H134375   6.130   0.228  13.714 -0.5129  1.1385  1.6563
 4320TIP3    H234376   6.138   0.092  13.782 -0.5807  0.4336  0.2753
 4321TIP3   OH234377   0.104   3.131   0.925 -0.0295  0.8761  0.1968
 4321TIP3    H134378   0.016   3.151   0.895  0.1842  0.7868 -0.5077
 4321TIP3    H234379   0.158   3.134   0.846  0.5083  0.4038  0.5353
 4322TIP3   OH234380   1.768   3.803   5.937 -0.0754  0.2017  0.0340
 4322TIP3    H134381   1.755   3.810   5.842  0.0887  0.2634  0.0151
 4322TIP3    H234382   1.771   3.893   5.968 -4.6421  0.1818  0.7506
 4323TIP3   OH234383   2.165   6.281  12.999  0.0837  0.0972 -0.2531
 4323TIP3    H134384   2.223   6.356  12.985  1.4992 -0.6496  1.3359
 4323TIP3    H234385   2.177   6.227  12.921  0.4198  0.6827 -0.6090
 4324TIP3   OH234386   0.661   5.039  12.390 -0.1521 -0.5524  0.4714
 4324TIP3    H134387   0.609   4.985  12.450 -1.7110 -1.8607 -1.9635
 4324TIP3    H234388   0.597   5.083  12.335  1.2041  1.7536  0.6623
 4325TIP3   OH234389   3.044   2.521   4.291 -0.1729  0.2897  0.2218
 4325TIP3    H134390   3.138   2.505   4.284 -0.0388  1.0476  0.2951
 4325TIP3    H234391   3.037   2.596   4.350 -0.6298  2.9412 -3.0771
 4326TIP3   OH234392   3.883   4.678  11.152 -0.1247 -0.3487 -0.1339
 4326TIP3    H134393   3.894   4.748  11.087 -1.8235 -0.6274 -0.7267
 4326TIP3    H234394   3.863   4.600  11.101  0.8564 -1.0913  0.5902
 4327TIP3   OH234395   6.254   4.872   0.438 -0.2502  0.4685  0.4285
 4327TIP3    H134396   6.346   4.854   0.458 -0.4211 -1.6786 -0.5441
 4327TIP3    H234397   6.252   4.962   0.408  1.9422 -0.2109 -1.9111
 4328TIP3   OH234398   3.314   5.364  13.020 -0.5560 -0.2541 -0.1265
 4328TIP3    H134399   3.404   5.339  13.000  0.5381  1.5528  2.4026
 4328TIP3    H234400   3.272   5.282  13.047  0.4748 -0.9831 -0.7106
 4329TIP3   OH234401   1.346   5.245   1.323  0.3335  0.0591 -0.3663
 4329TIP3    H134402   1.370   5.292   1.402  2.2802 -1.2296 -0.1290
 4329TIP3    H234403   1.321   5.158   1.353 -1.2704  0.2948 -0.9662
 4330TIP3   OH234404   5.866   3.047   0.217  0.3881  0.6076  0.9367
 4330TIP3    H134405   5.954   3.010   0.222  0.5026  0.7710  0.0874
 4330TIP3    H234406   5.872   3.118   0.154 -0.9751 -1.1894 -1.2921
 4331TIP3   OH234407   5.896   1.416   3.358 -0.3117 -0.1006 -0.0990
 4331TIP3    H134408   5.888   1.442   3.450  1.4043 -1.7709  0.5653
 4331TIP3    H234409   5.990   1.405   3.344 -0.4700  1.2274 -2.3980
 4332TIP3   OH234410   5.421   2.065   2.359 -0.6439 -0.5511 -0.6391
 4332TIP3    H134411   5.342   2.064   2.305 -1.7111  0.8910  0.8378
 4332TIP3    H234412   5.390   2.086   2.447  1.4006  0.1688 -0.0569
 4333TIP3   OH234413   5.378   2.316   6.458 -0.0149  0.0214  0.3703
 4333TIP3    H134414   5.402   2.232   6.498  0.1227 -0.0116  0.2206
 4333TIP3    H234415   5.284   2.311   6.446  0.0586 -0.3242 -0.1140
 4334TIP3   OH234416   2.468   0.598  14.930 -0.0880  0.2621 -0.6465
 4334TIP3    H134417   2.523   0.676  14.934 -0.5334  0.6284 -1.5940
 4334TIP3    H234418   2.476   0.567  14.840 -1.4803  0.3638 -0.8222
 4335TIP3   OH234419   1.154   5.544  17.157  0.2922  0.0495  0.0813
 4335TIP3    H134420   1.246   5.534  17.132  0.2971  0.5608 -0.1092
 4335TIP3    H234421   1.108   5.560  17.075  0.0939  0.2177  0.2257
 4336TIP3   OH234422   0.912   5.602  14.932  0.4752  0.5038 -0.5010
 4336TIP3    H134423   0.825   5.638  14.919  0.1887  0.0144  0.0429
 4336TIP3    H234424   0.914   5.523  14.878  0.5037  0.3903 -0.3347
 4337TIP3   OH234425   6.188   0.379  14.372  0.0040 -0.1434  0.0507
 4337TIP3    H134426   6.258   0.332  14.327 -0.9676 -0.0782 -1.5465
 4337TIP3    H234427   6.121   0.313  14.388  0.5397 -0.2772  1.8705
 4338TIP3   OH234428   6.474   4.765   3.720 -0.4164 -0.2469 -0.0421
 4338TIP3    H134429   6.381   4.778   3.701 -0.7892  1.5787  2.8369
 4338TIP3    H234430   6.476   4.708   3.797  0.7844  1.0012  0.8831
 4339TIP3   OH234431   3.571   2.646  16.408  0.4703 -0.1167  0.4413
 4339TIP3    H134432   3.588   2.567  16.459  1.0934  0.4319  1.0898
 4339TIP3    H234433   3.600   2.718  16.464 -0.3046  0.5923 -0.0468
 4340TIP3   OH234434   6.476   1.623   4.403 -0.1386  0.4618 -0.0868
 4340TIP3    H134435   6.440   1.698   4.451 -2.1099 -0.2589 -0.3877
 4340TIP3    H234436   6.486   1.655   4.313  1.1494  1.0320  0.2463
 4341TIP3   OH234437   0.575   4.431   0.217  0.2251  0.6456 -0.2185
 4341TIP3    H134438   0.532   4.418   0.132  0.5926 -0.7995 -0.1950
 4341TIP3    H234439   0.635   4.503   0.202 -1.1009  1.6912 -0.6596
 4342TIP3   OH234440   5.176   2.999   6.561  0.3332 -0.4264 -0.5569
 4342TIP3    H134441   5.118   2.986   6.486 -0.0758  0.0637 -0.3247
 4342TIP3    H234442   5.127   3.055   6.621  1.4605  0.8829 -0.8289
 4343TIP3   OH234443   0.710   0.117  11.547 -0.6464  0.3565  0.3782
 4343TIP3    H134444   0.761   0.092  11.624 -2.2282 -1.0049  1.0036
 4343TIP3    H234445   0.631   0.157  11.582 -1.6251 -0.7507 -0.5145
 4344TIP3   OH234446   0.789   0.195  16.570 -0.5989 -0.3689  0.0860
 4344TIP3    H134447   0.820   0.226  16.485 -0.1544 -0.5770  0.1661
 4344TIP3    H234448   0.694   0.199  16.565 -0.5628 -0.0056 -0.2815
 4345TIP3   OH234449   0.456   0.580   1.624 -0.8268  0.0531 -0.2375
 4345TIP3    H134450   0.485   0.505   1.675  0.0787  0.4378 -0.1748
 4345TIP3    H234451   0.513   0.580   1.547  0.0577  1.4449  0.4080
 4346TIP3   OH234452   0.684   5.046   5.325 -0.0949  0.3533 -0.5124
 4346TIP3    H134453   0.773   5.057   5.359  0.0746  2.1679 -1.4866
 4346TIP3    H234454   0.628   5.073   5.398  0.1994  0.8582 -0.4669
 4347TIP3   OH234455   1.536   2.505  11.285  0.3619  0.5136 -0.1241
 4347TIP3    H134456   1.503   2.478  11.199  0.8283 -1.7725  0.3934
 4347TIP3    H234457   1.481   2.580  11.309 -3.7067 -2.4627  0.2249
 4348TIP3   OH234458   5.699   1.138  12.105 -0.4078  0.7237  0.1767
 4348TIP3    H134459   5.692   1.125  12.011 -1.3620  0.8422  0.2219
 4348TIP3    H234460   5.730   1.055  12.139 -1.6583  0.1408 -0.0742
 4349TIP3   OH234461   0.918   2.495  12.398  0.1795  0.1454  0.1328
 4349TIP3    H134462   0.957   2.424  12.449 -0.9412 -1.6213 -1.4374
 4349TIP3    H234463   0.861   2.540  12.461  0.2049 -0.8794  0.9176
 4350TIP3   OH234464   2.444   5.840  12.625 -0.0921 -0.1520 -0.7061
 4350TIP3    H134465   2.368   5.871  12.576  0.5461  0.4972 -1.3136
 4350TIP3    H234466   2.487   5.921  12.655 -1.2368 -0.5539  2.1351
 4351TIP3   OH234467   1.169   2.215  15.224 -0.2178  0.6183 -0.1174
 4351TIP3    H134468   1.180   2.222  15.319 -1.5272 -2.4707  0.3486
 4351TIP3    H234469   1.105   2.282  15.202 -0.4080  0.9172  1.3173
 4352TIP3   OH234470   6.282   2.497   4.666  0.1234  0.0513  0.4263
 4352TIP3    H134471   6.361   2.550   4.660  0.7394 -0.6647  1.9734
 4352TIP3    H234472   6.212   2.554   4.632  1.1382  0.9989 -0.1169
 4353TIP3   OH234473   1.186   1.020   0.231 -0.4764 -0.4933  0.5096
 4353TIP3    H134474   1.196   0.944   0.288  1.2803  0.3862  1.4403
 4353TIP3    H234475   1.170   1.093   0.291  0.5472  0.3007 -0.1507
 4354TIP3   OH234476   2.140   1.018   3.333  0.3713 -0.2629  0.1061
 4354TIP3    H134477   2.089   1.078   3.387  0.1864  1.5836 -2.0475
 4354TIP3    H234478   2.119   0.931   3.367 -1.5413  0.6941  1.4576
 4355TIP3   OH234479   1.724   4.337   4.780  0.5527  0.6110  0.3332
 4355TIP3    H134480   1.636   4.332   4.743 -0.3718 -0.1768  2.5812
 4355TIP3    H234481   1.732   4.259   4.835  2.4167  0.9991  0.6506
 4356TIP3   OH234482   4.487   2.628   6.486  0.0019  0.2485 -0.0977
 4356TIP3    H134483   4.428   2.692   6.526  0.3854  0.6259 -0.1358
 4356TIP3    H234484   4.549   2.680   6.436  1.4975 -0.0411  1.4410
 4357TIP3   OH234485   6.204   5.015   3.565  0.4432  0.5034  0.1401
 4357TIP3    H134486   6.228   5.078   3.497 -0.7250  1.6668  0.7828
 4357TIP3    H234487   6.193   5.068   3.644  3.5395 -1.0667  1.6973
 4358TIP3   OH234488   4.447   5.550   1.433  0.1105 -0.3824 -0.7590
 4358TIP3    H134489   4.486   5.564   1.520 -1.5035 -0.0684 -0.0837
 4358TIP3    H234490   4.463   5.632   1.386  1.8903 -0.9079 -1.1449
 4359TIP3   OH234491   6.151   0.184   3.366 -0.1326 -0.5241 -0.0861
 4359TIP3    H134492   6.162   0.147   3.279 -3.7403 -1.4424 -0.2321
 4359TIP3    H234493   6.182   0.274   3.358  1.1103 -1.0908 -1.8707
 4360TIP3   OH234494   3.183   1.693   3.581 -0.5316 -0.1666 -0.0072
 4360TIP3    H134495   3.221   1.724   3.663 -0.5934 -0.5109  0.1529
 4360TIP3    H234496   3.259   1.677   3.524 -0.1336 -4.0692  1.4146
 4361TIP3   OH234497   3.666   1.442   2.448 -0.2986  0.7262 -0.1349
 4361TIP3    H134498   3.571   1.454   2.439 -0.4703 -0.5840 -0.1862
 4361TIP3    H234499   3.697   1.423   2.360 -0.6264 -2.9149  0.4300
 4362TIP3   OH234500   5.351   0.399   0.845 -0.4005 -0.4377  0.3326
 4362TIP3    H134501   5.273   0.409   0.900  1.8714  2.3765  3.2642
 4362TIP3    H234502   5.348   0.474   0.786 -0.8811 -1.4191 -0.9214
 4363TIP3   OH234503   5.655   4.539  11.003 -0.2803  0.4884  0.3491
 4363TIP3    H134504   5.594   4.540  10.929  1.2634 -0.8940 -1.0037
 4363TIP3    H234505   5.637   4.457  11.048 -0.1757  0.6043  0.6031
 4364TIP3   OH234506   4.009   5.168  15.044  0.0303 -0.2209  0.5891
 4364TIP3    H134507   4.020   5.251  14.997  0.4459 -0.3934  0.3762
 4364TIP3    H234508   4.090   5.158  15.093 -0.0222 -0.5010  0.6182
 4365TIP3   OH234509   2.822   2.957   1.411  0.3000 -0.3085  0.1898
 4365TIP3    H134510   2.755   2.906   1.365 -2.7456  0.9262  2.9985
 4365TIP3    H234511   2.836   3.034   1.356 -1.3713 -0.1164 -0.0095
 4366TIP3   OH234512   1.802   5.986  13.023 -0.0853 -0.1462 -0.0444
 4366TIP3    H134513   1.721   6.024  13.056  0.2860  1.6520 -1.1585
 4366TIP3    H234514   1.773   5.922  12.958 -0.6650 -0.9255  0.9666
 4367TIP3   OH234515   3.082   1.740  11.265 -0.4960  0.6726 -0.2818
 4367TIP3    H134516   3.159   1.746  11.209 -1.1704 -2.5828 -1.6375
 4367TIP3    H234517   3.117   1.743  11.354  1.0429  0.8353 -0.8799
 4368TIP3   OH234518   1.035   2.941  11.834 -0.2631  0.6071 -0.1039
 4368TIP3    H134519   0.942   2.950  11.814 -0.4453 -0.7511  0.0730
 4368TIP3    H234520   1.075   2.920  11.750 -0.0892  1.4240 -0.2210
 4369TIP3   OH234521   3.770   4.689   1.498  0.1224 -0.8017  0.2185
 4369TIP3    H134522   3.711   4.759   1.468  1.2965 -0.3940 -1.2271
 4369TIP3    H234523   3.732   4.609   1.463  0.6591 -0.4881 -1.1302
 4370TIP3   OH234524   4.044   0.184   4.331 -0.1265 -0.1022 -0.6243
 4370TIP3    H134525   3.985   0.179   4.256  0.1048 -0.2876 -0.7917
 4370TIP3    H234526   3.998   0.138   4.401 -2.4667  3.9683  0.7318
 4371TIP3   OH234527   1.318   1.026  16.050  0.1968  0.0203  0.0357
 4371TIP3    H134528   1.332   0.966  15.978  0.5958  0.3321 -0.1533
 4371TIP3    H234529   1.369   1.104  16.027  0.7248 -0.0620  0.8766
 4372TIP3   OH234530   6.229   1.508   1.191 -0.0456  0.1754 -0.2021
 4372TIP3    H134531   6.161   1.531   1.129  0.6106  0.6747 -0.7514
 4372TIP3    H234532   6.304   1.483   1.137  0.1773 -0.4614  0.3911
 4373TIP3   OH234533   0.495   2.424   5.938 -0.5186 -0.2153  0.2606
 4373TIP3    H134534   0.499   2.519   5.927  1.0833 -0.3962 -0.9122
 4373TIP3    H234535   0.449   2.392   5.861 -0.5633 -0.4473  0.3824
 4374TIP3   OH234536   0.736   1.390  15.388  0.5315 -0.1708 -0.0379
 4374TIP3    H134537   0.755   1.375  15.481 -0.0996 -0.2736  0.0806
 4374TIP3    H234538   0.718   1.303  15.353 -1.2025  0.0776  0.2019
 4375TIP3   OH234539   5.616   5.079   3.055 -0.1650 -0.0557 -0.3186
 4375TIP3    H134540   5.684   5.078   2.988 -0.6983 -0.7640 -0.8552
 4375TIP3    H234541   5.542   5.032   3.015 -0.8971  0.5277  0.3300
 4376TIP3   OH234542   5.285   2.800   4.254 -0.5539  0.2268 -0.3016
 4376TIP3    H134543   5.313   2.794   4.345 -1.1921  0.4196 -0.0879
 4376TIP3    H234544   5.286   2.710   4.222 -0.1525  0.1808 -0.1589
 4377TIP3   OH234545   2.433   4.752  14.395  0.3071  0.2905  0.0655
 4377TIP3    H134546   2.414   4.809  14.321  3.8710  1.0364 -0.3609
 4377TIP3    H234547   2.402   4.800  14.472  0.5296  1.4658 -0.5733
 4378TIP3   OH234548   0.385   5.889  16.204 -0.9211 -0.0287  0.4092
 4378TIP3    H134549   0.302   5.877  16.250 -0.4984  0.4411  1.3112
 4378TIP3    H234550   0.422   5.801  16.197 -1.8244 -0.3365 -0.6474
 4379TIP3   OH234551   4.700   2.706  11.489 -0.4866 -0.2020  0.0877
 4379TIP3    H134552   4.702   2.800  11.471 -0.4494 -0.2435 -0.1278
 4379TIP3    H234553   4.651   2.669  11.416 -0.5819 -0.3398  0.2205
 4380TIP3   OH234554   6.616   0.937   6.346  0.5037  0.5988  0.0966
 4380TIP3    H134555   6.597   0.999   6.417  1.9508 -0.1684  1.1686
 4380TIP3    H234556   6.682   0.982   6.293 -0.6144  1.1925 -0.7911
 4381TIP3   OH234557   0.579   1.366   4.664  0.4299 -0.1769  0.0234
 4381TIP3    H134558   0.666   1.365   4.625  0.2389  1.3524 -0.4432
 4381TIP3    H234559   0.541   1.449   4.638 -0.8181 -0.4113  1.0251
 4382TIP3   OH234560   3.513   4.196   0.474 -0.3918  0.4894 -0.2653
 4382TIP3    H134561   3.554   4.241   0.400 -1.9170  2.3511 -0.0246
 4382TIP3    H234562   3.480   4.114   0.438  3.2956 -1.0143 -0.5109
 4383TIP3   OH234563   2.663   4.339   0.891  0.2799 -0.4452  0.2633
 4383TIP3    H134564   2.713   4.288   0.828  0.1529  2.7953 -2.5568
 4383TIP3    H234565   2.728   4.375   0.951  0.7546 -0.6943 -0.1041
 4384TIP3   OH234566   5.734   5.154  14.248 -0.4518 -0.3577  0.0628
 4384TIP3    H134567   5.812   5.101  14.266  0.0691  0.4176  0.0891
 4384TIP3    H234568   5.753   5.239  14.287 -1.9437 -0.6186  1.4606
 4385TIP3   OH234569   2.862   2.824  12.765 -0.1011  0.3526 -0.1318
 4385TIP3    H134570   2.859   2.737  12.724 -0.4080  0.9603 -1.4186
 4385TIP3    H234571   2.887   2.883  12.694  0.6544  1.2511  0.8607
 4386TIP3   OH234572   3.521   4.236  11.909 -0.1150  0.2479 -0.3258
 4386TIP3    H134573   3.566   4.317  11.886 -1.7019  1.2355 -0.0185
 4386TIP3    H234574   3.549   4.218  11.998 -1.6182  1.8013  0.4941
 4387TIP3   OH234575   0.918   6.513  15.622  0.2411 -0.0345 -0.6081
 4387TIP3    H134576   0.901   6.560  15.540  1.0856 -2.5774 -2.2895
 4387TIP3    H234577   0.830   6.495  15.657 -0.2264 -0.9354 -2.1655
 4388TIP3   OH234578   2.142   3.412   2.940  0.0464  0.3626  0.2496
 4388TIP3    H134579   2.228   3.416   2.897 -0.0238  2.1978  0.2246
 4388TIP3    H234580   2.080   3.409   2.867 -0.0403  2.7138  0.1845
 4389TIP3   OH234581   4.391   4.101  16.456  0.4042  0.1782 -0.1654
 4389TIP3    H134582   4.394   4.197  16.446 -2.8648  0.2940 -0.4901
 4389TIP3    H234583   4.369   4.069  16.369 -2.4262 -0.5833  0.8064
 4390TIP3   OH234584   5.790   6.150  16.782 -0.4201  0.8819 -0.8902
 4390TIP3    H134585   5.695   6.139  16.791 -0.3880 -0.0194 -1.5973
 4390TIP3    H234586   5.805   6.242  16.805 -1.5194  1.1556 -1.1873
 4391TIP3   OH234587   5.810   1.095   0.129  0.1754  0.1482  0.1264
 4391TIP3    H134588   5.811   1.120   0.037  1.3004 -0.4042 -0.0240
 4391TIP3    H234589   5.799   1.000   0.128 -1.1406  0.2978  0.6008
 4392TIP3   OH234590   0.331   4.924  17.184 -0.1917 -0.5247  0.2980
 4392TIP3    H134591   0.264   4.857  17.177  2.5334 -3.3873  0.4583
 4392TIP3    H234592   0.353   4.946  17.093 -2.5105  1.7590  0.2192
 4393TIP3   OH234593   3.596   4.186  14.446  0.7054  0.3779  0.2767
 4393TIP3    H134594   3.528   4.223  14.503  0.0650  0.9536 -0.8335
 4393TIP3    H234595   3.632   4.112  14.495 -2.0424 -1.1370  0.1512
 4394TIP3   OH234596   1.834   4.352  16.026  0.8627 -0.6434  0.2178
 4394TIP3    H134597   1.853   4.441  15.997 -2.2063  0.0781  0.2211
 4394TIP3    H234598   1.805   4.307  15.947 -0.5482 -0.7446  0.7768
 4395TIP3   OH234599   1.458   5.799  11.548 -0.2757 -0.2351 -0.1202
 4395TIP3    H134600   1.495   5.733  11.489  0.3763 -0.1648  0.2086
 4395TIP3    H234601   1.424   5.867  11.489  1.3072  0.3366 -0.4013
 4396TIP3   OH234602   1.220   2.704  15.365  0.1344  0.1013 -0.8160
 4396TIP3    H134603   1.277   2.642  15.409 -1.2124 -2.3415 -2.3676
 4396TIP3    H234604   1.185   2.759  15.435  2.0076 -0.3394  0.4882
 4397TIP3   OH234605   3.759   5.997  14.776  0.0882  0.6070 -0.7561
 4397TIP3    H134606   3.711   6.065  14.823  0.2747 -1.2087  2.1893
 4397TIP3    H234607   3.841   6.039  14.751 -1.0028  2.3070 -1.5793
 4398TIP3   OH234608   3.542   3.132   1.350 -0.1587  0.6679 -0.1518
 4398TIP3    H134609   3.448   3.146   1.346 -0.0269  1.8814  0.7591
 4398TIP3    H234610   3.578   3.216   1.380  1.1251 -0.0824  0.4559
 4399TIP3   OH234611   0.413   3.299  16.324 -0.5579  0.3500 -0.2539
 4399TIP3    H134612   0.458   3.380  16.347 -2.7722  0.8325  2.6669
 4399TIP3    H234613   0.483   3.238  16.302  1.4087  1.7790  1.8162
 4400TIP3   OH234614   1.235   6.649  14.786 -0.3465  0.1554 -0.0235
 4400TIP3    H134615   1.226   6.560  14.820  0.4924  0.5123  1.1967
 4400TIP3    H234616   1.148   6.688  14.798 -0.5132 -0.2586  0.1402
 4401TIP3   OH234617   3.522   5.610  17.165  0.1370 -0.3304  0.1192
 4401TIP3    H134618   3.611   5.638  17.186  0.2853 -0.3622 -0.4728
 4401TIP3    H234619   3.530   5.516  17.148  0.2851 -0.0345 -1.5634
 4402TIP3   OH234620   2.248   0.225  13.204  0.0890 -0.4981  0.1388
 4402TIP3    H134621   2.224   0.316  13.221  0.0902 -0.1456 -1.6606
 4402TIP3    H234622   2.173   0.174  13.234 -0.0406  0.1033  0.8602
 4403TIP3   OH234623   5.863   6.409  16.852  0.2150 -0.3084  0.2517
 4403TIP3    H134624   5.805   6.454  16.914 -0.8319  2.7938 -2.7949
 4403TIP3    H234625   5.951   6.422  16.887 -0.2620  2.4245  0.5339
 4404TIP3   OH234626   6.647   2.786   5.965 -0.0966 -0.3100 -0.5466
 4404TIP3    H134627   6.732   2.763   6.002 -0.5630 -0.1827  0.5995
 4404TIP3    H234628   6.583   2.751   6.026 -0.8856 -0.6276 -1.5406
 4405TIP3   OH234629   1.772   2.858   1.648 -0.5383 -0.0999 -0.2453
 4405TIP3    H134630   1.816   2.796   1.706 -0.3783 -0.2125 -0.4861
 4405TIP3    H234631   1.694   2.885   1.696  0.0758  0.5180  0.4078
 4406TIP3   OH234632   2.126   1.652   5.244 -0.1537 -0.4544 -0.1451
 4406TIP3    H134633   2.040   1.639   5.284  0.1837 -1.7645  0.1763
 4406TIP3    H234634   2.175   1.572   5.265  1.0557  0.1634 -0.5481
 4407TIP3   OH234635   0.784   4.106   3.169 -0.1447  0.4166 -0.3271
 4407TIP3    H134636   0.701   4.061   3.154  0.3547 -0.7570  0.4102
 4407TIP3    H234637   0.768   4.196   3.140 -2.0913  0.5589  1.1127
 4408TIP3   OH234638   6.370   0.972  13.066  0.0611 -0.0699 -0.2649
 4408TIP3    H134639   6.338   1.058  13.091  0.4037 -0.0086 -0.0394
 4408TIP3    H234640   6.450   0.989  13.017  0.9989 -0.3382  1.1746
 4409TIP3   OH234641   0.594   2.816   0.496  0.5357  0.7664 -0.1263
 4409TIP3    H134642   0.509   2.792   0.459  0.1662 -1.2780  1.9798
 4409TIP3    H234643   0.582   2.906   0.526 -0.8122  0.5541 -0.0034
 4410TIP3   OH234644   0.875   6.409   4.124 -0.4395 -0.7648  0.4616
 4410TIP3    H134645   0.893   6.363   4.042 -0.9883 -0.3776  0.1122
 4410TIP3    H234646   0.806   6.358   4.165 -0.5931 -0.6224  0.3837
 4411TIP3   OH234647   2.807   1.758  11.297 -0.3454  0.2504 -0.2584
 4411TIP3    H134648   2.897   1.726  11.297 -1.0041 -1.7191 -2.5480
 4411TIP3    H234649   2.810   1.837  11.351  2.6851  0.0520 -0.0452
 4412TIP3   OH234650   0.507   2.117  16.821  0.3283 -0.3865 -0.2715
 4412TIP3    H134651   0.471   2.126  16.910  0.3337 -0.8702 -0.2171
 4412TIP3    H234652   0.590   2.164  16.824 -0.9150  1.8881 -0.7742
 4413TIP3   OH234653   3.122   2.876   0.179 -0.0917  0.5039 -0.7811
 4413TIP3    H134654   3.190   2.934   0.145  1.5717 -2.4161 -2.5829
 4413TIP3    H234655   3.152   2.851   0.266  2.2241 -2.3249 -2.3108
 4414TIP3   OH234656   5.115   1.481  16.749  0.0056  0.3076  0.9150
 4414TIP3    H134657   5.205   1.505  16.725 -0.6081  0.0701 -1.8317
 4414TIP3    H234658   5.074   1.564  16.774  0.9755  0.4155  2.2079
 4415TIP3   OH234659   0.412   4.648   1.108 -0.0308 -0.6155  0.7497
 4415TIP3    H134660   0.327   4.689   1.097  0.3403  0.0939  0.4888
 4415TIP3    H234661   0.440   4.628   1.018 -1.0644 -3.2188  0.9649
 4416TIP3   OH234662   4.195   3.837   7.094 -0.2665  0.5952 -0.0813
 4416TIP3    H134663   4.198   3.839   6.999 -0.7002 -0.8881 -0.1397
 4416TIP3    H234664   4.274   3.791   7.120 -1.3700 -1.2040  0.1565
 4417TIP3   OH234665   1.374   1.663   1.496  0.0305 -0.1592 -0.6582
 4417TIP3    H134666   1.401   1.742   1.544 -0.7500 -0.2951  0.0121
 4417TIP3    H234667   1.311   1.694   1.432  1.3317  0.0756 -1.8601
 4418TIP3   OH234668   1.008   3.156  15.598  0.3640 -0.3817 -0.1282
 4418TIP3    H134669   0.990   3.187  15.509  0.3115  0.4677  0.1670
 4418TIP3    H234670   1.061   3.226  15.637  0.6059 -0.8677  0.4241
 4419TIP3   OH234671   6.338   2.816   4.511 -0.5776 -0.5212  0.6684
 4419TIP3    H134672   6.318   2.840   4.420 -2.7575 -2.6970  0.5233
 4419TIP3    H234673   6.284   2.876   4.564  1.1796  1.1826  0.5913
 4420TIP3   OH234674   0.457   2.961   5.179  0.0480 -0.0216 -0.5100
 4420TIP3    H134675   0.503   3.039   5.211  2.9054 -2.1681  0.9792
 4420TIP3    H234676   0.376   2.959   5.229  1.0273  0.7652  1.1641
 4421TIP3   OH234677   4.745   2.775   1.450 -0.2487 -0.1021  0.3250
 4421TIP3    H134678   4.696   2.723   1.385 -0.3651  0.9435 -0.4225
 4421TIP3    H234679   4.826   2.798   1.406  0.9469 -1.8202  1.5684
 4422TIP3   OH234680   1.600   1.369  13.490  0.0448  0.0559  0.3345
 4422TIP3    H134681   1.642   1.435  13.435 -1.8902  2.2941  1.4831
 4422TIP3    H234682   1.523   1.342  13.440 -0.2017  0.0567  0.7122
 4423TIP3   OH234683   5.092   2.330  16.793 -0.2406  0.3302 -0.1921
 4423TIP3    H134684   5.070   2.270  16.864 -1.9802 -0.2079 -1.1317
 4423TIP3    H234685   5.141   2.401  16.834 -0.2566 -0.5415  1.3415
 4424TIP3   OH234686   2.395   2.397  13.558  0.1009  0.2076  0.5902
 4424TIP3    H134687   2.449   2.455  13.504 -0.9400 -0.4532 -1.1964
 4424TIP3    H234688   2.340   2.350  13.495  1.5296 -3.3896  1.8978
 4425TIP3   OH234689   4.194   0.006  15.112 -0.2658  0.5980  0.0373
 4425TIP3    H134690   4.166  -0.045  15.189 -0.0187  1.3841  0.6583
 4425TIP3    H234691   4.267  -0.043  15.076 -0.1438  0.4080  0.5328
 4426TIP3   OH234692   4.053   4.882  14.413  0.2672 -0.0402 -0.4037
 4426TIP3    H134693   3.989   4.858  14.347  1.2467 -1.2446 -0.9237
 4426TIP3    H234694   4.136   4.890  14.366  1.0854 -1.4595  0.7510
 4427TIP3   OH234695   5.695   5.113   0.526  0.2024 -0.1597  0.5836
 4427TIP3    H134696   5.746   5.047   0.574  0.5764 -0.6829 -0.5293
 4427TIP3    H234697   5.652   5.064   0.456  2.1260  1.1352 -1.5329
 4428TIP3   OH234698   2.126   3.144  15.601  0.1864  0.2611  0.7148
 4428TIP3    H134699   2.077   3.090  15.662  1.6487 -0.6909  1.0788
 4428TIP3    H234700   2.214   3.150  15.639  1.1570 -0.4591 -1.3264
 4429TIP3   OH234701   6.643   5.710   2.210 -0.2276  0.2988 -0.7823
 4429TIP3    H134702   6.676   5.799   2.225 -2.0296  1.0544 -1.0908
 4429TIP3    H234703   6.548   5.719   2.217 -0.3995 -1.7403 -0.2038
 4430TIP3   OH234704   6.146   1.396  11.675  0.0548  0.2290  0.5051
 4430TIP3    H134705   6.170   1.390  11.582 -1.5049 -0.4330  0.1401
 4430TIP3    H234706   6.128   1.490  11.688 -1.2097  0.1082 -0.2536
 4431TIP3   OH234707   0.439   6.492  14.602 -0.3354  0.1265 -0.5440
 4431TIP3    H134708   0.348   6.465  14.588  0.1932 -1.6350 -0.7363
 4431TIP3    H234709   0.444   6.579  14.564 -1.2203 -0.9253 -3.2064
 4432TIP3   OH234710   2.558   3.002  11.326  0.0314 -0.4921 -0.6614
 4432TIP3    H134711   2.562   3.097  11.336  0.2381 -0.5696  0.0376
 4432TIP3    H234712   2.512   2.988  11.243 -0.6283  0.2075 -0.4156
 4433TIP3   OH234713   4.183   0.887  14.600  0.1240  0.3022  0.6235
 4433TIP3    H134714   4.210   0.923  14.516  1.2249 -0.0016  0.8283
 4433TIP3    H234715   4.088   0.885  14.597  0.1592  0.4005 -0.5689
 4434TIP3   OH234716   0.959   6.310   3.899 -0.5970 -0.3115 -0.1442
 4434TIP3    H134717   0.923   6.235   3.853 -1.0028 -0.5898  0.6124
 4434TIP3    H234718   0.946   6.384   3.839  0.1224 -0.8989 -1.0333
 4435TIP3   OH234719   1.180   6.705   1.812 -0.0590  0.3059  0.0158
 4435TIP3    H134720   1.211   6.634   1.869  2.3060 -0.9173 -2.6479
 4435TIP3    H234721   1.219   6.784   1.849  0.0195 -0.2104  1.0719
 4436TIP3   OH234722   4.478   5.102   2.269  0.2043  0.6289  0.2536
 4436TIP3    H134723   4.412   5.035   2.250  0.7345 -0.0053  0.6059
 4436TIP3    H234724   4.433   5.164   2.327 -0.3256  0.6437 -0.1718
 4437TIP3   OH234725   3.637   5.518   3.936 -0.0753  0.6306 -0.0774
 4437TIP3    H134726   3.556   5.522   3.885 -0.5803 -0.2832  0.6426
 4437TIP3    H234727   3.705   5.548   3.875 -0.2088 -3.1980 -2.2925
 4438TIP3   OH234728   1.321   2.809   5.083  0.1224 -0.1137 -0.1871
 4438TIP3    H134729   1.383   2.751   5.040  2.9226  1.5549  1.5038
 4438TIP3    H234730   1.301   2.877   5.018  0.3544 -0.4307 -0.5858
 4439TIP3   OH234731   3.763   3.995   4.455 -0.1361 -0.3110 -0.9308
 4439TIP3    H134732   3.772   4.087   4.429 -1.8692 -0.2982 -1.5659
 4439TIP3    H234733   3.853   3.962   4.459  0.4928  1.3462 -0.9089
 4440TIP3   OH234734   0.779   1.445   2.079  0.1366 -0.0722  0.3912
 4440TIP3    H134735   0.865   1.417   2.109 -0.5405 -0.7428  1.7728
 4440TIP3    H234736   0.760   1.523   2.132 -0.3658 -0.2932  0.5368
 4441TIP3   OH234737   2.857   1.216   5.857  0.0007 -0.3391 -0.6074
 4441TIP3    H134738   2.882   1.166   5.935 -0.2931  0.4230 -0.0175
 4441TIP3    H234739   2.785   1.272   5.886  1.2837  1.4987 -0.8589
 4442TIP3   OH234740   4.766   2.050   4.559  0.3743  0.1249  0.4476
 4442TIP3    H134741   4.773   1.965   4.516 -3.2923  1.3948 -2.9757
 4442TIP3    H234742   4.854   2.088   4.554  1.1122 -1.8146 -1.6012
 4443TIP3   OH234743   5.539   4.901   5.626  0.2293  0.2546  1.0094
 4443TIP3    H134744   5.603   4.970   5.645 -0.3235  0.5883  1.6676
 4443TIP3    H234745   5.457   4.934   5.662 -0.0379 -0.7421  1.3162
 4444TIP3   OH234746   2.415   1.330  14.764 -0.1114 -0.0850  0.2943
 4444TIP3    H134747   2.408   1.358  14.673 -1.4938  0.1127  0.4664
 4444TIP3    H234748   2.447   1.407  14.811  0.4845 -0.1516  0.0065
 4445TIP3   OH234749   1.746   2.523   0.753  0.5868  0.5049  0.2973
 4445TIP3    H134750   1.685   2.456   0.784  1.8732 -0.1918  1.3921
 4445TIP3    H234751   1.721   2.602   0.800 -0.7543  0.7450 -0.7852
 4446TIP3   OH234752   4.149   4.365   2.491  0.1662  0.4261 -0.6253
 4446TIP3    H134753   4.064   4.359   2.447 -1.2712 -1.0187  2.2062
 4446TIP3    H234754   4.131   4.413   2.572  1.9096 -0.4273  0.3028
 4447TIP3   OH234755   4.243   5.709   0.540  0.0418  0.1127  0.2520
 4447TIP3    H134756   4.302   5.672   0.606  0.3510 -0.7341 -0.4886
 4447TIP3    H234757   4.261   5.803   0.543  0.9563 -0.0637  0.4958
 4448TIP3   OH234758   4.871   2.424  11.946 -0.1939  0.5335  0.2376
 4448TIP3    H134759   4.836   2.443  11.858  0.0165  0.5932  0.1685
 4448TIP3    H234760   4.911   2.338  11.938  0.9517  1.0821 -0.0568
 4449TIP3   OH234761   6.029   2.059  16.830 -0.2868  0.1405 -0.3331
 4449TIP3    H134762   6.033   2.007  16.910 -0.6062  0.0971 -0.3427
 4449TIP3    H234763   6.087   2.014  16.769  0.5785  0.6146  0.1279
 4450TIP3   OH234764   3.817   2.641  15.431  0.8161  0.3981 -0.3441
 4450TIP3    H134765   3.811   2.676  15.342  0.2019 -0.7111 -0.7379
 4450TIP3    H234766   3.845   2.551  15.420 -0.5393 -0.1429  0.5132
 4451TIP3   OH234767   6.644   4.529   3.528 -0.3816 -0.6723 -0.5649
 4451TIP3    H134768   6.707   4.573   3.471 -1.3264 -0.2009 -1.2557
 4451TIP3    H234769   6.578   4.493   3.468 -0.8844 -0.9827  0.1610
 4452TIP3   OH234770   1.920   1.419   6.066 -0.3734  0.5881  0.0641
 4452TIP3    H134771   1.904   1.409   5.973  0.3033  1.3518 -0.1522
 4452TIP3    H234772   1.984   1.491   6.071 -0.1899  0.3642  1.0908
 4453TIP3   OH234773   6.427   0.384   4.424 -0.0419  0.1511  0.9636
 4453TIP3    H134774   6.467   0.470   4.413  0.8767 -0.5830 -1.8308
 4453TIP3    H234775   6.483   0.340   4.488  1.0258  0.7096  0.4288
 4454TIP3   OH234776   6.281   3.247  12.461 -0.5457 -0.2404  0.1315
 4454TIP3    H134777   6.334   3.272  12.536 -0.2242 -0.6482  0.0425
 4454TIP3    H234778   6.331   3.178  12.418 -0.5005  0.3400 -0.7440
 4455TIP3   OH234779   2.541   2.965   1.986  0.0476 -0.1787  0.4269
 4455TIP3    H134780   2.534   2.954   2.081  0.3277  2.1741  0.7423
 4455TIP3    H234781   2.613   3.028   1.974 -1.0318  0.7675 -1.2721
 4456TIP3   OH234782   6.756   4.118   4.572  0.5556 -0.1701 -0.2697
 4456TIP3    H134783   6.774   4.156   4.658  1.3431 -0.4223 -0.3208
 4456TIP3    H234784   6.811   4.169   4.512 -0.5985  0.5438 -0.7432
 4457TIP3   OH234785   1.838   6.477   1.806 -0.8820  0.1911  0.3327
 4457TIP3    H134786   1.841   6.569   1.832  0.2140  0.1916  0.2243
 4457TIP3    H234787   1.905   6.435   1.858 -2.1472 -0.7825  1.2081
 4458TIP3   OH234788   2.783   4.603  11.436 -0.3252  0.0297 -0.4229
 4458TIP3    H134789   2.816   4.514  11.447  0.7266  0.2665 -1.5853
 4458TIP3    H234790   2.846   4.645  11.378 -0.8693  1.5044  0.0397
 4459TIP3   OH234791   3.697   3.530   5.849  0.3677  0.1101  0.3583
 4459TIP3    H134792   3.612   3.571   5.864  0.0218 -0.7882  0.8966
 4459TIP3    H234793   3.681   3.466   5.780  1.0581  1.3562 -0.9695
 4460TIP3   OH234794   4.129   6.775  12.707  0.5841 -0.5581 -0.1119
 4460TIP3    H134795   4.142   6.869  12.719  2.3326 -0.4298 -2.6415
 4460TIP3    H234796   4.101   6.744  12.793  1.2296  2.0653  1.1004
 4461TIP3   OH234797   6.523   1.145  16.087 -0.3674  0.0852  0.0739
 4461TIP3    H134798   6.434   1.179  16.089 -0.1248  0.7795 -0.6766
 4461TIP3    H234799   6.513   1.051  16.101 -1.1695  0.2382  0.5328
 4462TIP3   OH234800   2.535   3.940   5.323  0.0171  0.2284  0.1180
 4462TIP3    H134801   2.559   3.903   5.238 -0.7968  0.0991 -0.0501
 4462TIP3    H234802   2.450   3.902   5.344 -0.0635  0.7223  0.7119
 4463TIP3   OH234803   6.229   6.467  14.407 -0.0455  0.1727 -0.0170
 4463TIP3    H134804   6.234   6.436  14.497 -1.0448 -0.4448 -0.1615
 4463TIP3    H234805   6.163   6.411  14.366  1.2442 -0.3398 -1.4442
 4464TIP3   OH234806   4.977   3.428   1.922  0.1535  0.1189  0.3297
 4464TIP3    H134807   4.994   3.476   1.841 -0.6791  0.7256  0.5142
 4464TIP3    H234808   4.892   3.460   1.952  1.0098  0.8290  2.1118
 4465TIP3   OH234809   4.965   6.032   1.990  0.2977 -0.6189  0.3983
 4465TIP3    H134810   4.900   6.077   2.043  0.4410  0.2090 -0.1267
 4465TIP3    H234811   4.925   6.025   1.903  0.7474 -0.4818  0.1824
 4466TIP3   OH234812   2.036   4.578   5.391  0.1054  0.1050  0.3078
 4466TIP3    H134813   2.062   4.492   5.422  2.1294 -0.7062 -3.2908
 4466TIP3    H234814   2.077   4.640   5.451 -0.1709 -1.4023  2.0680
 4467TIP3   OH234815   4.793   3.000  12.103 -0.1741  0.4456  0.5363
 4467TIP3    H134816   4.850   2.968  12.033 -1.4340  0.8451 -0.7120
 4467TIP3    H234817   4.837   2.975  12.184  0.7411 -1.0623 -0.4053
 4468TIP3   OH234818   1.944   0.388  15.862  0.2269  0.2519  0.3710
 4468TIP3    H134819   1.868   0.420  15.910  0.3817 -0.5143  1.1241
 4468TIP3    H234820   1.921   0.401  15.770  0.5188  3.0705  0.6532
 4469TIP3   OH234821   4.311   1.628   1.658  0.1754  0.1627  0.0124
 4469TIP3    H134822   4.321   1.536   1.632  0.6334 -0.4661  2.3154
 4469TIP3    H234823   4.367   1.676   1.597  0.0786 -1.0932 -1.0998
 4470TIP3   OH234824   3.476   0.894   0.084 -1.0481 -0.0402 -0.1949
 4470TIP3    H134825   3.479   0.810   0.129 -2.8617  0.5874  1.1720
 4470TIP3    H234826   3.552   0.942   0.117 -0.3225 -0.9400 -0.5612
 4471TIP3   OH234827   0.045   6.380   3.613  0.6598 -0.4468 -0.2034
 4471TIP3    H134828   0.077   6.397   3.701  2.1145 -0.6339 -0.6826
 4471TIP3    H234829  -0.031   6.438   3.603  2.6307  2.2427 -0.1191
 4472TIP3   OH234830   1.996   6.291  15.696  0.2123  0.1842 -0.2023
 4472TIP3    H134831   2.060   6.224  15.720  1.7107  0.7363 -2.5150
 4472TIP3    H234832   1.967   6.327  15.780  2.8927 -0.1176  0.9098
 4473TIP3   OH234833   2.648   5.587  14.275  0.0421 -0.2950  0.3039
 4473TIP3    H134834   2.732   5.548  14.249 -0.5432 -1.1809 -0.2859
 4473TIP3    H234835   2.620   5.638  14.199 -0.7501 -1.3487 -0.1255
 4474TIP3   OH234836   4.475   1.391  11.691 -0.0415 -0.4680 -0.4443
 4474TIP3    H134837   4.388   1.429  11.677  0.1942  0.8016  1.4250
 4474TIP3    H234838   4.464   1.298  11.670 -1.6966 -0.2100 -0.7915
 4475TIP3   OH234839   2.381   5.729  14.496 -0.5389  0.1130  0.4841
 4475TIP3    H134840   2.432   5.736  14.577 -1.5182  1.7048  0.9849
 4475TIP3    H234841   2.402   5.809  14.447  0.0354 -0.8290 -0.8405
 4476TIP3   OH234842   4.574   5.382  14.346  0.0615 -0.2228  0.7407
 4476TIP3    H134843   4.504   5.427  14.392 -0.2834  2.4844 -2.2343
 4476TIP3    H234844   4.652   5.398  14.399 -0.5870  1.4962  1.2018
 4477TIP3   OH234845   5.012   0.154   1.135 -0.1564  0.4226  0.5698
 4477TIP3    H134846   5.102   0.163   1.103 -0.2669 -1.2633 -0.2728
 4477TIP3    H234847   5.009   0.209   1.213  1.2383  1.5160 -0.1194
 4478TIP3   OH234848   5.100   4.107   6.799 -0.2010  0.3716 -0.5922
 4478TIP3    H134849   5.009   4.128   6.820 -0.1723  0.3252 -0.4148
 4478TIP3    H234850   5.096   4.053   6.720 -0.2494  1.4817 -1.3591
 4479TIP3   OH234851   1.084   5.645  16.297 -0.2563  0.4084 -0.4919
 4479TIP3    H134852   1.062   5.720  16.241  0.3158 -0.3429 -1.7480
 4479TIP3    H234853   1.031   5.573  16.264  0.3707 -0.1399 -0.3198
 4480TIP3   OH234854   5.930   2.552  16.186  0.5690  0.0953 -0.1558
 4480TIP3    H134855   5.865   2.503  16.135 -0.0471  0.4038  0.3400
 4480TIP3    H234856   5.976   2.604  16.120  0.3421 -0.1455 -0.5131
 4481TIP3   OH234857   6.348   3.128   2.974  0.5295 -0.4943  0.0587
 4481TIP3    H134858   6.313   3.066   2.911  1.8531 -0.5083 -0.6626
 4481TIP3    H234859   6.367   3.076   3.052 -2.1475 -0.2950  0.9103
 4482TIP3   OH234860   3.840   6.164  13.715 -0.2428 -0.0435 -0.1398
 4482TIP3    H134861   3.867   6.179  13.625 -0.2854  0.2803 -0.0970
 4482TIP3    H234862   3.810   6.249  13.746 -2.0586 -0.5655 -0.4230
 4483TIP3   OH234863   2.432   5.078   3.469 -0.4067  0.5604 -0.4853
 4483TIP3    H134864   2.515   5.077   3.517 -0.4571  0.2495 -0.3992
 4483TIP3    H234865   2.401   5.168   3.476 -1.1971  0.1615  1.4407
 4484TIP3   OH234866   0.776   5.230  16.325  0.1613  0.3238 -0.0191
 4484TIP3    H134867   0.840   5.300  16.311  1.8885 -1.2768 -0.1944
 4484TIP3    H234868   0.828   5.153  16.348 -1.6701 -1.1084 -0.5565
 4485TIP3   OH234869   0.928   6.462   5.828  0.4040 -0.0582  0.2109
 4485TIP3    H134870   0.942   6.541   5.880 -1.0940 -0.2477  0.9290
 4485TIP3    H234871   0.872   6.490   5.756  0.0849 -0.4123  0.3190
 4486TIP3   OH234872   3.326   6.644   4.592  0.2438 -0.1810  0.0307
 4486TIP3    H134873   3.349   6.725   4.637 -0.6637  0.3296 -0.4142
 4486TIP3    H234874   3.380   6.577   4.635 -0.1817  0.3900  1.4825
 4487TIP3   OH234875   3.123   2.772   2.448 -0.1364  0.6790  0.2677
 4487TIP3    H134876   3.185   2.763   2.376  1.8706  1.5111  1.8383
 4487TIP3    H234877   3.141   2.697   2.505  0.2817  1.5787  1.3419
 4488TIP3   OH234878   5.699   5.419  17.149 -0.3962  0.0901 -0.6496
 4488TIP3    H134879   5.605   5.432  17.151 -0.2770  0.7683  2.2572
 4488TIP3    H234880   5.735   5.504  17.124 -0.4253  0.7278  1.4182
 4489TIP3   OH234881   2.193   0.424  10.752 -0.2899 -0.7010  0.3244
 4489TIP3    H134882   2.176   0.330  10.754 -1.7969 -0.4598 -0.4760
 4489TIP3    H234883   2.118   0.461  10.705  1.6527  0.6041 -1.8213
 4490TIP3   OH234884   2.619   2.901  15.009 -0.5328 -0.4859 -0.7049
 4490TIP3    H134885   2.614   2.982  14.957 -0.5928  0.2532  0.4242
 4490TIP3    H234886   2.596   2.929  15.097 -1.3727 -1.9177 -0.4646
 4491TIP3   OH234887   2.648   4.987   4.145  0.0074 -0.0784  0.3588
 4491TIP3    H134888   2.683   4.953   4.227  1.6374  0.5199 -0.0660
 4491TIP3    H234889   2.631   4.910   4.092 -1.4537 -0.4967  1.3819
 4492TIP3   OH234890   1.990   3.827  13.692 -0.4787  0.0315 -0.3416
 4492TIP3    H134891   2.061   3.763  13.699  0.7565  1.7883  5.1618
 4492TIP3    H234892   2.032   3.905  13.656 -0.0263  0.4442  1.0615
 4493TIP3   OH234893   5.361   5.650   4.303 -0.1861  0.0199  0.3401
 4493TIP3    H134894   5.398   5.701   4.375 -2.2367 -0.7604  1.9926
 4493TIP3    H234895   5.388   5.560   4.322 -1.1161 -0.2527  0.3994
 4494TIP3   OH234896   4.848   3.041  15.645 -0.2498 -0.4417  0.0505
 4494TIP3    H134897   4.763   3.013  15.612  0.1515  1.9065 -3.3255
 4494TIP3    H234898   4.904   3.044  15.567  1.9104  1.5933  1.5840
 4495TIP3   OH234899   2.762   4.918  14.870  0.5968  0.2369  0.0104
 4495TIP3    H134900   2.850   4.947  14.847  0.4672  0.0497 -0.7441
 4495TIP3    H234901   2.745   4.844  14.812 -0.6326  1.1946 -0.8914
 4496TIP3   OH234902   0.131   6.741   3.636  0.1850  0.2968 -0.1329
 4496TIP3    H134903   0.167   6.654   3.655  0.9104  0.8868  1.2937
 4496TIP3    H234904   0.153   6.793   3.714 -1.1798  1.4686 -0.5203
 4497TIP3   OH234905   3.156   4.987  11.408  0.5071  0.0731 -0.3332
 4497TIP3    H134906   3.239   4.948  11.435  2.1714  1.6745 -2.8915
 4497TIP3    H234907   3.146   5.064  11.465  1.5155  0.6559 -0.9158
 4498TIP3   OH234908   6.251   4.767  11.829 -0.3175 -0.0529 -0.2725
 4498TIP3    H134909   6.196   4.702  11.785 -0.0531 -1.6547  1.6684
 4498TIP3    H234910   6.231   4.755  11.922 -0.3778  2.7745  0.1187
 4499TIP3   OH234911   6.547   6.031   5.441 -0.1641  0.0615 -0.7410
 4499TIP3    H134912   6.489   6.049   5.515 -0.5237  2.0578 -1.4544
 4499TIP3    H234913   6.521   5.945   5.409 -1.7185  0.2870 -0.1169
 4500TIP3   OH234914   6.453   0.036  13.130 -0.1265  0.3633 -0.1522
 4500TIP3    H134915   6.455   0.131  13.141  0.6460  0.2138  1.1436
 4500TIP3    H234916   6.368   0.009  13.164 -0.7966  0.6852 -1.5140
 4501TIP3   OH234917   4.346   6.301  13.281 -0.0223  0.0343  0.0883
 4501TIP3    H134918   4.253   6.311  13.258 -0.2528  0.9611  1.3940
 4501TIP3    H234919   4.387   6.382  13.252  0.1665  0.1107  0.5666
 4502TIP3   OH234920   6.062   3.302  12.672 -0.2035  0.0076 -0.0178
 4502TIP3    H134921   6.089   3.384  12.630 -0.2898  0.0741  0.0570
 4502TIP3    H234922   5.967   3.300  12.661 -0.1181 -0.4640 -0.7150
 4503TIP3   OH234923   5.251   0.938  16.115  0.2893  0.4994 -0.7002
 4503TIP3    H134924   5.251   1.021  16.162 -1.8998 -0.3997  0.9928
 4503TIP3    H234925   5.269   0.873  16.183  0.3356 -0.5477 -1.7063
 4504TIP3   OH234926   0.452   5.034   2.196 -0.4277 -0.1856  0.4049
 4504TIP3    H134927   0.429   4.953   2.150  2.0067 -0.5455 -0.2779
 4504TIP3    H234928   0.535   5.061   2.156 -1.7443  3.2911 -0.1897
 4505TIP3   OH234929   5.074   5.728   4.198 -0.8254 -0.6917 -0.3898
 4505TIP3    H134930   5.133   5.691   4.263 -0.3629 -0.3027 -0.5896
 4505TIP3    H234931   5.006   5.661   4.187 -2.7148  0.5426  2.8986
 4506TIP3   OH234932   1.556   4.221   2.542 -0.5513  0.4227 -0.3672
 4506TIP3    H134933   1.518   4.301   2.505  0.1624  0.7541 -0.3988
 4506TIP3    H234934   1.521   4.150   2.487 -0.9143  0.7452 -0.5556
 4507TIP3   OH234935   2.826   0.993  16.723 -0.0252  0.2466 -0.2938
 4507TIP3    H134936   2.887   0.930  16.762 -1.9627 -1.0263  0.7732
 4507TIP3    H234937   2.841   0.986  16.629 -0.0980 -1.7461 -0.1918
 4508TIP3   OH234938   3.696   4.889   2.635 -0.1009 -0.4724 -0.4199
 4508TIP3    H134939   3.716   4.839   2.556 -0.4714 -1.0656 -0.1432
 4508TIP3    H234940   3.775   4.884   2.688  0.5152  0.8015 -1.2050
 4509TIP3   OH234941   2.346   5.585   4.898 -0.2626  0.2164  0.1141
 4509TIP3    H134942   2.396   5.584   4.815  1.0267 -1.0830  0.8870
 4509TIP3    H234943   2.259   5.616   4.873  0.4349  0.8986 -1.5572
 4510TIP3   OH234944   3.398   2.827  11.916  0.2622  0.0514  0.2662
 4510TIP3    H134945   3.306   2.810  11.893  0.4529  0.6030 -0.9212
 4510TIP3    H234946   3.393   2.900  11.978 -0.0766  0.3441 -0.1011
 4511TIP3   OH234947   3.051   4.589   0.161  0.0443 -0.3667 -0.6011
 4511TIP3    H134948   2.997   4.638   0.223 -1.1886 -0.9959 -1.1572
 4511TIP3    H234949   3.003   4.507   0.147  1.5906 -1.3343 -0.4202
 4512TIP3   OH234950   3.781   6.413  16.012 -0.0046  0.4319  0.1373
 4512TIP3    H134951   3.846   6.349  16.043  1.1837  0.9059 -1.3434
 4512TIP3    H234952   3.822   6.498  16.029  0.3651  0.7137 -2.0515
 4513TIP3   OH234953   5.541   5.773   1.175  0.9889 -0.0463  0.2938
 4513TIP3    H134954   5.598   5.839   1.136  0.6378  0.6816  1.0019
 4513TIP3    H234955   5.504   5.726   1.101  1.4427  0.3861 -0.2081
 4514TIP3   OH234956   1.017   1.820   1.529 -0.0092  0.3061  0.2391
 4514TIP3    H134957   1.076   1.893   1.545 -1.8434  2.2529 -1.5027
 4514TIP3    H234958   0.966   1.847   1.452 -1.1462 -2.5402 -0.0600
 4515TIP3   OH234959   4.049   3.937   5.417  0.3166 -0.0438 -0.8566
 4515TIP3    H134960   4.029   3.872   5.350 -0.0935  0.1448 -0.9168
 4515TIP3    H234961   3.990   3.916   5.490  2.0747 -1.4375  0.2181
 4516TIP3   OH234962   1.015   1.426  14.016 -0.1245  0.9260 -0.3426
 4516TIP3    H134963   1.027   1.418  14.110 -0.5754  1.0554 -0.2719
 4516TIP3    H234964   0.996   1.336  13.987  0.7873  0.7594 -0.4254
 4517TIP3   OH234965   1.046   6.048  13.268 -0.2107 -0.2546 -0.7702
 4517TIP3    H134966   1.027   5.994  13.192  0.1371 -1.0471 -0.3020
 4517TIP3    H234967   1.002   6.004  13.340 -0.4886  0.4554 -0.4949
 4518TIP3   OH234968   0.137   2.606  14.879 -0.6395 -0.0415  0.2294
 4518TIP3    H134969   0.201   2.537  14.860  0.2404 -0.2773  3.7305
 4518TIP3    H234970   0.178   2.686  14.846  0.8822 -0.3823  1.2512
 4519TIP3   OH234971   0.947   1.114  13.731  0.5687  0.1607  0.2074
 4519TIP3    H134972   0.993   1.078  13.655 -1.4003 -0.5173 -0.6946
 4519TIP3    H234973   0.915   1.199  13.702 -0.6330 -0.3215  0.0832
 4520TIP3   OH234974   2.845   4.788  11.809  0.3586  0.4065  0.0801
 4520TIP3    H134975   2.881   4.831  11.732  1.0946  0.4503  0.4519
 4520TIP3    H234976   2.753   4.817  11.812  0.2190  0.1018 -0.9910
 4521TIP3   OH234977   1.147   2.494  11.686  0.0438  0.2860  0.4545
 4521TIP3    H134978   1.052   2.498  11.673 -0.2130  2.3847  2.7350
 4521TIP3    H234979   1.159   2.476  11.779  1.9035 -1.0563 -0.0064
 4522TIP3   OH234980   1.517   0.428   0.187 -0.6359  0.1713 -0.5309
 4522TIP3    H134981   1.572   0.451   0.112 -1.4317  1.4905 -0.7330
 4522TIP3    H234982   1.445   0.378   0.148 -0.2061 -0.5254 -0.4292
 4523TIP3   OH234983   0.172   0.397   3.667  0.9927 -0.6833  0.1057
 4523TIP3    H134984   0.179   0.321   3.725 -0.7091 -1.0260 -0.1139
 4523TIP3    H234985   0.168   0.359   3.579 -0.8967 -0.4142  0.0587
 4524TIP3   OH234986   2.068   4.595  12.783 -0.1698 -0.1656  0.0355
 4524TIP3    H134987   2.058   4.604  12.688 -1.2557  0.9322  0.2473
 4524TIP3    H234988   2.129   4.664  12.808 -0.8403  0.3429  0.2957
 4525TIP3   OH234989   2.330   4.418  11.340  0.4242  0.2766 -0.1599
 4525TIP3    H134990   2.347   4.325  11.325  1.1343  0.2763  0.6128
 4525TIP3    H234991   2.408   4.462  11.308  0.1351  0.6027 -0.4214
 4526TIP3   OH234992   4.112   5.934  16.901  0.1504 -0.3239 -0.0458
 4526TIP3    H134993   4.155   6.011  16.866  2.9988 -0.8561  2.0705
 4526TIP3    H234994   4.058   5.967  16.974 -0.1936 -0.1081 -0.3932
 4527TIP3   OH234995   5.302   6.362  12.287  0.0322  0.5953 -0.0563
 4527TIP3    H134996   5.381   6.309  12.299 -0.4346 -0.5488 -1.8853
 4527TIP3    H234997   5.333   6.442  12.246  0.2172 -0.0110 -1.1288
 4528TIP3   OH234998   5.938   2.277  12.759 -0.0841  0.4302 -0.2760
 4528TIP3    H134999   5.948   2.267  12.853 -1.2389 -0.6320 -0.2560
 4528TIP3    H235000   5.987   2.204  12.721 -0.1647  0.4765 -0.4749
 4529TIP3   OH235001   0.038   0.715  14.432  0.1225 -0.2177 -0.5624
 4529TIP3    H135002   0.014   0.634  14.476  0.0168 -0.6600 -1.4255
 4529TIP3    H235003   0.021   0.783  14.497 -1.9239 -0.6665 -0.5943
 4530TIP3   OH235004   5.359   3.511   2.855  0.3005  0.6732 -0.0607
 4530TIP3    H135005   5.289   3.499   2.919  0.2459 -0.1232 -0.2615
 4530TIP3    H235006   5.400   3.424   2.848  0.8509  0.9636 -0.4679
 4531TIP3   OH235007   5.792   4.352   3.225 -0.5108  0.1643  0.2874
 4531TIP3    H135008   5.825   4.296   3.295  0.0537 -0.9198 -0.8197
 4531TIP3    H235009   5.722   4.301   3.185  0.5248 -0.1079 -1.2343
 4532TIP3   OH235010   3.011   6.747   5.292  0.6494 -0.0082  0.0252
 4532TIP3    H135011   2.960   6.704   5.223 -0.9320  1.1055  0.4973
 4532TIP3    H235012   2.958   6.739   5.370  2.1487 -0.6790  1.0105
 4533TIP3   OH235013   4.046   2.429   2.092  0.2580  0.0144  0.1553
 4533TIP3    H135014   4.098   2.362   2.047 -0.9979  0.4891 -2.1006
 4533TIP3    H235015   4.087   2.438   2.178  1.6013 -2.2854 -0.1954
 4534TIP3   OH235016   6.638   0.727   4.329  0.1340  0.0490  0.2913
 4534TIP3    H135017   6.706   0.777   4.374 -0.1693  1.4500 -0.7678
 4534TIP3    H235018   6.556   0.765   4.360 -0.1351 -0.7210  0.5295
 4535TIP3   OH235019   1.119   6.695  15.103 -0.2728 -0.2867 -0.0649
 4535TIP3    H135020   1.051   6.710  15.037  1.0377 -1.7618 -1.8011
 4535TIP3    H235021   1.167   6.777  15.107 -0.9218  0.1084 -0.2942
 4536TIP3   OH235022   6.666   0.490   1.235 -0.0090  0.0010  0.8855
 4536TIP3    H135023   6.632   0.401   1.245 -1.3131  0.3928  0.0473
 4536TIP3    H235024   6.741   0.480   1.177 -1.2400 -0.3411 -0.6944
 4537TIP3   OH235025   2.311   3.923  11.978  0.2276  0.2617  0.0775
 4537TIP3    H135026   2.390   3.973  12.000  0.9222 -0.8598  0.1715
 4537TIP3    H235027   2.255   3.986  11.932  1.1273  1.0976  0.1107
 4538TIP3   OH235028   3.630   1.873  11.507  0.3435  0.0772 -0.4619
 4538TIP3    H135029   3.661   1.787  11.536 -1.2402 -0.1842  0.4836
 4538TIP3    H235030   3.685   1.935  11.555  0.1656 -0.3882  0.3583
 4539TIP3   OH235031   0.854   2.814   2.427  0.0442  0.3239 -0.5258
 4539TIP3    H135032   0.862   2.864   2.508 -1.8475 -0.8613  0.4324
 4539TIP3    H235033   0.793   2.743   2.448  0.8014 -0.9714 -2.5304
 4540TIP3   OH235034   1.384   2.867  14.136  0.3297 -0.2100  0.5974
 4540TIP3    H135035   1.306   2.878  14.190  1.0260  1.6280  1.2769
 4540TIP3    H235036   1.429   2.791  14.173 -0.6432 -0.6752  0.8252
 4541TIP3   OH235037   1.257   1.508   4.376  0.2466  0.0781  0.6646
 4541TIP3    H135038   1.327   1.566   4.344 -0.8388  1.1088  0.1125
 4541TIP3    H235039   1.180   1.535   4.326 -0.5038 -1.1673  1.1554
 4542TIP3   OH235040   6.737   2.413  13.715  0.1244 -0.1203 -0.4880
 4542TIP3    H135041   6.660   2.392  13.661  0.5826 -0.2133 -1.1032
 4542TIP3    H235042   6.702   2.421  13.804 -0.4657 -1.0244 -0.6303
 4543TIP3   OH235043   1.637   6.403   6.060 -0.2621  0.2187 -0.1072
 4543TIP3    H135044   1.684   6.361   6.132  1.8959  0.2825 -1.4475
 4543TIP3    H235045   1.577   6.336   6.029 -1.4033  0.2657  1.8817
 4544TIP3   OH235046   2.321   5.283   5.678 -0.6390 -0.7822 -0.9115
 4544TIP3    H135047   2.340   5.313   5.589 -0.0923 -0.0377 -0.5466
 4544TIP3    H235048   2.234   5.317   5.697  0.2205  1.1031 -0.2761
 4545TIP3   OH235049   5.254   2.272  13.989 -0.4689  0.0185  0.4054
 4545TIP3    H135050   5.198   2.325  13.933  0.7570 -2.1598 -3.0227
 4545TIP3    H235051   5.317   2.334  14.025 -0.5089  1.2647 -1.6200
 4546TIP3   OH235052   0.447   2.107   3.357 -0.0512 -0.0170  0.1116
 4546TIP3    H135053   0.526   2.104   3.303  0.3634 -0.0301  0.7201
 4546TIP3    H235054   0.426   2.015   3.374 -0.1941 -0.0134 -0.0416
 4547TIP3   OH235055   5.058   1.155   6.155  0.5684 -0.0549 -0.0527
 4547TIP3    H135056   5.144   1.119   6.176  0.6569  0.5935  0.7300
 4547TIP3    H235057   5.062   1.174   6.062  1.7776  1.2961  0.2554
 4548TIP3   OH235058   0.789   2.111   4.146  0.2676 -0.6249  0.4359
 4548TIP3    H135059   0.826   2.199   4.159 -0.1557 -0.5377  1.0704
 4548TIP3    H235060   0.850   2.069   4.085  0.8376 -0.1193  0.6416
 4549TIP3   OH235061   6.329   2.898  12.655  0.3485  0.1447  0.5501
 4549TIP3    H135062   6.250   2.946  12.680  1.0269  1.3679  0.3556
 4549TIP3    H235063   6.350   2.929  12.568 -0.0957 -1.6831 -0.2385
 4550TIP3   OH235064   4.668   1.166   1.101  0.0409 -0.4673 -0.7313
 4550TIP3    H135065   4.640   1.075   1.103 -1.3851 -0.0396 -0.6673
 4550TIP3    H235066   4.628   1.202   1.023  0.0385  0.2790 -0.3893
 4551TIP3   OH235067   4.709   1.302  14.017  0.2450  0.7148 -0.4362
 4551TIP3    H135068   4.615   1.285  14.028  0.3243  1.4744  1.6391
 4551TIP3    H235069   4.722   1.390  14.053  2.0110  0.0057  0.7109
 4552TIP3   OH235070   5.023   0.227  12.185 -0.1308  0.0727 -0.2161
 4552TIP3    H135071   5.100   0.171  12.172 -1.2165 -1.1234 -1.6304
 4552TIP3    H235072   5.056   0.316  12.175  1.1796 -0.4072 -0.2481
 4553TIP3   OH235073   4.238   5.876  14.326 -1.0638  0.5608  0.3467
 4553TIP3    H135074   4.200   5.948  14.376 -1.3425  0.0565  0.8704
 4553TIP3    H235075   4.332   5.892  14.328 -1.1065  0.7852  0.6510
 4554TIP3   OH235076   1.490   1.471   2.504 -0.3108  0.2979  0.0090
 4554TIP3    H135077   1.532   1.479   2.418  1.1854  1.3220  0.7951
 4554TIP3    H235078   1.560   1.493   2.566 -2.6564  4.6176  1.2895
 4555TIP3   OH235079   4.262   1.084  12.570 -0.2661  0.3173  0.6547
 4555TIP3    H135080   4.299   1.157  12.620 -1.3503  2.2173 -1.2488
 4555TIP3    H235081   4.339   1.033  12.542  0.8680  3.0418 -1.4756
 4556TIP3   OH235082   3.603   4.706   6.108 -0.6009  0.0202  0.0726
 4556TIP3    H135083   3.524   4.671   6.149  0.9809 -3.6874  0.1267
 4556TIP3    H235084   3.668   4.706   6.178  0.6913 -1.4154 -1.0798
 4557TIP3   OH235085   4.966   6.288   5.491  0.0914 -0.1518  0.3377
 4557TIP3    H135086   4.954   6.377   5.458  0.3144 -0.6441 -1.0938
 4557TIP3    H235087   4.981   6.299   5.585 -1.6019  1.1983  0.4748
 4558TIP3   OH235088   2.518   3.103  15.220 -0.0834 -0.1012  0.3438
 4558TIP3    H135089   2.500   3.116  15.313 -1.3401 -1.4267  0.2924
 4558TIP3    H235090   2.441   3.137  15.176  0.0183 -0.5435 -0.1671
 4559TIP3   OH235091   1.059   5.249   1.619  0.1165  0.1264 -0.5125
 4559TIP3    H135092   1.011   5.202   1.687  1.0590 -0.1654 -0.0451
 4559TIP3    H235093   1.023   5.338   1.622  0.2340  0.1463  0.4479
 4560TIP3   OH235094   1.916   6.046   5.831  0.0061  0.4464  0.0255
 4560TIP3    H135095   1.898   5.953   5.847 -0.8779  0.6765  0.3933
 4560TIP3    H235096   1.925   6.084   5.918  0.1884  0.7426 -0.1215
 4561TIP3   OH235097   5.664   0.215   2.685 -0.7697 -0.0197  0.1913
 4561TIP3    H135098   5.642   0.125   2.663  0.2923  0.0793 -1.3675
 4561TIP3    H235099   5.612   0.235   2.762 -0.9142 -2.0074  0.6176
 4562TIP3   OH235100   6.269   4.075  14.075 -0.1557 -0.0414  0.4374
 4562TIP3    H135101   6.303   4.152  14.029  1.7952 -0.8832  0.4336
 4562TIP3    H235102   6.342   4.013  14.075 -1.4301 -1.5639  1.1977
 4563TIP3   OH235103   2.316   3.448   2.059  0.1147  0.0390  0.8232
 4563TIP3    H135104   2.412   3.443   2.058  0.1490  0.7398  0.7459
 4563TIP3    H235105   2.289   3.385   1.993  0.4488 -1.8245  2.4155
 4564TIP3   OH235106   1.229   5.507  13.756  0.2820  0.1783 -0.2861
 4564TIP3    H135107   1.144   5.531  13.791  0.9131  1.7893  0.1848
 4564TIP3    H235108   1.211   5.476  13.667 -1.2456 -3.2358  1.1130
 4565TIP3   OH235109   1.729   2.370   3.840  0.2789  0.0155 -0.0534
 4565TIP3    H135110   1.713   2.346   3.932 -0.4103 -1.5480 -0.5760
 4565TIP3    H235111   1.661   2.434   3.820 -0.4747 -0.7529  0.0723
 4566TIP3   OH235112   6.477   2.527  15.562 -0.2407 -0.1765 -0.0549
 4566TIP3    H135113   6.537   2.453  15.573  0.9979  0.7350 -0.5273
 4566TIP3    H235114   6.503   2.567  15.479 -0.9837  0.7186  0.1289
 4567TIP3   OH235115   4.453   4.667  12.071 -0.0714  0.9542 -0.6580
 4567TIP3    H135116   4.465   4.668  11.976 -1.7373  0.3948 -0.9097
 4567TIP3    H235117   4.438   4.575  12.092 -0.4247  1.1643  0.0305
 4568TIP3   OH235118   1.415   4.917   2.888 -0.0691 -0.1774 -0.1765
 4568TIP3    H135119   1.354   4.962   2.830  0.1884  0.5356  0.1067
 4568TIP3    H235120   1.380   4.828   2.895 -0.7858  0.0796 -0.4307
 4569TIP3   OH235121   2.796   1.268  16.314 -0.6666 -0.0409  0.2536
 4569TIP3    H135122   2.758   1.330  16.376 -0.4029  2.2318 -1.7996
 4569TIP3    H235123   2.889   1.266  16.336 -0.3124  1.8967 -0.9773
 4570TIP3   OH235124   0.470   0.124  11.142  0.4256 -0.1293  0.3802
 4570TIP3    H135125   0.394   0.076  11.108  1.0389 -0.1602 -1.0111
 4570TIP3    H235126   0.503   0.069  11.212 -0.8217 -0.1265  0.9850
 4571TIP3   OH235127   0.137   0.126  15.130 -0.1117 -0.0821  0.0748
 4571TIP3    H135128   0.105   0.198  15.184  0.7931 -0.7369  1.4913
 4571TIP3    H235129   0.227   0.114  15.158  0.6726  0.1888 -2.2453
 4572TIP3   OH235130   6.360   6.555   3.508 -0.3142  0.5724 -0.4421
 4572TIP3    H135131   6.323   6.641   3.529  0.3744  0.7332  0.1145
 4572TIP3    H235132   6.310   6.526   3.432 -0.3260  1.6237 -0.8542
 4573TIP3   OH235133   5.768   0.033  10.956 -0.2925  0.4888  0.0976
 4573TIP3    H135134   5.713   0.025  10.878  0.7111 -0.4888 -0.5255
 4573TIP3    H235135   5.857   0.031  10.922  0.1740 -1.4538  1.3906
 4574TIP3   OH235136   1.313   5.599   2.505 -0.0149  0.6411 -0.1177
 4574TIP3    H135137   1.356   5.582   2.422 -0.7151  0.1857 -0.3856
 4574TIP3    H235138   1.371   5.561   2.571  0.2841  0.5522 -0.4359
 4575TIP3   OH235139   4.112   1.951   1.380  0.3067 -0.6537 -0.1749
 4575TIP3    H135140   4.022   1.966   1.411 -0.0644 -0.0651 -1.5238
 4575TIP3    H235141   4.104   1.875   1.322  0.4065  0.3505 -1.5157
 4576TIP3   OH235142   1.191   5.320  14.237  0.5031  0.4850  0.1519
 4576TIP3    H135143   1.134   5.249  14.207  0.4511  0.3365  0.6098
 4576TIP3    H235144   1.278   5.295  14.206  0.4359  0.3675  0.0582
 4577TIP3   OH235145   4.512   4.745  13.764  0.2453 -0.1115 -0.3844
 4577TIP3    H135146   4.445   4.733  13.831 -3.1431 -2.4117 -3.9069
 4577TIP3    H235147   4.571   4.671  13.774 -0.3582 -0.5514 -0.0710
 4578TIP3   OH235148   1.656   1.029   2.961  0.0136  0.2072  0.3371
 4578TIP3    H135149   1.611   1.048   2.878 -0.7313  0.1588  0.7256
 4578TIP3    H235150   1.700   0.946   2.946 -0.2726  0.1065  0.0453
 4579TIP3   OH235151   2.273   0.509   1.461 -0.4061 -0.0680 -0.2534
 4579TIP3    H135152   2.326   0.565   1.518  0.8285  0.8091 -2.1818
 4579TIP3    H235153   2.233   0.445   1.520 -0.2836  1.6434  1.7488
 4580TIP3   OH235154   2.724   0.261  14.211  0.1057  0.4825 -0.6946
 4580TIP3    H135155   2.779   0.241  14.135  1.2901  0.5852  0.1134
 4580TIP3    H235156   2.698   0.175  14.245  1.4589  0.3757  0.1134
 4581TIP3   OH235157   4.855   3.155   3.309 -0.2477  0.7385  0.6539
 4581TIP3    H135158   4.825   3.095   3.377 -0.5342  1.4583  1.1693
 4581TIP3    H235159   4.780   3.213   3.294 -0.6836 -0.2806 -1.2732
 4582TIP3   OH235160   6.513   5.451  13.325  0.8867 -0.0780  0.3677
 4582TIP3    H135161   6.463   5.524  13.288 -0.8111 -1.4210 -0.0904
 4582TIP3    H235162   6.453   5.411  13.388  2.7389  0.4624  2.5395
 4583TIP3   OH235163   2.430   5.995   4.633  0.0637 -0.2273 -0.3393
 4583TIP3    H135164   2.420   5.919   4.577  0.7449  0.9551 -2.1164
 4583TIP3    H235165   2.347   6.043   4.624  0.2112  0.0146 -0.4296
 4584TIP3   OH235166   0.360   4.337  15.909  0.1072 -0.4017  0.3278
 4584TIP3    H135167   0.324   4.387  15.982  1.0572  0.4564  0.2190
 4584TIP3    H235168   0.309   4.256  15.908 -0.3078 -0.1666  1.5631
 4585TIP3   OH235169   3.850   3.888   2.743 -0.2056 -0.4077  0.3341
 4585TIP3    H135170   3.888   3.846   2.820  1.2404 -2.1243 -1.2571
 4585TIP3    H235171   3.925   3.925   2.697 -0.9814  0.0864 -0.5506
 4586TIP3   OH235172   4.479   4.526  16.086 -0.1092  0.1306 -0.1864
 4586TIP3    H135173   4.501   4.507  16.177 -0.0501  1.3262  0.0550
 4586TIP3    H235174   4.507   4.448  16.038 -0.6292 -0.7417  0.8820
 4587TIP3   OH235175   0.287   2.846   0.471 -0.5270 -0.6649  0.0028
 4587TIP3    H135176   0.283   2.872   0.563 -0.2893  0.2042 -0.2212
 4587TIP3    H235177   0.201   2.808   0.452 -0.1252 -2.0748  0.9299
 4588TIP3   OH235178   5.682   4.642  13.801 -0.5817  0.0685  0.5964
 4588TIP3    H135179   5.646   4.684  13.879 -0.4908  0.2641  0.5334
 4588TIP3    H235180   5.724   4.713  13.753 -1.9118  0.2052 -0.3554
 4589TIP3   OH235181   1.604   5.076   3.313 -0.1693  0.1803  0.3345
 4589TIP3    H135182   1.526   5.110   3.355  0.9670  0.7452  2.0820
 4589TIP3    H235183   1.642   5.150   3.266  0.0183  0.2459  0.5872
 4590TIP3   OH235184   5.579   0.760  13.442  0.5548 -0.3710  0.1158
 4590TIP3    H135185   5.664   0.726  13.468  1.0842  0.1540 -0.9047
 4590TIP3    H235186   5.599   0.830  13.379 -0.5278  1.1495  1.4069
 4591TIP3   OH235187   2.234   2.444   5.396 -0.2489  0.0279 -0.6189
 4591TIP3    H135188   2.320   2.480   5.373  0.7476 -0.6930  1.8966
 4591TIP3    H235189   2.220   2.373   5.333  0.8402  0.3762 -1.2610
 4592TIP3   OH235190   6.351   1.832  13.677  0.4281  0.2857  0.2382
 4592TIP3    H135191   6.345   1.748  13.631 -0.4474  0.9517 -0.9161
 4592TIP3    H235192   6.262   1.867  13.673  0.3035  0.2882  2.6264
 4593TIP3   OH235193   2.826   3.758  12.353 -0.1286 -0.0590  0.0386
 4593TIP3    H135194   2.856   3.756  12.263  0.5026  1.5142  0.2105
 4593TIP3    H235195   2.761   3.828  12.356 -1.8980 -1.6603  0.2802
 4594TIP3   OH235196   3.340   5.813  12.327  0.3790 -0.4279  0.1506
 4594TIP3    H135197   3.406   5.752  12.295  0.6722 -0.3620  0.6277
 4594TIP3    H235198   3.257   5.772  12.303  0.5874  0.0519 -1.4925
 4595TIP3   OH235199   3.427   6.427   3.067  0.2212 -0.2774  0.0862
 4595TIP3    H135200   3.471   6.346   3.093  1.1976  0.4000  0.5853
 4595TIP3    H235201   3.415   6.418   2.972 -0.1557 -1.2256  0.2194
 4596TIP3   OH235202   6.029   4.815  15.179  0.2076  0.1688  0.7795
 4596TIP3    H135203   6.016   4.888  15.119  0.6808  1.6525  2.4439
 4596TIP3    H235204   6.120   4.789  15.166  0.0647 -0.0530  0.2488
 4597TIP3   OH235205   4.007   4.852  17.220  0.5711 -0.3064 -0.3787
 4597TIP3    H135206   4.087   4.834  17.171  1.0480  0.1836  0.2030
 4597TIP3    H235207   3.947   4.782  17.196  1.5350 -1.2599 -0.0450
 4598TIP3   OH235208   2.962   2.639   2.702  0.1963  0.1241  0.1742
 4598TIP3    H135209   2.942   2.628   2.795 -0.4739  0.3140  0.0529
 4598TIP3    H235210   2.878   2.657   2.661  0.4580 -0.2051 -0.5111
 4599TIP3   OH235211   0.868   3.773  16.263 -0.6187 -0.2805  0.0133
 4599TIP3    H135212   0.885   3.765  16.169  1.7999  0.8722  0.3229
 4599TIP3    H235213   0.953   3.754  16.304 -1.4471  0.1110  1.9240
 4600TIP3   OH235214   0.838   2.593  16.911 -0.2424 -0.3981 -0.1356
 4600TIP3    H135215   0.857   2.550  16.828  0.6695 -1.6595  0.6905
 4600TIP3    H235216   0.743   2.593  16.917 -0.2957 -0.8698 -0.8913
 4601TIP3   OH235217   3.767   5.348   1.351 -0.1571  0.1476  0.7097
 4601TIP3    H135218   3.852   5.326   1.312 -0.3892  1.2399 -0.4662
 4601TIP3    H235219   3.703   5.300   1.297 -0.4255  1.0160  0.2502
 4602TIP3   OH235220   0.546   0.505  13.354 -0.1835 -0.3455 -0.4632
 4602TIP3    H135221   0.457   0.472  13.367 -0.7572  0.5534 -1.8959
 4602TIP3    H235222   0.584   0.444  13.291 -0.1768 -0.0863 -0.7109
 4603TIP3   OH235223   4.899   5.822   2.964  0.0748  0.6030  0.3233
 4603TIP3    H135224   4.906   5.844   2.871  0.3398 -1.5356 -0.1892
 4603TIP3    H235225   4.988   5.827   2.997  0.2243 -0.2645  0.0635
 4604TIP3   OH235226   3.891   6.512  11.845  0.2428 -0.1360  0.5745
 4604TIP3    H135227   3.801   6.481  11.838  0.4958 -0.6423 -0.4674
 4604TIP3    H235228   3.944   6.441  11.809  0.8740  1.2931 -1.4282
 4605TIP3   OH235229   1.096   2.656  16.530 -0.3890 -0.0587  0.4246
 4605TIP3    H135230   1.188   2.631  16.533 -0.0981  0.9126 -0.1174
 4605TIP3    H235231   1.088   2.727  16.593 -0.5280  0.6088 -0.3464
 4606TIP3   OH235232   2.836   5.035   1.241 -0.4251 -0.1960  0.2166
 4606TIP3    H135233   2.875   5.106   1.190 -0.5025 -0.0784  0.3197
 4606TIP3    H235234   2.860   5.055   1.332 -1.9905  0.6918  0.4372
 4607TIP3   OH235235   0.484   5.777  15.475 -0.0021 -0.1323  0.1583
 4607TIP3    H135236   0.479   5.837  15.549  2.0253 -1.3275  1.3386
 4607TIP3    H235237   0.572   5.790  15.439 -0.2204 -1.0363 -0.7546
 4608TIP3   OH235238   4.765   3.317   5.997 -0.1811 -0.0316 -0.3700
 4608TIP3    H135239   4.768   3.388   5.933 -0.9190 -0.4548 -0.8763
 4608TIP3    H235240   4.711   3.352   6.069 -0.9741 -0.2673 -0.8492
 4609TIP3   OH235241   5.323   0.244  16.200 -0.2279 -0.1564 -0.7255
 4609TIP3    H135242   5.282   0.330  16.190 -0.3177 -0.1072  0.0233
 4609TIP3    H235243   5.324   0.207  16.112  1.0569  1.1704 -1.2890
 4610TIP3   OH235244   2.178   1.287   5.865 -0.2426 -0.1855  0.1851
 4610TIP3    H135245   2.084   1.272   5.874 -0.3768  0.4025 -0.1768
 4610TIP3    H235246   2.216   1.199   5.861 -0.7417 -0.4290  0.6690
 4611TIP3   OH235247   3.728   2.518  12.295  0.1166 -0.6644  0.4950
 4611TIP3    H135248   3.728   2.612  12.278  1.0720 -1.1291 -2.2004
 4611TIP3    H235249   3.642   2.501  12.334 -0.9237  0.9788 -1.0136
 4612TIP3   OH235250   1.736   3.246  15.017 -0.0419 -0.6052 -0.1598
 4612TIP3    H135251   1.708   3.313  15.079  2.2342  0.2297  0.0216
 4612TIP3    H235252   1.682   3.261  14.940 -1.0884  0.0151  0.6741
 4613TIP3   OH235253   2.058   6.200   3.555  0.1417 -0.6613  0.1907
 4613TIP3    H135254   2.109   6.227   3.479  0.6635 -0.4150  0.6262
 4613TIP3    H235255   1.986   6.263   3.560  0.3869 -0.3806  0.1930
 4614TIP3   OH235256   4.331   1.076   0.986 -0.8108  0.1497  0.3794
 4614TIP3    H135257   4.261   1.082   0.921  0.9363 -1.8635 -1.7700
 4614TIP3    H235258   4.349   1.167   1.010 -3.3058  0.7714  0.0535
 4615TIP3   OH235259   2.330   4.069   5.657 -0.0162 -0.0667 -0.6580
 4615TIP3    H135260   2.356   4.161   5.645  2.9555 -0.5875  1.3049
 4615TIP3    H235261   2.268   4.071   5.729  0.0433  0.4143 -0.6166
 4616TIP3   OH235262   3.064   6.188  16.367 -0.2324  0.2649  0.2742
 4616TIP3    H135263   3.065   6.279  16.337  1.9930 -0.0400 -0.6396
 4616TIP3    H235264   2.974   6.160  16.352 -0.9942  2.3450  0.7127
 4617TIP3   OH235265   3.737   4.746  16.851  0.0556  0.3284 -0.1400
 4617TIP3    H135266   3.711   4.796  16.928  0.5226 -0.1237  0.3212
 4617TIP3    H235267   3.768   4.812  16.789 -1.5625  0.7992 -0.4487
 4618TIP3   OH235268   4.181   4.663  14.217 -0.6509 -0.1317  0.3144
 4618TIP3    H135269   4.113   4.608  14.177 -1.7335 -0.3825  2.4039
 4618TIP3    H235270   4.161   4.661  14.310  1.9309  0.2675  0.9131
 4619TIP3   OH235271   5.980   0.830  15.296 -0.2532  0.0412 -0.7478
 4619TIP3    H135272   6.002   0.742  15.267 -0.1377 -0.1861  0.0103
 4619TIP3    H235273   5.947   0.874  15.218  1.8358  0.0323 -1.6719
 4620TIP3   OH235274   5.192   3.677  10.981 -0.0875  0.3148  0.7756
 4620TIP3    H135275   5.182   3.678  10.886 -0.5285  1.1700  0.8238
 4620TIP3    H235276   5.273   3.629  10.997 -0.3882 -0.4596  0.0049
 4621TIP3   OH235277   3.000   0.069   1.163 -0.7460 -0.1358  0.0478
 4621TIP3    H135278   3.066   0.002   1.148  1.2555  1.9190 -0.7145
 4621TIP3    H235279   2.975   0.099   1.075 -2.5760 -0.7436  0.3330
 4622TIP3   OH235280   6.274   5.212   2.189 -0.1467 -0.2396  0.6506
 4622TIP3    H135281   6.183   5.206   2.161  0.2451  0.3396 -0.7607
 4622TIP3    H235282   6.304   5.297   2.158  0.9821 -0.5763  0.7894
 4623TIP3   OH235283   6.548   5.648  15.516  0.8045  0.0651 -0.2333
 4623TIP3    H135284   6.537   5.569  15.568 -2.1122 -0.3830 -1.4610
 4623TIP3    H235285   6.502   5.716  15.564  2.4104  0.8273  0.2832
 4624TIP3   OH235286   2.390   1.407  14.479 -0.6034 -0.1454 -0.4990
 4624TIP3    H135287   2.478   1.391  14.445 -0.3142 -2.4343  1.2958
 4624TIP3    H235288   2.371   1.497  14.451  2.1169  0.2493 -1.2879
 4625TIP3   OH235289   1.924   3.798  16.448  0.1222  0.2325  0.0787
 4625TIP3    H135290   1.997   3.776  16.505 -0.7674  0.3495  1.3015
 4625TIP3    H235291   1.869   3.719  16.449 -0.2655  0.4991 -0.0111
 4626TIP3   OH235292   1.982   5.740   5.011 -0.1686 -0.1634 -0.4375
 4626TIP3    H135293   2.006   5.665   4.955  2.0657  0.8198 -0.8676
 4626TIP3    H235294   2.022   5.719   5.096 -1.8774 -0.7213  0.2482
 4627TIP3   OH235295   1.152   1.253  16.450 -0.0774 -0.6034  0.8724
 4627TIP3    H135296   1.206   1.331  16.436 -1.3570  0.4780  1.7606
 4627TIP3    H235297   1.212   1.179  16.439  1.0935  0.4990 -0.2799
 4628TIP3   OH235298   0.179   6.142   0.126 -0.2008 -0.3519  0.2731
 4628TIP3    H135299   0.157   6.132   0.218 -0.9687  1.2445  0.2707
 4628TIP3    H235300   0.101   6.114   0.079 -0.5278  0.7315  0.1590
 4629TIP3   OH235301   2.528   2.544   4.245 -0.3004 -0.0502  0.4320
 4629TIP3    H135302   2.508   2.534   4.338 -0.2756  1.7016  0.6530
 4629TIP3    H235303   2.566   2.632   4.238  0.2517 -0.3866 -1.1447
 4630TIP3   OH235304   1.943   0.154  13.580 -0.2702 -0.4323 -0.1715
 4630TIP3    H135305   1.874   0.157  13.646  0.9558 -1.6087  1.2173
 4630TIP3    H235306   1.959   0.061  13.566  1.4054 -0.1863 -0.0464
 4631TIP3   OH235307   0.025   1.030  12.803  0.0980  0.5044  0.2743
 4631TIP3    H135308   0.046   1.098  12.739  2.9687 -0.6397 -0.0627
 4631TIP3    H235309   0.100   0.971  12.801 -2.1182 -2.4503  0.8837
 4632TIP3   OH235310   1.565   1.201  13.843  0.6313 -0.6415  0.3206
 4632TIP3    H135311   1.521   1.236  13.920  0.0183 -2.1854  0.7031
 4632TIP3    H235312   1.506   1.134  13.810  1.6787 -1.1967 -0.4771
 4633TIP3   OH235313   1.162   2.340  16.787  0.2465  0.0611 -0.3380
 4633TIP3    H135314   1.190   2.348  16.878  1.4648 -1.2174 -0.5903
 4633TIP3    H235315   1.105   2.416  16.773  1.4378  1.2253  0.9779
 4634TIP3   OH235316   0.084   4.442   4.490  0.1754  0.2002 -0.0750
 4634TIP3    H135317   0.053   4.410   4.405  1.3601  0.7742 -0.7302
 4634TIP3    H235318   0.013   4.420   4.551 -1.0926  0.5989 -1.3668
 4635TIP3   OH235319   1.114   1.431  12.874 -0.2109  0.7821 -0.5051
 4635TIP3    H135320   1.050   1.374  12.832  0.4421  1.0526 -1.8973
 4635TIP3    H235321   1.197   1.406  12.834  0.3892  1.1881  0.4969
 4636TIP3   OH235322   0.701   5.653  14.121  0.2058 -0.0201  0.0307
 4636TIP3    H135323   0.673   5.737  14.084 -0.1199 -0.0322  0.2508
 4636TIP3    H235324   0.790   5.641  14.087 -0.8035 -0.9671 -2.3576
 4637TIP3   OH235325   6.527   3.327  14.760 -0.5922 -0.2829 -0.2546
 4637TIP3    H135326   6.584   3.390  14.804 -1.0912  0.2721 -0.3919
 4637TIP3    H235327   6.564   3.317  14.672 -1.9750  1.7886 -1.1078
 4638TIP3   OH235328   4.888   5.303   6.059  0.3433 -0.4750  0.1966
 4638TIP3    H135329   4.910   5.395   6.075 -1.7365 -0.0219  0.7211
 4638TIP3    H235330   4.925   5.256   6.134  1.4850 -0.0864 -0.1127
 4639TIP3   OH235331   6.136   1.506   4.641  0.3190  0.1141  0.3688
 4639TIP3    H135332   6.123   1.598   4.662 -2.3092 -0.4264  1.3156
 4639TIP3    H235333   6.230   1.492   4.650  0.6828  2.5883  0.6490
 4640TIP3   OH235334   5.431   0.701   1.859 -0.1498  0.0458  0.3869
 4640TIP3    H135335   5.361   0.687   1.924 -0.4907  0.9835  0.2234
 4640TIP3    H235336   5.400   0.775   1.807  1.1540  0.7129  0.5584
 4641TIP3   OH235337   2.372   1.507  16.848  0.2531 -0.5283  0.0883
 4641TIP3    H135338   2.441   1.445  16.828 -0.3236 -1.6071  1.4283
 4641TIP3    H235339   2.304   1.456  16.891 -0.4919  0.9057  0.6776
 4642TIP3   OH235340   3.147   0.409  15.198  0.0940 -0.5403 -0.6068
 4642TIP3    H135341   3.174   0.346  15.131 -0.4645 -0.2459 -1.1227
 4642TIP3    H235342   3.058   0.383  15.221  1.2537 -2.3220  2.0614
 4643TIP3   OH235343   5.620   2.154  16.883  0.2854 -0.1009  0.1996
 4643TIP3    H135344   5.552   2.216  16.856  0.0820 -0.0294  0.8807
 4643TIP3    H235345   5.573   2.080  16.920  0.5742 -0.0792  0.6180
 4644TIP3   OH235346   4.659   4.434  13.245  0.0052 -0.0301 -0.2695
 4644TIP3    H135347   4.747   4.454  13.276  0.0634 -0.6230 -0.0481
 4644TIP3    H235348   4.671   4.406  13.154 -0.0544  0.7217 -0.5140
 4645TIP3   OH235349   1.594   1.889  15.599 -0.6458  0.3299  0.3749
 4645TIP3    H135350   1.618   1.961  15.541 -0.4521  1.3559  1.6900
 4645TIP3    H235351   1.511   1.915  15.637 -0.5005 -0.0613  0.9799
 4646TIP3   OH235352   3.885   2.760  17.071  0.8227  0.3074 -0.1582
 4646TIP3    H135353   3.887   2.852  17.044  1.4594  0.5168  0.5547
 4646TIP3    H235354   3.807   2.724  17.030  1.7220  0.6239 -2.1843
 4647TIP3   OH235355   1.191   5.157  16.441  0.2444  0.1355  0.2384
 4647TIP3    H135356   1.282   5.168  16.414  0.3589  0.2736  0.6660
 4647TIP3    H235357   1.155   5.092  16.381  0.3686  0.7602 -0.5203
 4648TIP3   OH235358   5.068   5.963   3.949 -0.4576 -0.0956  0.0831
 4648TIP3    H135359   5.081   6.004   4.035 -0.9825  0.0573  0.0924
 4648TIP3    H235360   5.139   5.998   3.895  0.6519 -1.1951  0.7995
 4649TIP3   OH235361   0.259   4.679   3.436  0.1440 -0.1582  0.1769
 4649TIP3    H135362   0.277   4.763   3.479 -0.7205  0.8040 -1.2733
 4649TIP3    H235363   0.343   4.633   3.436  1.0382  1.4393 -0.5317
 4650TIP3   OH235364   5.247   2.980   4.813 -0.2551  0.1707  0.5826
 4650TIP3    H135365   5.180   2.990   4.880  0.8848  0.0817  1.7447
 4650TIP3    H235366   5.201   2.997   4.731 -1.9761 -1.1612  1.2496
 4651TIP3   OH235367   4.325   2.985  13.280 -0.1476  0.2346 -0.1894
 4651TIP3    H135368   4.405   2.975  13.228 -1.1034 -1.1529 -1.4289
 4651TIP3    H235369   4.262   3.027  13.220 -0.6938  0.3149  0.4330
 4652TIP3   OH235370   6.112   1.146  16.880  0.2402  0.5820 -0.3838
 4652TIP3    H135371   6.082   1.130  16.791 -0.6474 -1.0414  0.1848
 4652TIP3    H235372   6.149   1.062  16.908  1.0857  1.2548  0.5585
 4653TIP3   OH235373   0.343   3.461   2.044 -0.4979 -0.4811  0.2930
 4653TIP3    H135374   0.349   3.399   1.972 -0.2461 -1.2999  1.0078
 4653TIP3    H235375   0.380   3.542   2.010 -1.4860 -0.5038 -0.8842
 4654TIP3   OH235376   5.387   1.317   4.135 -0.4435  0.0594 -0.1925
 4654TIP3    H135377   5.299   1.327   4.099 -0.8434  0.5322  0.8894
 4654TIP3    H235378   5.435   1.392   4.101  0.0222 -1.1076 -2.1565
 4655TIP3   OH235379   4.288   6.366   5.322  0.3739 -0.1978  0.5123
 4655TIP3    H135380   4.260   6.291   5.374  0.1498  0.4222  1.2939
 4655TIP3    H235381   4.351   6.412   5.378  0.5396  0.1700  0.0286
 4656TIP3   OH235382   2.329   1.467   4.537  0.0981  0.3674  0.5700
 4656TIP3    H135383   2.418   1.451   4.505 -0.2627  1.4311 -1.0226
 4656TIP3    H235384   2.274   1.407   4.488 -0.2173  0.6126  0.6186
 4657TIP3   OH235385   1.131   4.130   2.193 -0.5849 -0.0998  0.2221
 4657TIP3    H135386   1.217   4.167   2.175 -0.7129  0.2212  0.2566
 4657TIP3    H235387   1.111   4.157   2.282 -1.2359  0.8599 -0.1985
 4658TIP3   OH235388   3.996   3.103   2.662  0.1175 -0.2385  0.2711
 4658TIP3    H135389   3.929   3.138   2.721 -0.4570 -0.9377  0.0372
 4658TIP3    H235390   4.076   3.105   2.715  0.6059  3.5411 -0.4681
 4659TIP3   OH235391   2.397   4.507  15.754  0.5575  0.4693  0.1106
 4659TIP3    H135392   2.448   4.581  15.722  1.6299 -1.2332 -2.2587
 4659TIP3    H235393   2.350   4.474  15.677 -0.6771 -0.7091  1.3216
 4660TIP3   OH235394   2.653   2.284  15.491 -0.3575 -0.2201  0.1321
 4660TIP3    H135395   2.732   2.232  15.480  0.1614  0.7353 -0.6847
 4660TIP3    H235396   2.644   2.294  15.586  0.6000 -0.1561  0.2131
 4661TIP3   OH235397   2.310   2.355  11.198  0.2147  0.2083  0.3335
 4661TIP3    H135398   2.320   2.365  11.103 -0.2033  1.4419  0.4137
 4661TIP3    H235399   2.224   2.313  11.208  1.1409 -1.8355  0.0893
 4662TIP3   OH235400   1.906   3.366  15.833  0.4994 -0.8246 -0.0278
 4662TIP3    H135401   1.887   3.301  15.901  1.3784 -0.7504  0.3017
 4662TIP3    H235402   1.942   3.440  15.881 -3.4069  1.2123 -0.0349
 4663TIP3   OH235403   2.215   3.661  12.422 -0.0942  0.5339  0.0999
 4663TIP3    H135404   2.202   3.689  12.331 -0.5110 -1.1606 -0.3747
 4663TIP3    H235405   2.160   3.583  12.432  2.5439 -1.3437  0.7757
 4664TIP3   OH235406   5.332   5.176   2.898 -0.3237  0.3992  0.4966
 4664TIP3    H135407   5.273   5.212   2.965 -2.5567 -0.5359 -0.9212
 4664TIP3    H235408   5.380   5.252   2.865 -0.6228  1.1566  1.7617
 4665TIP3   OH235409   4.016   0.989  12.012  0.2815 -0.1817 -0.1250
 4665TIP3    H135410   3.979   0.906  12.044 -1.0836  0.2585 -0.5206
 4665TIP3    H235411   4.044   0.969  11.923  1.6658 -0.7001  0.4051
 4666TIP3   OH235412   4.205   1.323   5.143  0.5709 -0.4110  0.3293
 4666TIP3    H135413   4.236   1.304   5.232 -0.3696 -3.2109  0.0907
 4666TIP3    H235414   4.149   1.249   5.120 -0.4880  1.0512 -2.0096
 4667TIP3   OH235415   5.422   3.294  12.210  0.8341 -0.0649 -0.1921
 4667TIP3    H135416   5.517   3.310  12.211  1.2588 -2.2984 -1.4874
 4667TIP3    H235417   5.404   3.263  12.121 -1.4896  2.3343 -0.6032
 4668TIP3   OH235418   3.086   4.029  13.878 -0.4711  0.2389  0.0927
 4668TIP3    H135419   3.040   3.974  13.815 -0.8308  0.2089  0.3785
 4668TIP3    H235420   3.176   3.998  13.876 -0.9313 -1.2402  1.2052
 4669TIP3   OH235421   4.801   2.362   2.367 -0.6414 -0.4108  0.1117
 4669TIP3    H135422   4.789   2.434   2.304  0.5754 -0.4425 -0.1597
 4669TIP3    H235423   4.773   2.399   2.451  0.3464  0.5129  0.0441
 4670TIP3   OH235424   1.830   5.360  15.765 -0.7585  0.7246  0.1103
 4670TIP3    H135425   1.801   5.451  15.761 -1.7808  0.5217  2.5015
 4670TIP3    H235426   1.750   5.309  15.748 -0.2852  0.2653 -0.7434
 4671TIP3   OH235427   3.544   4.829  12.286 -0.2267  0.1728  0.7745
 4671TIP3    H135428   3.582   4.897  12.342 -0.9237  1.1270  0.1099
 4671TIP3    H235429   3.610   4.812  12.219 -0.4202  0.8727  0.4011
 4672TIP3   OH235430   0.505   6.429  16.914  0.4070  0.0844  0.2532
 4672TIP3    H135431   0.515   6.448  16.821  2.1714 -0.2020  0.3865
 4672TIP3    H235432   0.446   6.353  16.917 -1.8491  1.7285 -0.4992
 4673TIP3   OH235433   0.802   4.768   5.272  0.2346 -0.0122 -0.9234
 4673TIP3    H135434   0.729   4.784   5.211  0.4528 -0.0160 -1.1846
 4673TIP3    H235435   0.873   4.822   5.238  0.8560 -1.2278 -1.5819
 4674TIP3   OH235436   1.412   6.491  16.266  0.2232  0.1845 -0.0353
 4674TIP3    H135437   1.505   6.508  16.253  0.0469  0.2995 -1.1999
 4674TIP3    H235438   1.368   6.548  16.203 -0.6776  0.9092  1.2287
 4675TIP3   OH235439   5.943   0.389  11.491 -0.1965 -0.4943  0.3009
 4675TIP3    H135440   6.038   0.385  11.496 -0.2814 -2.2465  0.7088
 4675TIP3    H235441   5.925   0.463  11.433  1.4215 -0.6687 -0.4348
 4676TIP3   OH235442   0.091   4.980  11.783  0.3901  0.2681 -0.1301
 4676TIP3    H135443   0.055   4.903  11.740  1.0081 -0.1773  0.1440
 4676TIP3    H235444   0.124   4.948  11.867 -0.4936  1.0629  0.5370
 4677TIP3   OH235445   0.234   2.670   2.018  0.4941  0.6677  0.1473
 4677TIP3    H135446   0.249   2.719   2.100  0.1391 -1.4694  1.5250
 4677TIP3    H235447   0.211   2.582   2.047  0.4561 -0.1486 -2.2900
 4678TIP3   OH235448   1.330   3.036  14.823 -0.1660  0.0417  0.0527
 4678TIP3    H135449   1.289   3.087  14.893 -0.8834  1.8588 -1.6505
 4678TIP3    H235450   1.335   3.096  14.749 -0.2840 -2.1207 -1.7693
 4679TIP3   OH235451   6.098   1.437   6.041 -0.2395  0.3969 -0.3325
 4679TIP3    H135452   6.108   1.460   5.949  0.7113 -0.3994 -0.4257
 4679TIP3    H235453   6.052   1.353   6.041 -0.8827  0.7390 -0.0553
 4680TIP3   OH235454   1.393   3.413  16.246 -0.1461  0.2565 -0.2869
 4680TIP3    H135455   1.311   3.374  16.217 -0.1123  0.5468 -0.7690
 4680TIP3    H235456   1.417   3.474  16.176  0.0052  0.8484  0.2722
 4681TIP3   OH235457   2.756   6.132  15.036  0.8296 -0.1033 -0.1665
 4681TIP3    H135458   2.842   6.171  15.022  0.6922  0.1627 -0.2818
 4681TIP3    H235459   2.695   6.193  14.992  0.2613  1.3975  2.5856
 4682TIP3   OH235460   0.047   4.646  14.935 -0.4619  0.4007 -0.3792
 4682TIP3    H135461   0.010   4.597  15.008  1.1009 -0.5109 -0.1822
 4682TIP3    H235462   0.096   4.718  14.976 -0.4523  0.4980 -0.5599
 4683TIP3   OH235463   2.509   4.969  13.346  0.2521 -0.7060  0.1305
 4683TIP3    H135464   2.551   5.054  13.355 -1.0648  0.1266 -1.3237
 4683TIP3    H235465   2.539   4.936  13.261 -2.5583  0.2500 -1.3005
 4684TIP3   OH235466   2.451   6.280   1.660 -0.4603  0.3589 -0.4165
 4684TIP3    H135467   2.358   6.262   1.671  0.1819 -2.9966 -0.0602
 4684TIP3    H235468   2.464   6.287   1.565 -1.0332  0.5787 -0.4756
 4685TIP3   OH235469   6.508   6.439   2.579 -0.5494 -0.2835  0.1727
 4685TIP3    H135470   6.471   6.482   2.502  0.9287 -2.2615 -1.7015
 4685TIP3    H235471   6.431   6.405   2.625 -1.4059  0.1455 -0.8957
 4686TIP3   OH235472   3.790   2.401   5.276  0.2338 -0.0572  0.3988
 4686TIP3    H135473   3.743   2.366   5.352  1.3962  1.5717  1.9094
 4686TIP3    H235474   3.881   2.380   5.292  0.6207  1.2385 -0.0012
 4687TIP3   OH235475   2.411   1.383   1.728 -0.3168  0.0611  0.4399
 4687TIP3    H135476   2.423   1.478   1.727 -0.5960  0.1043  0.8514
 4687TIP3    H235477   2.343   1.369   1.794  0.3667 -0.4970  1.0354
 4688TIP3   OH235478   3.616   5.712  14.942 -0.0955 -0.1288  0.1277
 4688TIP3    H135479   3.665   5.730  15.023  1.7004  0.4802 -1.0488
 4688TIP3    H235480   3.580   5.797  14.916  0.8743  0.0594 -0.6622
 4689TIP3   OH235481   6.508   1.426  12.367  0.1355 -0.3158 -0.1338
 4689TIP3    H135482   6.497   1.440  12.273  2.0486 -0.0851 -0.3419
 4689TIP3    H235483   6.427   1.461  12.406  0.3913  1.9075 -1.4949
 4690TIP3   OH235484   5.671   0.081   2.059  0.3233 -0.2139 -0.4954
 4690TIP3    H135485   5.756   0.087   2.017 -0.1111  0.9901 -1.2279
 4690TIP3    H235486   5.687   0.108   2.150  0.7722 -0.3132 -0.5434
 4691TIP3   OH235487   3.635   5.383  15.485  0.2585  0.9334 -0.1954
 4691TIP3    H135488   3.551   5.345  15.459  0.3725  0.0625  0.6818
 4691TIP3    H235489   3.619   5.477  15.491 -0.6309  0.7756 -0.0905
 4692TIP3   OH235490   0.998   1.278   3.452 -0.5804 -0.0300  0.1231
 4692TIP3    H135491   1.016   1.326   3.371  0.6476  3.1540  2.1882
 4692TIP3    H235492   1.079   1.229   3.469 -0.4785  0.0913 -0.0114
 4693TIP3   OH235493   2.145   2.942   5.935 -0.3091  0.4789  0.1361
 4693TIP3    H135494   2.174   3.024   5.974 -1.7069  0.4295  1.2794
 4693TIP3    H235495   2.189   2.874   5.987 -2.2842  0.4088  1.7679
 4694TIP3   OH235496   4.729   6.225  14.906  0.5316  0.3010 -0.7691
 4694TIP3    H135497   4.824   6.220  14.914  0.6259 -0.6117 -2.2783
 4694TIP3    H235498   4.699   6.136  14.925 -0.1359  0.8553  0.8949
 4695TIP3   OH235499   5.843   5.544   1.034 -0.0665  0.1407  0.0535
 4695TIP3    H135500   5.777   5.613   1.042  1.0850  1.0587  2.2233
 4695TIP3    H235501   5.836   5.495   1.117  1.2844 -0.3648 -0.1219
 4696TIP3   OH235502   4.931   1.266   1.090  0.3111 -0.9085 -0.4288
 4696TIP3    H135503   4.927   1.361   1.078  1.3350 -0.5988  1.5231
 4696TIP3    H235504   4.840   1.237   1.085 -0.1339  0.3483  0.3098
 4697TIP3   OH235505   2.107   1.597   2.818  0.1781 -0.0200 -0.4055
 4697TIP3    H135506   2.074   1.552   2.740  0.5147  2.8466 -2.2468
 4697TIP3    H235507   2.032   1.644   2.852  0.3686 -0.1729  0.2296
 4698TIP3   OH235508   0.760   6.734  15.156  0.4051 -0.6244 -0.2961
 4698TIP3    H135509   0.716   6.812  15.123 -0.1440 -1.1964 -0.9331
 4698TIP3    H235510   0.810   6.764  15.231  1.2426  0.5996 -1.3220
 4699TIP3   OH235511   3.724   2.293   0.928 -0.1154 -0.3779 -0.1494
 4699TIP3    H135512   3.681   2.319   1.010 -0.5004  1.1222 -0.8165
 4699TIP3    H235513   3.789   2.228   0.955  0.5808  0.9838  1.5029
 4700TIP3   OH235514   2.922   5.978   2.368 -0.8419  0.4227 -0.3219
 4700TIP3    H135515   2.889   5.900   2.412  0.9107  0.6793  1.5333
 4700TIP3    H235516   3.017   5.977   2.385 -0.6424  2.4076 -1.1210
 4701TIP3   OH235517   2.416   0.561  12.662  0.2169 -0.0106  0.1214
 4701TIP3    H135518   2.496   0.612  12.647 -0.0627  0.2888 -0.3358
 4701TIP3    H235519   2.359   0.620  12.710  0.2835 -0.2399  0.4830
 4702TIP3   OH235520   0.157   0.742  14.016 -0.2876  0.7965  0.0646
 4702TIP3    H135521   0.071   0.782  14.000 -0.2376  0.9525  0.1881
 4702TIP3    H235522   0.207   0.810  14.062 -0.3492  0.4325  0.6662
 4703TIP3   OH235523   2.513   4.083  12.056 -0.1464 -0.0271  0.0515
 4703TIP3    H135524   2.487   4.171  12.084 -1.2886 -0.7889  1.4795
 4703TIP3    H235525   2.561   4.097  11.974  1.5554  2.1134  1.3392
 4704TIP3   OH235526   1.356   3.160   5.212 -0.2617 -0.2280  0.3905
 4704TIP3    H135527   1.410   3.189   5.285  1.4515  1.3221 -1.4245
 4704TIP3    H235528   1.419   3.130   5.145 -1.7342 -0.6099 -0.8685
 4705TIP3   OH235529   6.732   5.288   0.892  0.1069  0.1433  0.1312
 4705TIP3    H135530   6.697   5.286   0.981  0.8955 -0.7992  0.4340
 4705TIP3    H235531   6.667   5.337   0.842  0.3253  1.9311  1.5189
 4706TIP3   OH235532   6.354   6.333   1.278  0.1674 -1.0923  0.4067
 4706TIP3    H135533   6.408   6.264   1.316  3.5571 -0.7969 -3.5489
 4706TIP3    H235534   6.292   6.288   1.221 -0.8691 -1.1331  1.5433
 4707TIP3   OH235535   5.785   6.670   1.299 -0.6506 -0.0273 -0.5096
 4707TIP3    H135536   5.857   6.607   1.297 -0.7129 -0.1148 -0.0138
 4707TIP3    H235537   5.799   6.719   1.381 -3.8818 -3.2398  2.1132
 4708TIP3   OH235538   3.644   5.967   3.845 -0.1671 -0.3245 -0.7468
 4708TIP3    H135539   3.654   5.878   3.811 -1.5406 -0.1750 -1.5990
 4708TIP3    H235540   3.704   5.972   3.919  0.6638 -1.6374 -1.3201
 4709TIP3   OH235541   6.764   0.384   5.776 -0.0531 -0.0373  0.2566
 4709TIP3    H135542   6.784   0.347   5.862 -1.5506  2.1312  1.5976
 4709TIP3    H235543   6.683   0.341   5.749 -0.3479  0.2991  0.5963
 4710TIP3   OH235544   3.434   1.699   4.511 -0.2672  0.2132 -0.3915
 4710TIP3    H135545   3.452   1.792   4.524 -0.0796  0.0442  0.6882
 4710TIP3    H235546   3.376   1.676   4.584 -0.7436 -0.3911 -0.9598
 4711TIP3   OH235547   5.029   0.092   1.862  0.0360 -0.1474 -0.1819
 4711TIP3    H135548   5.115   0.087   1.902  0.8476  0.2111 -1.8422
 4711TIP3    H235549   5.038   0.045   1.779 -1.4668 -0.4511 -0.1950
 4712TIP3   OH235550   4.380   1.344   1.681 -0.1991  0.0221 -0.5485
 4712TIP3    H135551   4.439   1.269   1.679  1.2588  1.1559 -0.6422
 4712TIP3    H235552   4.299   1.309   1.717  1.0285 -1.1874  1.1046
 4713TIP3   OH235553   3.523   3.330  16.918 -0.3451 -0.1112  0.0258
 4713TIP3    H135554   3.558   3.325  17.007 -0.5995 -1.4139  0.0601
 4713TIP3    H235555   3.525   3.423  16.896  0.7282  0.0977  0.9913
 4714TIP3   OH235556   5.336   2.557  16.107  0.3173 -0.4536 -0.1050
 4714TIP3    H135557   5.329   2.652  16.094  2.3494 -0.2039  0.5750
 4714TIP3    H235558   5.308   2.544  16.198 -1.1276 -0.6586 -0.5694
 4715TIP3   OH235559   3.346   3.664  11.376  0.1322  0.4062  0.0428
 4715TIP3    H135560   3.316   3.635  11.462  1.4087  0.1711  0.4127
 4715TIP3    H235561   3.429   3.708  11.393 -0.2739  1.5651 -0.9044
 4716TIP3   OH235562   5.429   2.760  17.000  0.2444  0.7146 -0.2807
 4716TIP3    H135563   5.400   2.753  17.091  1.3312 -0.3690 -0.0147
 4716TIP3    H235564   5.407   2.850  16.975 -0.0046  1.0426  1.0617
 4717TIP3   OH235565   2.799   2.622  17.080 -0.6861 -0.0846 -0.1233
 4717TIP3    H135566   2.783   2.527  17.081 -2.0471  0.1108 -1.1934
 4717TIP3    H235567   2.893   2.630  17.096 -0.1741 -1.7277 -2.0221
 4718TIP3   OH235568   1.580   5.569  16.729 -0.1389  0.7212 -0.1464
 4718TIP3    H135569   1.588   5.519  16.649 -0.5503  1.7813 -0.8694
 4718TIP3    H235570   1.492   5.607  16.725  1.2316  3.9515 -1.0942
 4719TIP3   OH235571   3.172   4.246  15.133 -0.7184  0.0519 -0.5076
 4719TIP3    H135572   3.156   4.308  15.204 -1.0612  0.8906 -1.3076
 4719TIP3    H235573   3.227   4.178  15.172  1.7194  2.1248 -0.2470
 4720TIP3   OH235574   1.438   1.054   4.992 -0.0291 -0.0618  0.5811
 4720TIP3    H135575   1.367   1.028   5.051 -0.2680 -1.3024 -0.2255
 4720TIP3    H235576   1.458   1.144   5.017 -1.7432  0.2318  0.9547
 4721TIP3   OH235577   5.680   5.884   4.248 -0.2504 -0.1009 -0.4570
 4721TIP3    H135578   5.608   5.908   4.307  0.4117 -1.0219  0.7613
 4721TIP3    H235579   5.757   5.924   4.289 -0.0194  0.6070 -1.5749
 4722TIP3   OH235580   5.828   2.677  11.815  0.0698  0.0754 -0.9256
 4722TIP3    H135581   5.875   2.759  11.827  0.9505 -0.6186  0.5125
 4722TIP3    H235582   5.798   2.653  11.903 -0.7542 -0.7900 -1.4332
 4723TIP3   OH235583   4.660   0.413  11.721  0.1543 -0.5137 -0.1809
 4723TIP3    H135584   4.688   0.460  11.643  1.8181 -2.3481 -0.7406
 4723TIP3    H235585   4.666   0.320  11.696  0.2393 -1.1099  1.9617
 4724TIP3   OH235586   0.992   2.182   6.516 -0.2839  0.2168  0.0318
 4724TIP3    H135587   0.908   2.142   6.493 -0.3368 -0.0698  0.7132
 4724TIP3    H235588   1.056   2.111   6.508 -0.2439  0.2121  0.3847
 4725TIP3   OH235589   1.386   1.248  13.345 -0.0020  0.5230 -0.1626
 4725TIP3    H135590   1.297   1.266  13.316 -0.2733 -0.7216 -0.0882
 4725TIP3    H235591   1.406   1.161  13.313  0.8961  0.4568  0.5328
 4726TIP3   OH235592   4.893   1.476  11.902  0.3788  0.0120  0.4296
 4726TIP3    H135593   4.891   1.550  11.842  0.2877 -0.2175  0.1521
 4726TIP3    H235594   4.984   1.446  11.900  0.3422 -0.0924  0.2852
 4727TIP3   OH235595   4.146   0.321  13.762  0.4037  0.2787  0.8135
 4727TIP3    H135596   4.118   0.246  13.710 -0.0559 -1.8774  4.0515
 4727TIP3    H235597   4.242   0.315  13.762  0.4244  0.5297 -0.0935
 4728TIP3   OH235598   0.716   3.691   3.719  0.0491 -0.1217 -0.3171
 4728TIP3    H135599   0.643   3.734   3.675 -0.1345 -1.2015 -1.0804
 4728TIP3    H235600   0.681   3.664   3.804 -0.1360  0.2591 -0.2696
 4729TIP3   OH235601   2.428   1.136  17.035  0.3306 -0.1576 -0.2825
 4729TIP3    H135602   2.484   1.196  17.084 -0.2789 -0.9408  1.3977
 4729TIP3    H235603   2.460   1.049  17.060 -2.3010 -0.6513  1.5495
 4730TIP3   OH235604   3.411   0.562  14.902  0.0887 -0.2243  0.0588
 4730TIP3    H135605   3.439   0.626  14.838 -0.8355  1.9506  1.7592
 4730TIP3    H235606   3.316   0.556  14.891 -0.3756  1.6761  2.4631
 4731TIP3   OH235607   2.439   6.253  13.152 -0.3816  0.3533 -0.5308
 4731TIP3    H135608   2.431   6.195  13.227 -0.3822  0.4953 -0.4209
 4731TIP3    H235609   2.378   6.325  13.170 -1.9925 -0.6928 -1.6777
 4732TIP3   OH235610   0.372   1.455   4.337 -0.2992 -0.1225 -0.0599
 4732TIP3    H135611   0.323   1.474   4.417 -2.4822 -1.2786 -1.0860
 4732TIP3    H235612   0.459   1.492   4.353 -1.6090  2.3771  1.6281
 4733TIP3   OH235613   0.095   6.320   1.454  0.0291  0.0407  0.5558
 4733TIP3    H135614   0.163   6.336   1.388  1.3132 -0.3032  1.7587
 4733TIP3    H235615   0.020   6.370   1.424  1.3925  1.8869  0.1037
 4734TIP3   OH235616   3.631   5.082  13.077 -0.9570  0.0059 -0.0793
 4734TIP3    H135617   3.590   5.059  12.994 -0.1608 -0.9045 -0.2205
 4734TIP3    H235618   3.659   4.998  13.114 -0.9754  0.4400  0.9368
 4735TIP3   OH235619   5.470   6.170   5.042 -0.1880  0.3176  0.0821
 4735TIP3    H135620   5.564   6.154   5.039 -0.0429  1.3139 -1.1215
 4735TIP3    H235621   5.431   6.082   5.035  0.6382 -0.1034  0.6691
 4736TIP3   OH235622   3.834   0.287   5.558 -0.0578  0.2696  0.7588
 4736TIP3    H135623   3.854   0.297   5.465  1.0872 -0.8122  0.8786
 4736TIP3    H235624   3.875   0.362   5.600 -0.3150  0.5951  0.4337
 4737TIP3   OH235625   5.421   5.402  11.646  0.2120  0.4491  0.5971
 4737TIP3    H135626   5.407   5.353  11.565  0.2004 -1.2489  1.5834
 4737TIP3    H235627   5.443   5.491  11.618  0.0498 -0.0792 -1.2513
 4738TIP3   OH235628   0.766   2.438  11.878 -0.4981 -0.0144 -1.0820
 4738TIP3    H135629   0.788   2.478  11.962 -0.3494  0.0710 -1.1616
 4738TIP3    H235630   0.671   2.436  11.877 -0.4861 -1.7678 -0.0931
 4739TIP3   OH235631   6.502   3.788   4.802  0.1793  0.3797  0.0321
 4739TIP3    H135632   6.473   3.715   4.747  0.5908  1.4136 -1.5962
 4739TIP3    H235633   6.493   3.755   4.891  0.5467 -1.7345 -0.6733
 4740TIP3   OH235634   3.033   4.735   0.589 -0.4029  0.4768  0.0123
 4740TIP3    H135635   3.126   4.754   0.573  0.1597 -0.1297  2.3793
 4740TIP3    H235636   3.034   4.658   0.646 -2.3393  0.9704  0.7295
 4741TIP3   OH235637   3.220   1.706  16.725  0.1557  0.4340 -0.7613
 4741TIP3    H135638   3.315   1.691  16.724 -0.0669 -1.1155 -0.0291
 4741TIP3    H235639   3.185   1.635  16.670 -0.6552  0.3529 -0.1384
 4742TIP3   OH235640   1.372   2.767   5.539  0.4206  0.0140 -0.0126
 4742TIP3    H135641   1.400   2.827   5.608 -0.9787  0.3156  0.3117
 4742TIP3    H235642   1.385   2.817   5.458  0.9970  0.0707  0.1106
 4743TIP3   OH235643   3.255   0.831   1.749 -0.0121  0.7425  0.1098
 4743TIP3    H135644   3.291   0.795   1.668  1.3598  2.1586  0.0687
 4743TIP3    H235645   3.289   0.775   1.818  0.5218  0.7688 -0.1266
 4744TIP3   OH235646   4.995   3.139   3.593  0.1485  0.1922  0.0919
 4744TIP3    H135647   5.071   3.081   3.585  0.6803  0.6884  1.3887
 4744TIP3    H235648   4.927   3.096   3.542  1.6287  0.3143 -2.0509
 4745TIP3   OH235649   6.707   3.608  15.075 -0.1167  0.5085  0.3768
 4745TIP3    H135650   6.781   3.646  15.123 -1.4329 -0.7879  3.5990
 4745TIP3    H235651   6.746   3.570  14.996  2.8165 -0.9731  2.4403
 4746TIP3   OH235652   5.303   3.341  11.614  0.1350  0.3610 -0.8567
 4746TIP3    H135653   5.366   3.409  11.636 -0.4228  0.2120  1.2815
 4746TIP3    H235654   5.356   3.262  11.601  0.5203  0.5627 -0.5060
 4747TIP3   OH235655   2.258   5.277   6.016  0.1811 -0.5980 -0.1152
 4747TIP3    H135656   2.252   5.228   6.098  1.9729  0.4523  0.6592
 4747TIP3    H235657   2.335   5.240   5.972  2.1841  2.1040  0.9344
 4748TIP3   OH235658   3.914   2.894  14.790  0.3879  0.1296  0.3514
 4748TIP3    H135659   3.915   2.913  14.697 -1.3309 -1.1273  0.0583
 4748TIP3    H235660   3.890   2.977  14.831  0.5792  0.5367 -0.3484
 4749TIP3   OH235661   6.486   6.059  13.191  0.0880 -0.3974  0.0036
 4749TIP3    H135662   6.511   5.989  13.130  3.5249  0.9264 -0.1928
 4749TIP3    H235663   6.485   6.138  13.138  1.4344  0.5060  1.2912
 4750TIP3   OH235664   6.317   4.438  15.831 -0.4633 -0.7603  0.4036
 4750TIP3    H135665   6.380   4.504  15.862  0.3457 -0.8042 -1.1053
 4750TIP3    H235666   6.293   4.389  15.910  1.4557 -0.7785  1.0061
 4751TIP3   OH235667   2.021   0.005  10.914 -0.3292  0.2097 -0.3548
 4751TIP3    H135668   2.055   0.061  10.843  1.7802 -1.4544 -0.7207
 4751TIP3    H235669   1.998  -0.077  10.871 -1.6828  0.1622  0.4564
 4752TIP3   OH235670   5.341   2.736   4.509 -0.0982  0.0349 -0.5796
 4752TIP3    H135671   5.383   2.813   4.548  1.4532 -0.8121 -0.5432
 4752TIP3    H235672   5.295   2.695   4.582  1.2574 -0.5128 -0.0038
 4753TIP3   OH235673   1.816   0.146   4.114  0.1717  0.6891 -0.0964
 4753TIP3    H135674   1.858   0.188   4.189 -0.8611 -0.3877  1.1066
 4753TIP3    H235675   1.888   0.126   4.055  1.0952  0.8917  0.9323
 4754TIP3   OH235676   6.686   0.404   1.518  0.5507 -0.0388 -0.4977
 4754TIP3    H135677   6.641   0.354   1.586 -0.1573 -0.6695 -1.4282
 4754TIP3    H235678   6.618   0.428   1.456  0.4792  3.8073  0.8931
 4755TIP3   OH235679   1.606   0.981  12.104 -0.3693 -0.4707 -0.0246
 4755TIP3    H135680   1.696   0.952  12.116 -0.4472 -0.5882  0.2932
 4755TIP3    H235681   1.582   0.950  12.017 -0.4283 -1.3008  0.2888
 4756TIP3   OH235682   2.977   6.276   0.435  0.0716  0.3240  0.4921
 4756TIP3    H135683   2.893   6.247   0.399  0.5651 -1.1347  0.4722
 4756TIP3    H235684   3.031   6.294   0.357  0.2488 -0.1629  0.5008
 4757TIP3   OH235685   4.419   4.125  13.796 -0.3549 -0.0243 -0.4097
 4757TIP3    H135686   4.436   4.212  13.834  2.4717 -1.1233  0.9493
 4757TIP3    H235687   4.489   4.112  13.733 -0.7344 -1.3401 -0.5720
 4758TIP3   OH235688   6.591   0.886  13.360 -0.0862 -0.3559 -0.6166
 4758TIP3    H135689   6.634   0.847  13.284 -0.0418 -2.7620  0.6059
 4758TIP3    H235690   6.501   0.903  13.331  0.3234  0.1059 -1.6423
 4759TIP3   OH235691   3.245   6.455  17.059 -0.1232  0.9206 -0.4266
 4759TIP3    H135692   3.166   6.504  17.033  1.1372  2.6897 -1.0009
 4759TIP3    H235693   3.290   6.512  17.121  0.3704 -0.3929  0.4575
 4760TIP3   OH235694   5.202   6.778   3.996 -0.1994  0.0775  0.0593
 4760TIP3    H135695   5.204   6.695   4.044  0.2409  1.6230  2.8597
 4760TIP3    H235696   5.112   6.787   3.966  0.2311 -2.3696 -2.0781
 4761TIP3   OH235697   3.340   5.744  16.711  0.2688 -0.2623 -0.1419
 4761TIP3    H135698   3.309   5.822  16.664 -0.0900 -0.1737  0.2424
 4761TIP3    H235699   3.436   5.754  16.712  0.4041 -1.1355 -2.3581
 4762TIP3   OH235700   3.514   0.890   3.967  0.7731 -0.1447 -0.4288
 4762TIP3    H135701   3.570   0.946   3.914  0.3078  0.0825 -0.6806
 4762TIP3    H235702   3.566   0.872   4.045  0.8943  0.7084 -0.3076
 4763TIP3   OH235703   6.684   0.235  16.949  0.1014  0.1823  0.1081
 4763TIP3    H135704   6.667   0.174  17.021  0.7141  1.1351  1.0717
 4763TIP3    H235705   6.605   0.231  16.895 -0.0458 -1.1288  0.3907
 4764TIP3   OH235706   1.257   2.029  15.452  0.4075  0.1603 -0.4060
 4764TIP3    H135707   1.168   2.050  15.479  0.5693  1.5551 -0.8797
 4764TIP3    H235708   1.246   1.962  15.385 -0.2428 -0.1803  0.0333
 4765TIP3   OH235709   6.594   6.083   0.399  0.0389 -0.2600  1.3602
 4765TIP3    H135710   6.502   6.065   0.378 -0.2031  0.5240  1.7167
 4765TIP3    H235711   6.591   6.120   0.487  0.4410  2.0460  0.4513
 4766TIP3   OH235712   1.263   4.197  12.970 -0.8495  0.2685 -0.3504
 4766TIP3    H135713   1.351   4.207  12.933 -1.5640  2.6672 -1.4792
 4766TIP3    H235714   1.276   4.203  13.065  0.5322 -2.3719 -0.3168
 4767TIP3   OH235715   5.909   6.063  11.625  0.4898  0.1159 -0.2665
 4767TIP3    H135716   5.846   5.999  11.656  1.7540 -0.3041  1.5137
 4767TIP3    H235717   5.857   6.141  11.607 -0.9957 -1.2392 -2.0165
 4768TIP3   OH235718   3.416   0.785   3.659  0.5909  0.4864  0.4561
 4768TIP3    H135719   3.437   0.755   3.748  0.7120 -1.1898 -0.1160
 4768TIP3    H235720   3.484   0.849   3.639  1.9650 -0.8623  0.6951
 4769TIP3   OH235721   0.025   2.850   3.652  0.0887 -0.2108  0.3802
 4769TIP3    H135722   0.091   2.796   3.609 -0.8620 -1.2112  0.1683
 4769TIP3    H235723   0.058   2.940   3.642  1.9851 -0.7878  1.3053
 4770TIP3   OH235724   1.305   2.692   1.590 -0.0915  0.6318  0.7679
 4770TIP3    H135725   1.376   2.753   1.571  1.7365 -1.9832 -1.2421
 4770TIP3    H235726   1.252   2.692   1.510  0.1443 -0.6303  0.5938
 4771TIP3   OH235727   5.955   3.750  10.639 -0.3250 -0.5654  0.0176
 4771TIP3    H135728   5.906   3.675  10.606 -0.6848 -1.6794  2.9522
 4771TIP3    H235729   5.901   3.826  10.615 -0.7830 -1.3444 -1.4926
 4772TIP3   OH235730   4.958   3.201  16.933  0.8485  0.2067 -0.2165
 4772TIP3    H135731   5.007   3.269  16.979 -0.2787  0.6577  0.3229
 4772TIP3    H235732   4.874   3.242  16.911  0.9455 -0.3510 -1.7053
 4773TIP3   OH235733   1.168   1.757   2.591  0.5457  0.1703 -0.3704
 4773TIP3    H135734   1.106   1.700   2.544 -0.4899  1.7864 -1.0264
 4773TIP3    H235735   1.246   1.758   2.536 -0.0960  0.8186 -1.2817
 4774TIP3   OH235736   3.217   3.516  11.618  0.1670  0.0737  0.1920
 4774TIP3    H135737   3.199   3.554  11.704  0.6060  0.5788  0.0633
 4774TIP3    H235738   3.132   3.516  11.573 -0.0440 -0.1064  0.5886
 4775TIP3   OH235739   3.291   1.623   0.547 -0.6259 -0.1646  0.6050
 4775TIP3    H135740   3.229   1.696   0.553  0.3475  0.7827 -0.4519
 4775TIP3    H235741   3.339   1.625   0.630  1.8566  2.7174 -0.7791
 4776TIP3   OH235742   5.139   5.496   5.852  0.2080  0.0212 -0.3968
 4776TIP3    H135743   5.229   5.520   5.877  0.2725 -1.7776  1.2672
 4776TIP3    H235744   5.090   5.498   5.934 -0.6612 -1.6062 -0.8612
 4777TIP3   OH235745   5.946   6.590  15.997  0.3348  0.0591 -0.0030
 4777TIP3    H135746   5.974   6.525  16.061 -1.7526 -1.1928 -0.3210
 4777TIP3    H235747   5.957   6.674  16.042  1.7196 -0.6033  0.9139
 4778TIP3   OH235748   3.307   1.927   2.063  0.3056 -0.3874  0.4343
 4778TIP3    H135749   3.231   1.961   2.016  0.9565 -1.0964 -1.1948
 4778TIP3    H235750   3.303   1.967   2.149 -0.3456  1.7974 -0.5828
 4779TIP3   OH235751   4.047   0.913   5.557 -0.2731  0.0355 -0.2925
 4779TIP3    H135752   3.980   0.980   5.571 -0.5854 -0.4744  0.6601
 4779TIP3    H235753   4.006   0.848   5.500  0.2195  0.9200 -1.7042
 4780TIP3   OH235754   0.493   3.219   0.161 -0.5480 -0.1738  0.1372
 4780TIP3    H135755   0.531   3.132   0.148 -1.6880 -0.6804  0.1755
 4780TIP3    H235756   0.473   3.250   0.073  2.2215  1.1436 -0.0836
 4781TIP3   OH235757   3.709   4.004   1.931 -0.9174 -0.6756  0.2699
 4781TIP3    H135758   3.696   4.007   2.026 -0.8901 -0.3291  0.2641
 4781TIP3    H235759   3.623   3.978   1.897 -0.8768 -0.9782  0.4029
 4782TIP3   OH235760   2.052   3.485   0.733 -0.1962 -0.5017 -0.3268
 4782TIP3    H135761   2.048   3.491   0.829 -0.8693 -1.5032 -0.2891
 4782TIP3    H235762   2.017   3.568   0.702 -0.8177 -0.5294  0.2879
 4783TIP3   OH235763   4.728   3.260  12.147  0.5052 -0.6366 -0.3389
 4783TIP3    H135764   4.699   3.275  12.057  1.0332 -0.8485 -0.5446
 4783TIP3    H235765   4.749   3.166  12.150  1.6182 -0.3894 -0.3203
 4784TIP3   OH235766   2.079   3.849   4.090 -0.0881 -0.4426 -0.4306
 4784TIP3    H135767   2.014   3.913   4.061  1.2833  0.6203 -1.2022
 4784TIP3    H235768   2.140   3.900   4.144  2.2676 -0.6097 -2.8450
 4785TIP3   OH235769   2.467   4.635  12.369  0.6554 -0.5355  0.1483
 4785TIP3    H135770   2.388   4.672  12.330 -0.1032 -1.0397  1.1625
 4785TIP3    H235771   2.538   4.662  12.311  0.1783  2.8074  1.0604
 4786TIP3   OH235772   0.658   3.648  16.053  0.8465 -0.4287 -0.0100
 4786TIP3    H135773   0.566   3.672  16.063  1.7862  2.7314  1.7389
 4786TIP3    H235774   0.669   3.572  16.111 -0.9192 -1.6347 -1.2148
 4787TIP3   OH235775   4.843   1.829  13.778  0.0269 -0.4616  0.1687
 4787TIP3    H135776   4.827   1.868  13.864  1.4687  2.0809 -0.6511
 4787TIP3    H235777   4.758   1.833  13.734 -0.4001 -0.4856  0.9789
 4788TIP3   OH235778   3.231   1.452   2.903  0.6807  0.2834 -0.5294
 4788TIP3    H135779   3.291   1.421   2.971 -0.8249 -0.5310  0.4798
 4788TIP3    H235780   3.243   1.391   2.830  0.8726 -0.0705 -0.2070
 4789TIP3   OH235781   4.052   3.124   5.039  0.0023 -0.0138 -0.0363
 4789TIP3    H135782   4.039   3.111   4.945  0.1863  0.1741 -0.0869
 4789TIP3    H235783   3.975   3.083   5.079  0.6046 -1.3307 -0.1938
 4790TIP3   OH235784   5.835   2.989  15.961 -0.2541 -0.2180  0.1491
 4790TIP3    H135785   5.900   2.949  15.903  0.0693 -0.5398  0.7270
 4790TIP3    H235786   5.758   3.001  15.906 -0.0929 -0.9235 -0.2418
 4791TIP3   OH235787   4.827   5.509  16.962 -0.0458  0.5732 -0.1450
 4791TIP3    H135788   4.894   5.446  16.935  0.6060  1.3642 -0.3967
 4791TIP3    H235789   4.832   5.510  17.058 -0.4386 -0.1613 -0.1141
 4792TIP3   OH235790   1.895   2.792  11.928 -0.1126 -0.6928 -0.1743
 4792TIP3    H135791   1.926   2.853  11.861  0.3156 -0.5664  0.1397
 4792TIP3    H235792   1.967   2.729  11.939 -0.0254 -0.4884  0.4446
 4793TIP3   OH235793   6.693   6.390  12.726 -0.2418 -0.4871 -0.4419
 4793TIP3    H135794   6.744   6.431  12.796  0.9695 -0.8201 -1.1147
 4793TIP3    H235795   6.757   6.371  12.658 -1.3866 -0.3395 -1.5685
 4794TIP3   OH235796   4.225   1.438  12.494 -0.1604 -0.2444  0.5350
 4794TIP3    H135797   4.248   1.376  12.563 -1.4390 -1.4467 -0.0983
 4794TIP3    H235798   4.130   1.445  12.498 -0.1757  0.3301 -0.5592
 4795TIP3   OH235799   5.982   2.233   0.917  0.2773  0.3731  0.5092
 4795TIP3    H135800   6.072   2.258   0.895 -0.1622  0.0667 -1.7859
 4795TIP3    H235801   5.977   2.140   0.897 -0.5532  0.3856  0.6386
 4796TIP3   OH235802   4.310   5.685   5.630 -0.6616  0.3020 -0.0466
 4796TIP3    H135803   4.341   5.605   5.587 -1.4236  0.2765 -0.5748
 4796TIP3    H235804   4.262   5.654   5.706 -0.0325  0.3084  0.3557
 4797TIP3   OH235805   0.755   2.023  16.266  0.4920  0.5886 -0.3564
 4797TIP3    H135806   0.715   1.940  16.292 -0.2416  1.4253  1.2335
 4797TIP3    H235807   0.704   2.051  16.190  0.2757 -0.0548 -0.4490
 4798TIP3   OH235808   2.817   2.262   0.508  0.3613  0.2049  0.0503
 4798TIP3    H135809   2.821   2.175   0.467  1.0216 -0.7197  2.0420
 4798TIP3    H235810   2.723   2.276   0.523  0.0432  0.8068 -2.2345
 4799TIP3   OH235811   6.731   0.248  12.500  0.0422 -0.0836  0.0453
 4799TIP3    H135812   6.682   0.314  12.449 -1.1821 -0.2052  1.0192
 4799TIP3    H235813   6.670   0.224  12.571  1.3027 -0.6946  0.9316
 4800TIP3   OH235814   6.717   3.489   1.069 -0.3026  0.6150 -0.2114
 4800TIP3    H135815   6.633   3.534   1.063  0.3420  1.6094 -2.3059
 4800TIP3    H235816   6.716   3.426   0.997  1.6987  2.3033 -1.7429
 4801TIP3   OH235817   3.337   2.938   1.062 -0.3002 -0.0549  0.4993
 4801TIP3    H135818   3.266   2.876   1.043 -0.8213  1.0190 -1.1916
 4801TIP3    H235819   3.315   3.015   1.010  1.4884  0.7319  0.8928
 4802TIP3   OH235820   3.592   2.865   1.190 -0.0936  0.6501  0.6322
 4802TIP3    H135821   3.515   2.859   1.132  0.3898  1.3949 -0.0939
 4802TIP3    H235822   3.585   2.951   1.231  0.9501  1.1979 -0.3034
 4803TIP3   OH235823   5.634   0.958  10.904 -0.2279 -0.5008  0.5613
 4803TIP3    H135824   5.581   1.037  10.892  2.7232  1.5769  0.6829
 4803TIP3    H235825   5.702   0.965  10.837  3.0465 -0.3205  3.7584
 4804TIP3   OH235826   4.833   3.464   5.431 -0.0809 -0.3162 -0.5684
 4804TIP3    H135827   4.752   3.413   5.419 -0.0065 -0.8419  1.0247
 4804TIP3    H235828   4.810   3.529   5.497  0.9670 -0.8439  0.3242
 4805TIP3   OH235829   6.571   2.446   0.217  0.0271  0.4189  0.1212
 4805TIP3    H135830   6.479   2.420   0.219  0.0922  0.2217  0.9513
 4805TIP3    H235831   6.571   2.534   0.180 -0.8524  1.8175  3.2239
 4806TIP3   OH235832   4.340   4.277   2.323  0.6086  0.2061  0.2773
 4806TIP3    H135833   4.299   4.191   2.318 -0.6912  0.8125  0.4620
 4806TIP3    H235834   4.279   4.330   2.374 -0.2744  2.2093 -2.7374
 4807TIP3   OH235835   4.108   2.109  11.534 -0.1233  0.5150  0.0813
 4807TIP3    H135836   4.138   2.048  11.467 -0.7907 -0.3731  0.5778
 4807TIP3    H235837   4.144   2.074  11.616  0.7180  1.6115  0.1902
 4808TIP3   OH235838   3.060   4.771   2.154  0.1948  0.7315  0.6238
 4808TIP3    H135839   2.978   4.818   2.167 -0.3908  0.2649 -1.1903
 4808TIP3    H235840   3.115   4.797   2.227 -1.3883  1.4529  1.5824
 4809TIP3   OH235841   6.381   6.390  15.364 -0.5453 -0.0656  0.1323
 4809TIP3    H135842   6.339   6.461  15.315 -0.6074  0.1374  0.4767
 4809TIP3    H235843   6.463   6.375  15.319 -0.5700  0.1731  0.0105
 4810TIP3   OH235844   6.314   1.683  12.373 -0.8421  0.3960 -0.1712
 4810TIP3    H135845   6.322   1.775  12.346  2.0783 -0.5145 -2.7501
 4810TIP3    H235846   6.263   1.642  12.303 -1.3131 -0.1414  0.4875
 4811TIP3   OH235847   3.588   5.096  10.921 -0.1164  0.1835 -0.3494
 4811TIP3    H135848   3.603   5.046  11.001 -2.2682 -0.5106 -0.3597
 4811TIP3    H235849   3.671   5.141  10.905  1.0743 -1.4922  0.9852
 4812TIP3   OH235850   4.681   5.993  13.645 -0.0996 -0.0659 -0.0206
 4812TIP3    H135851   4.744   6.065  13.653  1.5575 -1.4961  0.3579
 4812TIP3    H235852   4.640   5.988  13.732 -0.0913  0.3189  0.0057
 4813TIP3   OH235853   4.176   0.212  15.413 -1.0059 -0.6441 -0.0803
 4813TIP3    H135854   4.234   0.136  15.420  2.2598  1.5533 -1.4842
 4813TIP3    H235855   4.156   0.236  15.504  1.0682 -0.9838  0.5054
 4814TIP3   OH235856   0.917   4.516   5.248 -0.5840 -0.0013  0.3950
 4814TIP3    H135857   0.906   4.604   5.212 -1.4578 -0.3479 -0.1978
 4814TIP3    H235858   0.970   4.529   5.326 -1.9058  1.2225  1.1157
 4815TIP3   OH235859   5.125   2.259   2.981  0.3461  0.3586  0.5060
 4815TIP3    H135860   5.216   2.241   2.955 -0.0126 -0.4519 -0.2077
 4815TIP3    H235861   5.098   2.183   3.032 -0.6430 -0.4260 -1.1490
 4816TIP3   OH235862   0.557   2.541   4.711  0.5107  0.3979 -0.3237
 4816TIP3    H135863   0.476   2.532   4.661  0.8549  0.1203 -0.8317
 4816TIP3    H235864   0.623   2.562   4.645  1.1732 -1.0134 -0.1205
 4817TIP3   OH235865   2.461   5.698   1.473  0.0222  0.1982 -0.7782
 4817TIP3    H135866   2.436   5.789   1.456 -1.2516  0.0862  0.4204
 4817TIP3    H235867   2.435   5.651   1.394 -0.0328  0.7452 -1.0900
 4818TIP3   OH235868   3.043   6.755  15.222  0.2764  0.2130  0.1806
 4818TIP3    H135869   3.138   6.752  15.209  0.3072 -0.1709  0.4803
 4818TIP3    H235870   3.028   6.832  15.277  0.5806 -0.6684  1.5160
 4819TIP3   OH235871   2.244   4.706  16.108  0.1783 -0.4125  0.6631
 4819TIP3    H135872   2.275   4.646  16.040 -0.5093  0.8684 -0.8292
 4819TIP3    H235873   2.153   4.680  16.123  0.9465 -2.0462  2.6413
 4820TIP3   OH235874   2.894   0.123   4.023 -0.2628  0.1440  0.4828
 4820TIP3    H135875   2.874   0.098   3.933  0.5467  1.9594 -0.2465
 4820TIP3    H235876   2.953   0.199   4.014 -0.3617  0.5022  2.5320
 4821TIP3   OH235877   5.180   1.535   4.267  0.0921 -0.0130  0.1416
 4821TIP3    H135878   5.174   1.630   4.267  1.5826  0.0924  0.5935
 4821TIP3    H235879   5.119   1.507   4.335 -0.8640  0.5775 -0.4692
 4822TIP3   OH235880   1.948   4.641   4.573  0.8441 -0.1538 -0.2511
 4822TIP3    H135881   2.006   4.588   4.628  2.7454  2.4931  0.3978
 4822TIP3    H235882   1.898   4.694   4.634  0.0467 -0.1132 -0.9294
 4823TIP3   OH235883   0.651   4.593  12.349 -0.3260 -0.2113  0.8790
 4823TIP3    H135884   0.684   4.547  12.426 -0.6605 -0.5382  0.8301
 4823TIP3    H235885   0.624   4.678  12.381  1.4496  0.4206  0.7542
 4824TIP3   OH235886   5.423   4.899   0.118  0.6679  0.7353 -0.1541
 4824TIP3    H135887   5.496   4.843   0.091  0.6649 -0.8009  2.8545
 4824TIP3    H235888   5.351   4.838   0.133 -0.9540  2.1392 -2.0613
 4825TIP3   OH235889   3.163   4.910  15.965 -0.0158 -0.1863  0.5711
 4825TIP3    H135890   3.106   4.974  16.008 -1.4114 -0.3497 -1.0025
 4825TIP3    H235891   3.229   4.964  15.920  0.9702  0.0053  2.1971
 4826TIP3   OH235892   3.026   5.416   0.346  0.0492 -0.1909  0.6671
 4826TIP3    H135893   2.969   5.339   0.350  0.2319 -0.3411  0.3355
 4826TIP3    H235894   3.091   5.395   0.280  1.7618 -0.8612  2.5126
 4827TIP3   OH235895   3.030   0.978  15.005 -0.5445 -0.9248 -0.4245
 4827TIP3    H135896   3.126   0.970  15.005 -0.6253 -2.0610  0.8417
 4827TIP3    H235897   2.999   0.889  15.018 -1.8297 -0.8379 -2.5834
 4828TIP3   OH235898   2.037   4.077   0.787  0.2238  0.1845  0.5416
 4828TIP3    H135899   1.999   4.156   0.748  2.7956  0.7520 -0.9341
 4828TIP3    H235900   2.127   4.101   0.808  0.9816 -2.2932  0.3212
 4829TIP3   OH235901   0.379   1.136   3.789  1.1145  0.1432  0.0806
 4829TIP3    H135902   0.433   1.212   3.769  0.7672  0.7915  1.5255
 4829TIP3    H235903   0.311   1.170   3.846  0.7058 -1.1819  0.3959
 4830TIP3   OH235904   4.037   3.687  15.966  0.0140  0.5463  0.3438
 4830TIP3    H135905   4.038   3.737  15.884  0.3156  1.5532  0.9570
 4830TIP3    H235906   4.101   3.618  15.952 -1.5271 -0.6493 -1.0964
 4831TIP3   OH235907   0.770   5.315  14.409 -0.2960  0.0220  1.0859
 4831TIP3    H135908   0.717   5.385  14.447 -1.6093  0.4119 -1.3652
 4831TIP3    H235909   0.852   5.357  14.384 -1.3259  0.8879 -0.9672
 4832TIP3   OH235910   1.488   3.011  16.357 -0.1525 -0.3001 -0.1329
 4832TIP3    H135911   1.530   3.077  16.412 -1.0775 -0.7393  1.1069
 4832TIP3    H235912   1.560   2.977  16.302  0.9533 -0.4584  1.3864
 4833TIP3   OH235913   6.299   4.649  16.040  0.4243 -0.3951 -0.4244
 4833TIP3    H135914   6.206   4.660  16.060  0.3494 -0.0135 -0.9611
 4833TIP3    H235915   6.332   4.739  16.030  0.5227 -0.5558 -1.6793
 4834TIP3   OH235916   3.953   2.843  15.579  0.1386  0.1624  0.0062
 4834TIP3    H135917   3.916   2.924  15.545 -2.0547  0.1881  2.3232
 4834TIP3    H235918   3.897   2.774  15.543  1.4510 -0.2769 -1.2275
 4835TIP3   OH235919   1.684   0.855   1.753 -0.2586 -0.2147 -0.0271
 4835TIP3    H135920   1.620   0.900   1.697 -0.1736 -1.6274 -1.2723
 4835TIP3    H235921   1.742   0.810   1.692  3.0655  2.4345  0.9666
 4836TIP3   OH235922   2.548   6.623   1.206  0.4618 -0.1368  0.5769
 4836TIP3    H135923   2.618   6.596   1.146  0.2992 -1.1981  0.8483
 4836TIP3    H235924   2.518   6.707   1.172 -0.2125 -1.1091 -1.3435
 4837TIP3   OH235925   2.935   1.401  11.770 -0.1878 -0.1059  0.1629
 4837TIP3    H135926   2.972   1.313  11.777  1.3561  0.6315  1.5253
 4837TIP3    H235927   2.926   1.415  11.675  2.6598 -0.4970 -0.2154
 4838TIP3   OH235928   0.875   4.158   5.907 -0.1673 -0.7459  0.3591
 4838TIP3    H135929   0.835   4.149   5.993  0.7600 -0.4588  0.8275
 4838TIP3    H235930   0.820   4.105   5.849 -2.1765  0.9355  0.6665
 4839TIP3   OH235931   1.566   0.603  17.182  0.7229 -0.5088 -0.2649
 4839TIP3    H135932   1.589   0.537  17.117  1.5042 -0.8245  0.3304
 4839TIP3    H235933   1.563   0.685  17.133  1.0970 -0.7800 -0.7422
 4840TIP3   OH235934   5.553   6.495  15.787  0.3788  0.2267  0.4826
 4840TIP3    H135935   5.557   6.426  15.720  0.5687 -0.8911  1.6385
 4840TIP3    H235936   5.494   6.561  15.749  2.7346  0.9922 -2.0307
 4841TIP3   OH235937   0.144   4.353   1.010 -0.3784 -0.8273 -0.7456
 4841TIP3    H135938   0.068   4.410   0.995  0.0290  0.3115  1.3588
 4841TIP3    H235939   0.117   4.268   0.974 -1.4053  0.3805 -2.9229
 4842TIP3   OH235940   0.223   5.227  16.744 -0.0323  1.1626  0.4112
 4842TIP3    H135941   0.178   5.283  16.682 -0.6872  1.7421  1.4064
 4842TIP3    H235942   0.159   5.210  16.813  0.1915 -0.7102  0.1870
 4843TIP3   OH235943   3.095   4.301   0.900 -0.1889 -0.2134 -0.5159
 4843TIP3    H135944   3.107   4.206   0.909  1.1959 -0.0291 -0.4511
 4843TIP3    H235945   3.183   4.337   0.901 -0.7198  1.1042 -0.3631
 4844TIP3   OH235946   5.792   6.768  13.024  0.3727 -0.5619 -0.3461
 4844TIP3    H135947   5.720   6.832  13.033  0.7519  0.1515 -2.0947
 4844TIP3    H235948   5.823   6.755  13.113 -0.3208  1.0108  0.1614
 4845TIP3   OH235949   6.557   0.891   4.138  0.1604 -0.1948  0.3691
 4845TIP3    H135950   6.584   0.824   4.201 -0.5845  2.2676  3.4022
 4845TIP3    H235951   6.638   0.933   4.111  0.4145 -0.7605  0.2499
 4846TIP3   OH235952   0.549   5.986   4.328  0.2901  0.0738  0.3080
 4846TIP3    H135953   0.545   5.951   4.416  0.6437 -2.0583 -0.4910
 4846TIP3    H235954   0.485   6.057   4.327  1.4309  1.1781  2.7102
 4847TIP3   OH235955   1.143   4.104   3.851  0.2404  0.5447 -0.0219
 4847TIP3    H135956   1.115   4.014   3.838  1.0412  0.0027  1.8072
 4847TIP3    H235957   1.063   4.152   3.871  0.0377 -0.1388  0.8411
 4848TIP3   OH235958   4.387   3.187   1.751  0.1904  0.1893 -0.1171
 4848TIP3    H135959   4.331   3.110   1.749  0.4698 -0.0971  1.7708
 4848TIP3    H235960   4.394   3.209   1.844  3.1028  0.2919 -0.3162
 4849TIP3   OH235961   5.120   5.826   0.914 -0.0302  0.3613 -0.1457
 4849TIP3    H135962   5.151   5.737   0.898  0.2962  0.0657  1.9611
 4849TIP3    H235963   5.122   5.835   1.009 -0.3368  2.5327 -0.3243
 4850TIP3   OH235964   3.439   6.187  14.539  0.3226 -0.5358  0.0436
 4850TIP3    H135965   3.529   6.173  14.510  0.1451  0.7829 -1.2511
 4850TIP3    H235966   3.443   6.267  14.593 -0.0546 -0.5126  0.0419
 4851TIP3   OH235967   6.344   0.624   2.737 -0.0205  0.1227 -0.1244
 4851TIP3    H135968   6.252   0.645   2.752 -0.2239 -0.4449 -0.5648
 4851TIP3    H235969   6.345   0.530   2.720  0.7788 -0.0829  0.9827
 4852TIP3   OH235970   3.742   4.989   4.580  0.1295 -0.2884 -0.6427
 4852TIP3    H135971   3.728   4.956   4.492  0.3140 -3.0716  0.3165
 4852TIP3    H235972   3.721   4.915   4.637  1.1085  1.1060  1.6048
 4853TIP3   OH235973   6.444   2.454  12.297  0.3034 -0.1279  0.0098
 4853TIP3    H135974   6.520   2.510  12.289  0.7621 -0.5742  1.1232
 4853TIP3    H235975   6.393   2.492  12.369 -0.3820  0.0127 -0.5456
 4854TIP3   OH235976   4.776   5.172   1.630  1.0071  0.6794 -0.2894
 4854TIP3    H135977   4.813   5.245   1.581  1.4095 -0.3438 -1.5545
 4854TIP3    H235978   4.710   5.211   1.686  1.4592  2.0516 -0.7043
 4855TIP3   OH235979   3.368   0.234  11.391 -0.0531 -0.5823 -0.0101
 4855TIP3    H135980   3.346   0.175  11.463 -1.8013 -0.5289 -0.4806
 4855TIP3    H235981   3.315   0.203  11.318 -1.7362  2.1440 -0.0076
 4856TIP3   OH235982   2.528   0.596   1.820  0.6102  0.3130 -0.7917
 4856TIP3    H135983   2.457   0.539   1.793  0.8147 -0.1678 -0.3401
 4856TIP3    H235984   2.516   0.676   1.770  0.2279 -0.0697 -1.3161
 4857TIP3   OH235985   4.829   0.206   6.022 -0.6119  0.0579 -0.0046
 4857TIP3    H135986   4.798   0.246   6.104  0.6136 -1.2845  1.1466
 4857TIP3    H235987   4.756   0.151   5.994 -0.8103  0.0358  0.5384
 4858TIP3   OH235988   2.215   5.260  15.612  0.5369  0.0560 -0.0695
 4858TIP3    H135989   2.290   5.312  15.581  1.0194 -0.3099  0.4668
 4858TIP3    H235990   2.253   5.201  15.676 -0.2104 -0.1903  0.1423
 4859TIP3   OH235991   6.461   3.534   5.146 -0.2635  0.1168 -0.1561
 4859TIP3    H135992   6.416   3.535   5.231 -0.0052 -0.7340 -0.0056
 4859TIP3    H235993   6.553   3.549   5.167 -0.4151  1.5210 -0.4379
 4860TIP3   OH235994   1.229   4.538   2.344 -0.1026 -0.1265 -0.3055
 4860TIP3    H135995   1.252   4.565   2.255 -0.9740 -0.8056 -0.7434
 4860TIP3    H235996   1.150   4.485   2.334 -0.3601  0.0086  0.9048
 4861TIP3   OH235997   0.766   2.137   3.533  0.0505 -0.6734 -0.3833
 4861TIP3    H135998   0.845   2.174   3.494  1.1193  0.5941  2.7723
 4861TIP3    H235999   0.709   2.212   3.547 -1.6820 -1.5522 -2.4435
 4862TIP3   OH236000   3.577   5.807  16.411  0.3802 -0.2744  0.1952
 4862TIP3    H136001   3.577   5.794  16.505 -2.4343 -3.4956 -0.1318
 4862TIP3    H236002   3.634   5.739  16.376 -0.4589 -0.6282 -0.5298
 4863TIP3   OH236003   5.258   4.601   3.191 -0.5339  0.0836 -0.3111
 4863TIP3    H136004   5.326   4.669   3.194 -0.7361  0.2844 -0.2841
 4863TIP3    H236005   5.306   4.521   3.170 -0.3867  0.3521 -1.0234
 4864TIP3   OH236006   3.421   6.403   2.798  0.3373  0.2163 -0.4992
 4864TIP3    H136007   3.502   6.365   2.764 -0.5251 -2.9138  0.7282
 4864TIP3    H236008   3.380   6.445   2.723  2.9112  1.5821 -1.2030
 4865TIP3   OH236009   1.621   2.009  12.267 -0.3132 -0.2662 -0.4172
 4865TIP3    H136010   1.566   1.973  12.197 -0.0689 -3.2747  0.8480
 4865TIP3    H236011   1.618   1.942  12.336  2.0054  1.1790  1.1335
 4866TIP3   OH236012   1.944   3.287  11.675 -0.2397 -0.1635  0.1170
 4866TIP3    H136013   2.026   3.237  11.681  0.8395  1.4920 -0.6384
 4866TIP3    H236014   1.972   3.376  11.652 -2.2954  0.2328 -0.9342
 4867TIP3   OH236015   4.387   6.500   0.752 -0.0432 -0.0694  0.4568
 4867TIP3    H136016   4.350   6.447   0.822 -0.4041  0.5730  0.7562
 4867TIP3    H236017   4.477   6.467   0.742 -0.5252 -1.2768  0.0831
 4868TIP3   OH236018   6.539   5.165  14.185 -0.1672 -0.0434  0.4524
 4868TIP3    H136019   6.582   5.205  14.109 -0.9153 -0.2509 -0.0904
 4868TIP3    H236020   6.603   5.171  14.255  0.0781  1.2399  0.1193
 4869TIP3   OH236021   5.410   2.233  15.523 -0.5691  0.4120  0.9278
 4869TIP3    H136022   5.419   2.253  15.430 -0.8578  1.9357  1.2101
 4869TIP3    H236023   5.346   2.297  15.555 -0.1317  0.1955  2.2732
 4870TIP3   OH236024   6.307   0.444   3.326  1.2729 -0.8026 -0.1695
 4870TIP3    H136025   6.271   0.466   3.412 -1.2870  1.4021 -1.7152
 4870TIP3    H236026   6.396   0.479   3.328  0.5032  1.1860  0.8471
 4871TIP3   OH236027   2.457   2.677   2.833  0.0779 -0.0293 -0.0142
 4871TIP3    H136028   2.398   2.741   2.874 -1.0109 -1.9444  1.5108
 4871TIP3    H236029   2.398   2.611   2.797  1.2467 -0.8950 -0.3474
 4872TIP3   OH236030   6.514   4.133  12.726 -0.9062 -0.9201 -0.0932
 4872TIP3    H136031   6.524   4.063  12.790  1.8686 -1.6401 -1.2610
 4872TIP3    H236032   6.470   4.091  12.652  2.3305 -1.9702 -1.5117
 4873TIP3   OH236033   6.413   5.469  15.953 -0.4371  0.0100  0.1689
 4873TIP3    H136034   6.321   5.478  15.929 -1.3819  0.2105  3.4993
 4873TIP3    H236035   6.439   5.556  15.982 -0.5302 -0.9513  3.3571
 4874TIP3   OH236036   1.839   1.384  11.052 -0.1693 -0.4497 -0.2418
 4874TIP3    H136037   1.746   1.406  11.051  0.1432  1.0092  0.3774
 4874TIP3    H236038   1.843   1.291  11.033 -1.7552 -0.4991 -0.3379
 4875TIP3   OH236039   1.518   6.692   5.646  0.0502 -0.1121  0.2366
 4875TIP3    H136040   1.554   6.702   5.557  0.3027 -0.6602  0.2726
 4875TIP3    H236041   1.595   6.698   5.703  0.2340 -2.1885  0.2606
 4876TIP3   OH236042   4.374   0.078  16.214  0.1246 -0.8544  0.7957
 4876TIP3    H136043   4.353   0.161  16.257 -0.1799 -0.1562 -0.6663
 4876TIP3    H236044   4.386   0.101  16.122  1.6306 -2.1734  0.6386
 4877TIP3   OH236045   2.747   6.080  16.801  0.1665 -0.0668 -0.2179
 4877TIP3    H136046   2.682   6.150  16.808  0.2473  0.1711 -1.7292
 4877TIP3    H236047   2.729   6.039  16.716  1.8880 -0.1131 -0.5788
 4878TIP3   OH236048   0.489   4.558   4.577 -0.1216  0.0216 -0.7383
 4878TIP3    H136049   0.583   4.572   4.586 -0.0726 -0.6523 -0.1675
 4878TIP3    H236050   0.466   4.500   4.649 -1.7063  3.4117  1.6167
 4879TIP3   OH236051   1.757   1.513  14.258 -0.0402  0.2895  0.4700
 4879TIP3    H136052   1.835   1.482  14.212 -0.8034  0.1570 -0.7396
 4879TIP3    H236053   1.717   1.576  14.199 -1.0044  0.1630  0.9825
 4880TIP3   OH236054   1.757   0.355  12.476  0.2897 -0.0405  0.6645
 4880TIP3    H136055   1.670   0.335  12.440  0.8714  1.0197 -1.4098
 4880TIP3    H236056   1.817   0.340  12.403  1.5725  1.7915  1.3147
 4881TIP3   OH236057   4.615   0.321   0.438 -0.1690  0.3566  0.1219
 4881TIP3    H136058   4.534   0.339   0.390 -0.3194  2.7288  1.1972
 4881TIP3    H236059   4.625   0.396   0.496  2.3014 -0.3917  0.6964
 4882TIP3   OH236060   2.295   6.119   5.544  0.1506  0.2938  0.1819
 4882TIP3    H136061   2.217   6.137   5.596  0.3280  0.4152  0.4104
 4882TIP3    H236062   2.291   6.026   5.524 -1.0534  0.6811 -1.4575
 4883TIP3   OH236063   5.092   1.633  12.046  0.1355 -0.4920  0.8280
 4883TIP3    H136064   5.143   1.554  12.027 -2.7426 -2.4042  0.7922
 4883TIP3    H236065   5.072   1.670  11.960  0.2537 -0.5418  0.7781
 4884TIP3   OH236066   2.974   3.804  12.597  0.2570 -0.2924 -0.0846
 4884TIP3    H136067   3.041   3.738  12.615 -0.2152 -0.6872  0.2022
 4884TIP3    H236068   2.944   3.784  12.508  0.3147 -0.2896 -0.1049
 4885TIP3   OH236069   1.667   1.461  15.338 -0.1062  0.0088 -0.1704
 4885TIP3    H136070   1.689   1.444  15.430 -0.5259  0.4728  0.0179
 4885TIP3    H236071   1.752   1.473  15.296  0.0782  0.0760  0.2137
 4886TIP3   OH236072   6.767   1.104  13.414  0.4711 -0.9268  0.2586
 4886TIP3    H136073   6.853   1.110  13.455  1.6013 -0.8258 -2.0829
 4886TIP3    H236074   6.742   1.012  13.426  2.2586 -1.6945 -1.7042
 4887TIP3   OH236075   4.921   3.782  15.762  0.0646 -0.2660 -0.0501
 4887TIP3    H136076   4.859   3.756  15.693  0.0953  0.0550 -0.2017
 4887TIP3    H236077   5.001   3.733  15.742  0.2400  0.2059 -0.5478
 4888TIP3   OH236078   3.045   6.141   4.954  0.4191  0.1741  0.3742
 4888TIP3    H136079   3.076   6.158   5.043  1.6095  0.0311  0.0010
 4888TIP3    H236080   3.050   6.226   4.911  2.0407 -0.1945 -0.1998
 4889TIP3   OH236081   4.285   6.477  12.059  0.2667 -0.1841  0.7154
 4889TIP3    H136082   4.298   6.486  11.964  0.8383 -0.5586  0.7578
 4889TIP3    H236083   4.237   6.556  12.084  1.9824  0.9658  0.4604
 4890TIP3   OH236084   0.775   2.248  10.638 -0.1633 -0.0134  0.0011
 4890TIP3    H136085   0.741   2.203  10.716 -0.8029 -0.8929 -0.7883
 4890TIP3    H236086   0.839   2.187  10.601  1.1630  0.9818  0.6012
 4891TIP3   OH236087   3.707   5.370  11.953  0.5066 -0.0480  0.1243
 4891TIP3    H136088   3.699   5.365  12.048  0.8271 -1.4421  0.0928
 4891TIP3    H236089   3.795   5.404  11.937  0.8751 -0.9048  0.3199
 4892TIP3   OH236090   6.592   5.245  12.243 -0.2648  0.0454 -0.4306
 4892TIP3    H136091   6.518   5.186  12.258 -0.2672  0.0389 -0.4667
 4892TIP3    H236092   6.667   5.197  12.278 -0.4150  0.4396  0.4384
 4893TIP3   OH236093   0.937   1.641  17.052  0.0248  0.3776 -0.3099
 4893TIP3    H136094   1.010   1.664  16.995  0.7615  0.3862  0.6394
 4893TIP3    H236095   0.964   1.669  17.139 -1.0250  0.1987  0.0782
 4894TIP3   OH236096   1.560   3.003   0.992  0.0009 -0.3582  0.1883
 4894TIP3    H136097   1.502   3.070   1.028 -1.7634 -2.3192  1.1580
 4894TIP3    H236098   1.614   2.975   1.066  0.1976 -0.5586 -0.0277
 4895TIP3   OH236099   1.153   4.844   3.598 -0.4532 -0.3932 -0.0121
 4895TIP3    H136100   1.129   4.932   3.627  0.3917  0.0847 -0.7656
 4895TIP3    H236101   1.248   4.843   3.596 -0.4572 -1.2278 -0.3080
 4896TIP3   OH236102   1.830   0.002  16.457  0.6067 -0.0126 -0.2679
 4896TIP3    H136103   1.746   0.047  16.447  0.1881 -0.7446 -0.0885
 4896TIP3    H236104   1.866  -0.001  16.369  0.2691 -0.0390 -0.4067
 4897TIP3   OH236105   0.149   0.565  15.310  0.1302 -0.0969  0.1426
 4897TIP3    H136106   0.112   0.564  15.222 -1.8785  1.0049  0.9318
 4897TIP3    H236107   0.129   0.653  15.343  1.0751 -0.4104  1.6142
 4898TIP3   OH236108   0.798   1.098   3.181 -0.1980  0.7092  0.2213
 4898TIP3    H136109   0.820   1.180   3.137 -1.8453  0.0031 -1.9924
 4898TIP3    H236110   0.820   1.030   3.118 -1.7738 -0.3650  0.7835
 4899TIP3   OH236111   1.976   0.429   3.452  0.3754 -0.0052  0.1754
 4899TIP3    H136112   1.883   0.408   3.437  0.0583  0.6817  1.1541
 4899TIP3    H236113   1.975   0.492   3.523  1.5258  1.0159 -0.6991
 4900TIP3   OH236114   1.158   0.763  14.423  0.5788 -0.4506 -0.1556
 4900TIP3    H136115   1.251   0.747  14.410  0.4896 -0.4782 -0.7912
 4900TIP3    H236116   1.154   0.851  14.462  0.7631  0.5791 -2.3334
 4901TIP3   OH236117   5.664   1.336   5.942 -0.0193  0.7754  0.3607
 4901TIP3    H136118   5.708   1.253   5.919  0.1525  1.1469 -0.7029
 4901TIP3    H236119   5.668   1.388   5.861 -1.4634  1.2369  0.5681
 4902TIP3   OH236120   1.831   2.658  16.218  0.6564  0.1803 -1.0765
 4902TIP3    H136121   1.808   2.667  16.310  1.1841  2.7840 -1.1616
 4902TIP3    H236122   1.840   2.564  16.205  1.4229 -0.1987  1.7515
 4903TIP3   OH236123   3.533   0.157   5.392  0.6911  0.9049 -0.1854
 4903TIP3    H136124   3.599   0.105   5.346 -1.4340 -1.2020 -0.9817
 4903TIP3    H236125   3.450   0.133   5.351 -0.8683  1.6978  2.3245
 4904TIP3   OH236126   1.417   4.752   5.326  0.4812 -0.2124  0.4772
 4904TIP3    H136127   1.370   4.828   5.292 -0.5595 -0.4798  1.2851
 4904TIP3    H236128   1.400   4.754   5.420 -0.2633 -1.9287  0.3932
 4905TIP3   OH236129   3.655   1.387   4.676 -0.1802  0.1964 -0.4656
 4905TIP3    H136130   3.654   1.482   4.689 -0.4842  0.3476 -1.5704
 4905TIP3    H236131   3.697   1.352   4.755  0.4602  1.2927 -0.3164
 4906TIP3   OH236132   6.446   1.301   3.698 -0.2039 -0.2145  0.1792
 4906TIP3    H136133   6.397   1.381   3.678 -1.0498 -0.8264 -0.2177
 4906TIP3    H236134   6.530   1.313   3.654 -1.0213 -0.3421 -1.4310
 4907TIP3   OH236135   0.749   0.160   0.695 -0.1765  0.0540  0.2529
 4907TIP3    H136136   0.802   0.081   0.683 -0.2714 -0.0850  0.7472
 4907TIP3    H236137   0.684   0.156   0.625  0.0596 -0.1033  0.0377
 4908TIP3   OH236138   0.951   0.219  14.834 -0.8418  0.3542 -0.1396
 4908TIP3    H136139   0.959   0.229  14.740 -0.8300  1.8169  0.0031
 4908TIP3    H236140   0.991   0.298  14.870  0.5937 -0.9362  1.1460
 4909TIP3   OH236141   5.130   0.844   4.789  0.3896 -0.5237  0.7103
 4909TIP3    H136142   5.218   0.809   4.777  1.0277  1.2056  0.2023
 4909TIP3    H236143   5.100   0.866   4.701  1.0048  2.5063  1.2016
 4910TIP3   OH236144   3.665   5.452  14.818  0.5237  0.3337  0.1882
 4910TIP3    H136145   3.719   5.454  14.739 -0.2246  1.7518 -0.2905
 4910TIP3    H236146   3.702   5.519  14.875  1.0844 -0.7080  1.0827
 4911TIP3   OH236147   5.962   1.644  17.089 -0.3358  0.3315 -0.1761
 4911TIP3    H136148   5.909   1.579  17.044  0.8890 -0.7295 -0.1374
 4911TIP3    H236149   6.009   1.689  17.019  1.0125 -0.8216 -0.0468
 4912TIP3   OH236150   4.524   5.643   5.900 -0.2410  0.2514  0.2451
 4912TIP3    H136151   4.572   5.718   5.863  0.4303 -0.6627 -0.7719
 4912TIP3    H236152   4.440   5.644   5.855  0.0610 -0.0517 -0.3404
 4913TIP3   OH236153   2.440   6.317   3.310  0.1666  0.5478 -0.1525
 4913TIP3    H136154   2.456   6.223   3.301 -2.7148  0.0783 -1.0446
 4913TIP3    H236155   2.407   6.326   3.400 -0.0456  0.6070 -0.2353
 4914TIP3   OH236156   2.706   4.102  13.958  0.4868 -0.2294 -0.3032
 4914TIP3    H136157   2.620   4.091  13.997 -0.2097  0.7021 -1.5646
 4914TIP3    H236158   2.730   4.015  13.927  0.5789 -0.7537  1.1950
 4915TIP3   OH236159   4.538   1.858   4.389  0.0478  0.3376  0.7842
 4915TIP3    H136160   4.488   1.780   4.414 -1.3884  0.3850 -1.8057
 4915TIP3    H236161   4.613   1.823   4.341 -0.8142  0.5371 -0.7398
 4916TIP3   OH236162   0.554   3.516  16.429  0.3513 -0.0316 -0.1590
 4916TIP3    H136163   0.543   3.609  16.411 -1.4887 -0.1398  0.3843
 4916TIP3    H236164   0.648   3.501  16.416  0.7364  1.9686  0.1194
 4917TIP3   OH236165   1.679   3.885   4.568 -0.4291  0.6456  0.5477
 4917TIP3    H136166   1.612   3.822   4.542 -0.0285  0.0206  0.9926
 4917TIP3    H236167   1.736   3.893   4.491  0.5778 -0.9633  1.0951
 4918TIP3   OH236168   3.439   1.866  15.367  0.1924 -0.5381 -0.2109
 4918TIP3    H136169   3.376   1.821  15.423  0.3863  1.0345  1.2935
 4918TIP3    H236170   3.385   1.919  15.308  0.0692  0.4569  0.7754
 4919TIP3   OH236171   5.377   1.293  14.184 -0.3378 -0.0129 -0.7014
 4919TIP3    H136172   5.424   1.300  14.101 -1.2668  3.5866 -1.0202
 4919TIP3    H236173   5.323   1.372  14.187 -1.0467 -0.5567  2.8993
 4920TIP3   OH236174   3.500   2.091  11.790  0.1595 -0.8496  0.4722
 4920TIP3    H136175   3.509   2.165  11.849  0.5027  1.0690 -1.8992
 4920TIP3    H236176   3.512   2.014  11.845 -0.7143  0.8200  3.0821
 4921TIP3   OH236177   2.039   3.648   0.207 -0.0908 -0.0108  0.3558
 4921TIP3    H136178   2.014   3.655   0.299 -3.1108 -0.3092 -0.4048
 4921TIP3    H236179   1.991   3.718   0.163  1.2085  0.0333 -1.0537
 4922TIP3   OH236180   3.956   5.304   2.639 -0.4051 -0.1193  0.1588
 4922TIP3    H136181   3.989   5.215   2.628  1.2271  0.2978  1.4731
 4922TIP3    H236182   3.867   5.293   2.674 -0.8381 -1.2306 -1.2493
 4923TIP3   OH236183   6.576   1.206  16.387  0.6510  0.2813  0.4518
 4923TIP3    H136184   6.606   1.265  16.457  0.4468  0.2970  0.5280
 4923TIP3    H236185   6.514   1.259  16.337 -0.2861 -0.1940  1.1122
 4924TIP3   OH236186   6.119   4.481   0.024  0.3875  0.1603  0.2837
 4924TIP3    H136187   6.122   4.523   0.111  1.8155 -0.2038  0.4150
 4924TIP3    H236188   6.178   4.533  -0.030  0.9113 -0.6962  0.0159
 4925TIP3   OH236189   5.838   5.063  13.273 -0.2082 -0.1201  0.0856
 4925TIP3    H136190   5.854   5.137  13.215 -0.0765  0.3068  0.6644
 4925TIP3    H236191   5.745   5.044  13.262 -0.6402  1.2608  1.2608
 4926TIP3   OH236192   1.862   0.899  12.436 -0.3935  0.3285 -0.0242
 4926TIP3    H136193   1.902   0.813  12.451 -1.5820  0.1253  2.2856
 4926TIP3    H236194   1.932   0.961  12.452  0.6163 -0.1845 -2.2071
 4927TIP3   OH236195   6.618   4.151  16.735  0.0149 -0.9307  0.1558
 4927TIP3    H136196   6.707   4.134  16.768  1.5052  2.3303 -1.9075
 4927TIP3    H236197   6.566   4.166  16.814  1.8405 -0.4803  1.3078
 4928TIP3   OH236198   4.497   3.174  16.636 -0.2146  0.0826  0.0586
 4928TIP3    H136199   4.568   3.187  16.573  1.6247 -0.3537  1.9719
 4928TIP3    H236200   4.429   3.235  16.609  0.1270 -0.7750 -2.9024
 4929TIP3   OH236201   1.269   4.973  16.173 -0.5011 -0.1906  0.1556
 4929TIP3    H136202   1.345   4.916  16.160  1.4264  2.1510  0.8914
 4929TIP3    H236203   1.299   5.059  16.145 -3.2037  0.5986 -0.4067
 4930TIP3   OH236204   6.460   0.348   2.820 -0.3818 -0.7342 -0.4735
 4930TIP3    H136205   6.446   0.345   2.725  0.7630  1.0632 -0.7340
 4930TIP3    H236206   6.451   0.257   2.848 -1.1136 -1.2448 -2.2440
 4931TIP3   OH236207   3.157   3.324   0.687 -0.2089  0.0215  0.0114
 4931TIP3    H136208   3.238   3.290   0.724  0.5944  0.6796 -1.0783
 4931TIP3    H236209   3.090   3.305   0.752  0.5222 -2.0345  0.1947
 4932TIP3   OH236210   0.918   4.800  16.617  0.5488 -0.1185  0.6204
 4932TIP3    H136211   0.970   4.872  16.653  0.9965 -0.0583 -0.1547
 4932TIP3    H236212   0.829   4.837  16.610  0.8071  0.4137  0.0809
 4933TIP3   OH236213   2.192   2.124   2.635  0.4034 -0.0220  0.1932
 4933TIP3    H136214   2.126   2.091   2.574  0.8457  0.1151 -0.3582
 4933TIP3    H236215   2.150   2.199   2.677 -0.8205 -1.5934  1.8614
 4934TIP3   OH236216   2.743   2.649   2.532  0.2620 -0.1595 -0.3612
 4934TIP3    H136217   2.754   2.740   2.505  0.7674 -0.3297 -0.7127
 4934TIP3    H236218   2.788   2.598   2.465  1.0940 -0.6022  0.5247
 4935TIP3   OH236219   3.971   6.354   1.605  0.2621  0.3164 -0.2344
 4935TIP3    H136220   3.983   6.384   1.695 -0.3989  1.3312 -0.4817
 4935TIP3    H236221   3.980   6.432   1.552 -1.7013  0.1384 -0.8606
 4936TIP3   OH236222   1.812   1.775  15.737 -0.4935 -0.4675 -0.2291
 4936TIP3    H136223   1.826   1.705  15.673  0.3283 -0.2645 -0.2710
 4936TIP3    H236224   1.744   1.830  15.698  0.4752  0.0327 -1.2386
 4937TIP3   OH236225   4.901   3.881   1.552  0.1298  0.3926 -0.0057
 4937TIP3    H136226   4.886   3.838   1.636  1.2433 -0.7375 -0.3660
 4937TIP3    H236227   4.854   3.827   1.489 -0.7802  1.2922 -0.1111
 4938TIP3   OH236228   6.637   2.831   5.101  0.0195  0.3696  0.5722
 4938TIP3    H136229   6.648   2.764   5.169 -0.8758  1.2288  1.5909
 4938TIP3    H236230   6.721   2.833   5.055  0.4848 -0.5488  1.3687
 4939TIP3   OH236231   5.035   0.778  16.333  0.4238  0.5187 -0.0186
 4939TIP3    H136232   5.007   0.760  16.243 -0.1885 -1.3998  0.5315
 4939TIP3    H236233   4.974   0.845  16.364 -1.3081 -0.9886 -0.0536
 4940TIP3   OH236234   6.255   3.274  11.924  0.2024 -0.1759  0.0215
 4940TIP3    H136235   6.258   3.333  11.849 -0.3683 -0.0646  0.0778
 4940TIP3    H236236   6.317   3.310  11.986  1.5548 -0.9337 -0.8714
 4941TIP3   OH236237   3.671   4.409   0.876 -0.1596  0.1739 -0.6010
 4941TIP3    H136238   3.759   4.426   0.841  0.5531 -2.1258  0.0164
 4941TIP3    H236239   3.666   4.465   0.953  0.3733  1.0776 -1.2094
 4942TIP3   OH236240   0.567   2.423  10.723 -0.3238 -0.0153 -0.2313
 4942TIP3    H136241   0.598   2.513  10.714  0.3300 -0.1146  0.9918
 4942TIP3    H236242   0.622   2.372  10.663  2.1276 -0.2340  2.1264
 4943TIP3   OH236243   2.893   0.909  13.455  0.1315  0.5076 -0.2012
 4943TIP3    H136244   2.922   1.000  13.455 -0.6241  0.7571  0.2543
 4943TIP3    H236245   2.943   0.867  13.386  0.6723  1.2134 -0.2387
 4944TIP3   OH236246   2.888   0.964   6.536 -0.6536 -0.5843 -0.1285
 4944TIP3    H136247   2.947   0.943   6.464 -4.8741 -0.3465 -3.9293
 4944TIP3    H236248   2.882   0.883   6.587  0.2086 -1.7192 -1.7788
 4945TIP3   OH236249   4.172   5.991  15.375 -0.5256  0.0275 -0.0462
 4945TIP3    H136250   4.104   6.057  15.388 -1.0080 -0.3022 -0.8842
 4945TIP3    H236251   4.140   5.913  15.420  0.0430  0.3512  0.9408
 4946TIP3   OH236252   1.087   0.739   1.269  0.2026  0.1350  0.5221
 4946TIP3    H136253   1.048   0.802   1.330  1.7897  2.6686 -1.0123
 4946TIP3    H236254   1.173   0.719   1.307  1.7209  2.6683 -1.3986
 4947TIP3   OH236255   4.387   5.788  14.985  0.2350  0.0539  0.0269
 4947TIP3    H136256   4.358   5.844  15.057  0.0200 -0.2125  0.1464
 4947TIP3    H236257   4.322   5.802  14.916 -0.3964 -0.8370  0.4374
 4948TIP3   OH236258   4.977   4.920   0.378 -0.0890  0.3411 -0.2048
 4948TIP3    H136259   4.932   4.975   0.441 -0.7519 -0.3190 -0.1040
 4948TIP3    H236260   5.070   4.936   0.394 -0.2613  0.3409  0.7824
 4949TIP3   OH236261   5.502   2.491  16.887  0.3643 -0.1482  0.9930
 4949TIP3    H136262   5.593   2.518  16.891  0.2594  0.7626 -1.6792
 4949TIP3    H236263   5.454   2.563  16.930  0.6544  0.8329 -0.2968
 4950TIP3   OH236264   0.001   1.008   4.015  0.5209  0.6231  0.6362
 4950TIP3    H136265  -0.051   1.078   3.974 -4.4057 -3.1475 -0.0113
 4950TIP3    H236266   0.010   0.942   3.947  4.1225 -0.0149  1.6077
 4951TIP3   OH236267   6.476   5.521  15.272  0.1941  0.2160 -0.4398
 4951TIP3    H136268   6.553   5.495  15.222 -0.4397 -2.1637 -0.2267
 4951TIP3    H236269   6.509   5.535  15.361  0.6025  0.5321 -0.6380
 4952TIP3   OH236270   0.560   3.581   1.185  0.5988  0.0598 -0.3210
 4952TIP3    H136271   0.485   3.533   1.219  1.4425 -1.3902 -0.4876
 4952TIP3    H236272   0.529   3.671   1.177  0.0043  0.2356  3.1255
 4953TIP3   OH236273   1.873   3.673  16.802 -0.2114  0.1880  0.2043
 4953TIP3    H136274   1.793   3.657  16.752  0.7642 -0.6789 -1.1058
 4953TIP3    H236275   1.907   3.755  16.766 -0.4458  0.5084  0.6973
 4954TIP3   OH236276   2.270   4.428  13.597  0.5718  0.1134  0.0010
 4954TIP3    H136277   2.312   4.514  13.595  0.2880  0.3136  1.7333
 4954TIP3    H236278   2.281   4.398  13.687 -0.3560 -1.1544 -0.2894
 4955TIP3   OH236279   5.904   4.698   4.747  0.0880  1.1746 -0.8769
 4955TIP3    H136280   5.874   4.723   4.660 -0.1083 -0.0159 -1.1622
 4955TIP3    H236281   5.961   4.769   4.775  1.7432  0.6224 -2.7966
 4956TIP3   OH236282   2.405   5.781   2.909  0.2071 -0.1769  0.2292
 4956TIP3    H136283   2.497   5.759   2.892  0.7708  1.7672  0.5536
 4956TIP3    H236284   2.392   5.864   2.862 -1.5661 -0.7522 -0.3174
 4957TIP3   OH236285   4.439   5.031  12.922  0.0915  0.1838  0.3332
 4957TIP3    H136286   4.348   5.009  12.902 -0.0065  1.0185 -0.1873
 4957TIP3    H236287   4.455   5.113  12.874  1.6392 -0.8703 -1.0032
 4958TIP3   OH236288   4.814   2.976  12.864 -0.3740 -0.0598  0.2037
 4958TIP3    H136289   4.795   3.013  12.950  0.5008 -2.4201  1.4490
 4958TIP3    H236290   4.898   3.016  12.839 -0.4829  0.4007  0.5576
 4959TIP3   OH236291   0.286   6.184  13.606  0.3377  0.1555 -0.2314
 4959TIP3    H136292   0.314   6.236  13.681 -2.5848  1.4811  0.0025
 4959TIP3    H236293   0.289   6.245  13.532 -1.6335  0.2550 -0.2427
 4960TIP3   OH236294   5.897   0.831  13.850 -0.7826  0.6011  0.2472
 4960TIP3    H136295   5.941   0.751  13.876 -0.2146  0.9110  0.2439
 4960TIP3    H236296   5.962   0.879  13.799 -1.1334  1.0450  0.2141
 4961TIP3   OH236297   1.013   1.389  14.283  0.1531  0.2064 -0.5195
 4961TIP3    H136298   0.999   1.296  14.300  4.0315 -0.8587 -2.5351
 4961TIP3    H236299   1.056   1.421  14.363 -1.1204  0.2740  0.1481
 4962TIP3   OH236300   6.144   4.764   1.705  0.1950  0.0430  0.6961
 4962TIP3    H136301   6.177   4.770   1.615 -1.1349 -0.3022  0.1785
 4962TIP3    H236302   6.137   4.855   1.734 -1.5068  0.2708 -0.3555
 4963TIP3   OH236303   4.019   1.712  11.637 -0.1904  0.3436  0.3735
 4963TIP3    H136304   3.995   1.674  11.721 -1.2718  0.9125  0.3222
 4963TIP3    H236305   3.956   1.782  11.623 -0.9079 -0.6604 -1.5983
 4964TIP3   OH236306   6.186   1.206  12.074  0.6163 -0.3892  0.1786
 4964TIP3    H136307   6.170   1.112  12.079  1.6212 -0.5331  0.8385
 4964TIP3    H236308   6.209   1.222  11.983 -4.0670 -0.0233 -1.0382
 4965TIP3   OH236309   3.933   0.361  12.867  0.3113  0.0274 -0.4048
 4965TIP3    H136310   3.888   0.291  12.819 -1.6658  1.6229 -0.9512
 4965TIP3    H236311   3.904   0.349  12.958  1.3583 -0.9064 -0.1819
 4966TIP3   OH236312   3.500   4.187  16.269 -0.4538  0.0077  1.0598
 4966TIP3    H136313   3.461   4.238  16.339 -1.4541  2.6302 -1.2931
 4966TIP3    H236314   3.427   4.142  16.228 -0.0499 -0.5914  0.9988
 4967TIP3   OH236315   2.605   0.993   4.491 -0.2829  0.7459  0.2516
 4967TIP3    H136316   2.603   0.916   4.548  1.1470  1.4398  1.2528
 4967TIP3    H236317   2.562   0.964   4.410 -2.3734 -0.2353  1.6821
 4968TIP3   OH236318   4.938   4.259  11.753  0.0450  0.1776 -0.1782
 4968TIP3    H136319   4.984   4.214  11.824  0.9468 -0.5789 -1.2267
 4968TIP3    H236320   4.944   4.352  11.775  1.3237  0.0222  0.1447
 4969TIP3   OH236321   1.098   6.225   5.697  0.2509 -0.0140 -0.0328
 4969TIP3    H136322   1.028   6.285   5.672 -1.4163 -1.0741  1.8753
 4969TIP3    H236323   1.118   6.177   5.616 -2.3345 -0.7584 -0.2921
 4970TIP3   OH236324   2.239   6.503   6.600  0.3246 -1.1880  0.0050
 4970TIP3    H136325   2.183   6.426   6.613 -1.1788  0.0043  0.7008
 4970TIP3    H236326   2.224   6.527   6.508 -1.0752 -0.3133  0.4369
 4971TIP3   OH236327   4.135   0.203   5.358 -0.3529  0.1460  0.2717
 4971TIP3    H136328   4.171   0.276   5.308  2.8552 -1.5947 -0.1302
 4971TIP3    H236329   4.041   0.209   5.345  0.0073  2.9533 -1.4782
 4972TIP3   OH236330   4.886   6.438   2.266 -0.2020 -0.3963 -0.3701
 4972TIP3    H136331   4.892   6.357   2.317  1.9657  0.9518  1.6034
 4972TIP3    H236332   4.814   6.487   2.305  0.0123 -0.3466 -0.0354
 4973TIP3   OH236333   4.612   5.262   3.834  0.6485 -0.3498 -0.0864
 4973TIP3    H136334   4.685   5.267   3.773  0.3329 -1.0926 -0.5308
 4973TIP3    H236335   4.625   5.336   3.894  1.2245  0.0876 -0.7549
 4974TIP3   OH236336   5.808   2.295  12.471 -0.3042  0.3660  0.9123
 4974TIP3    H136337   5.889   2.254  12.503 -0.6798 -0.7645  0.4182
 4974TIP3    H236338   5.766   2.328  12.551  0.7263  1.1329  1.1548
 4975TIP3   OH236339   3.094   6.063   4.651 -0.0316 -0.3832  0.0469
 4975TIP3    H136340   3.013   6.036   4.607  0.2699 -2.4892  0.7068
 4975TIP3    H236341   3.073   6.058   4.745  0.3211  0.8600  0.2001
 4976TIP3   OH236342   0.357   4.378  10.969  0.3980  0.5369  0.2781
 4976TIP3    H136343   0.290   4.445  10.978  1.7566  2.1027 -0.9642
 4976TIP3    H236344   0.423   4.400  11.034  1.2974  0.9708 -0.7675
 4977TIP3   OH236345   3.485   5.892   4.539 -1.1731 -0.1225  0.8882
 4977TIP3    H136346   3.536   5.972   4.523 -0.7147 -0.2019  1.9151
 4977TIP3    H236347   3.479   5.851   4.453 -1.9489  1.3294  0.2330
 4978TIP3   OH236348   0.171   2.138  13.590  0.5007 -0.0757  0.2983
 4978TIP3    H136349   0.166   2.042  13.586 -1.7436  0.0093  0.4361
 4978TIP3    H236350   0.236   2.161  13.525  1.1383 -1.7106  0.3280
 4979TIP3   OH236351   6.671   1.879   2.080 -0.1105 -0.6485  0.2191
 4979TIP3    H136352   6.633   1.890   1.993  0.9714 -0.9426 -0.3024
 4979TIP3    H236353   6.674   1.784   2.094 -0.0162 -0.6130  0.4512
 4980TIP3   OH236354   3.328   5.196   6.510 -0.0643 -0.7125 -0.4501
 4980TIP3    H136355   3.347   5.118   6.562 -1.1430 -0.4462  0.3504
 4980TIP3    H236356   3.269   5.247   6.564 -1.5720 -0.6505 -2.1165
 4981TIP3   OH236357   4.091   6.337   3.102 -0.4104  0.2373 -0.1257
 4981TIP3    H136358   4.143   6.275   3.051 -0.8224 -0.6042  0.4702
 4981TIP3    H236359   4.118   6.423   3.070  1.2834 -0.1939  0.0946
 4982TIP3   OH236360   4.759   0.252  12.193 -0.5542  0.4636  0.6717
 4982TIP3    H136361   4.715   0.287  12.116 -0.2791 -1.3889 -0.3475
 4982TIP3    H236362   4.851   0.247  12.168 -0.5709 -0.8757  0.8218
 4983TIP3   OH236363   5.677   4.944   1.475  0.2261  0.7732  0.1210
 4983TIP3    H136364   5.749   4.882   1.466 -1.7281 -1.4690 -0.8305
 4983TIP3    H236365   5.700   4.998   1.550  1.4339 -1.9372  1.7800
 4984TIP3   OH236366   1.648   5.637   0.857  0.3497 -0.0864  0.5695
 4984TIP3    H136367   1.571   5.672   0.814  0.8407  3.2519  2.2785
 4984TIP3    H236368   1.622   5.628   0.949  1.6395 -0.0835  0.9422
 4985TIP3   OH236369   5.431   2.239   4.234 -0.3249 -0.4224 -0.4920
 4985TIP3    H136370   5.368   2.203   4.297  1.0227 -1.4192  0.3126
 4985TIP3    H236371   5.488   2.294   4.287  0.3872 -0.6959 -0.9769
 4986TIP3   OH236372   1.849   6.227   4.886 -0.0164 -0.0246 -0.0235
 4986TIP3    H136373   1.930   6.261   4.923 -0.3500  0.0667  0.6341
 4986TIP3    H236374   1.797   6.304   4.866 -0.2872 -0.1116  0.3468
 4987TIP3   OH236375   2.799   5.074  13.806  0.0710  0.0440  0.5778
 4987TIP3    H136376   2.748   5.003  13.767 -1.1120  0.6084  1.0688
 4987TIP3    H236377   2.878   5.078  13.753 -0.3115 -0.9586 -0.0970
 4988TIP3   OH236378   0.645   4.197  11.400 -0.0081  0.1707 -0.1978
 4988TIP3    H136379   0.593   4.213  11.479 -0.1505  1.5627 -0.5581
 4988TIP3    H236380   0.589   4.142  11.345 -0.6541  0.7294 -0.1020
 4989TIP3   OH236381   4.359   6.441  14.574 -0.3232  0.3504  0.1219
 4989TIP3    H136382   4.353   6.523  14.624 -0.1031  0.1584  0.4646
 4989TIP3    H236383   4.308   6.378  14.625 -0.6223  0.3167 -0.2232
 4990TIP3   OH236384   5.364   5.549   5.273 -0.4148 -0.1812 -1.1893
 4990TIP3    H136385   5.307   5.480   5.308 -1.5276  1.5952  0.6240
 4990TIP3    H236386   5.451   5.525   5.304 -0.9927 -0.0939  0.5577
 4991TIP3   OH236387   1.256   1.130   0.527 -0.0829 -0.2543  0.7507
 4991TIP3    H136388   1.194   1.074   0.575  0.2636 -0.7333  0.6440
 4991TIP3    H236389   1.201   1.199   0.491 -0.3895 -0.0349  1.6142
 4992TIP3   OH236390   2.265   4.291  14.251  0.3544  0.4839 -0.3264
 4992TIP3    H136391   2.272   4.343  14.331 -0.6022 -1.0319  0.7662
 4992TIP3    H236392   2.345   4.238  14.250 -0.7475 -1.2156  0.8741
 4993TIP3   OH236393   2.561   5.369  16.517  0.4371  0.2028 -0.4407
 4993TIP3    H136394   2.538   5.277  16.507 -0.7625  0.4991 -0.5145
 4993TIP3    H236395   2.551   5.406  16.429 -0.0874  0.6101 -0.2140
 4994TIP3   OH236396   1.613   4.886   4.947 -0.1253  0.5039 -0.6193
 4994TIP3    H136397   1.650   4.899   5.035 -0.3044  1.5224 -0.6816
 4994TIP3    H236398   1.546   4.954   4.939 -0.7051 -0.1325 -1.2257
 4995TIP3   OH236399   0.183   5.683  12.763  0.2831  0.4508  0.2790
 4995TIP3    H136400   0.098   5.718  12.790 -0.2855 -0.6374 -0.0799
 4995TIP3    H236401   0.172   5.662  12.670  0.7363 -0.3075  0.3922
 4996TIP3   OH236402   2.040   2.039   5.048  0.1560 -0.3361  0.0814
 4996TIP3    H136403   2.053   2.058   4.955 -0.2161  1.7552  0.4330
 4996TIP3    H236404   2.014   1.947   5.050 -1.5297  0.0489 -2.0425
 4997TIP3   OH236405   6.531   3.366   4.429  0.1531 -0.3069 -0.5705
 4997TIP3    H136406   6.485   3.317   4.362 -1.6987  0.1096  0.3639
 4997TIP3    H236407   6.559   3.300   4.492  0.3115 -0.4945 -0.8378
 4998TIP3   OH236408   4.463   5.823  16.179  0.3705 -0.6169  0.7640
 4998TIP3    H136409   4.391   5.761  16.171  0.9295 -1.3407  1.2540
 4998TIP3    H236410   4.423   5.903  16.211 -0.5151 -0.4057 -0.8086
 4999TIP3   OH236411   4.654   3.836  16.091 -0.3004 -0.3491 -0.0673
 4999TIP3    H136412   4.630   3.745  16.076 -0.1678 -1.0280  3.3856
 4999TIP3    H236413   4.737   3.831  16.139 -0.2351  1.5662  0.0503
 5000TIP3   OH236414   2.579   5.822  11.712 -0.4920  0.3251  0.5453
 5000TIP3    H136415   2.655   5.837  11.768 -1.4522  0.9704  1.7149
 5000TIP3    H236416   2.592   5.878  11.636  0.6419 -0.2602  0.3095
 5001TIP3   OH236417   5.941   6.126  12.981  0.0124  0.1013 -0.5939
 5001TIP3    H136418   5.966   6.164  12.897  0.3527  3.1664  0.8121
 5001TIP3    H236419   6.015   6.146  13.039 -1.2095  0.0868  1.0099
 5002TIP3   OH236420   5.435   3.788   6.290 -0.0060  0.0276 -0.2532
 5002TIP3    H136421   5.493   3.853   6.331 -0.1671 -0.2684  0.4425
 5002TIP3    H236422   5.480   3.765   6.209  0.9161 -0.2653  0.3214
 5003TIP3   OH236423   4.091   2.776   3.269 -0.2883  0.2908 -0.5641
 5003TIP3    H136424   4.019   2.728   3.229  0.6296 -1.3500 -0.2920
 5003TIP3    H236425   4.071   2.775   3.363 -1.2994  2.2115 -0.7406
 5004TIP3   OH236426   1.053   5.408  14.456  0.1010 -0.0116 -0.2701
 5004TIP3    H136427   1.103   5.381  14.379  0.9325  0.2640  0.1616
 5004TIP3    H236428   1.091   5.492  14.481 -1.9885  1.2331 -1.1717
 5005TIP3   OH236429   5.880   6.167   2.352  0.7047  0.0270  0.0954
 5005TIP3    H136430   5.922   6.236   2.403 -1.1901  0.9402  0.4395
 5005TIP3    H236431   5.848   6.105   2.417  0.1710  0.1111 -0.0820
 5006TIP3   OH236432   3.986   3.911   6.460  0.7477  0.3304  0.2816
 5006TIP3    H136433   4.068   3.951   6.433  1.6194 -0.5666  1.5481
 5006TIP3    H236434   4.011   3.844   6.523 -1.0166  0.6440  1.3735
 5007TIP3   OH236435   4.187   2.783  17.142  0.1140 -0.2370  0.3204
 5007TIP3    H136436   4.127   2.772  17.215  1.3463  2.3402  1.7940
 5007TIP3    H236437   4.215   2.874  17.148  2.8487 -0.9174 -1.3223
 5008TIP3   OH236438   4.665   5.072   4.851 -0.2088 -0.0759  0.1447
 5008TIP3    H136439   4.613   5.057   4.772 -2.2207  1.8788  1.0444
 5008TIP3    H236440   4.744   5.019   4.838 -1.4698 -1.4786 -2.1910
 5009TIP3   OH236441   6.781   3.699  17.091 -0.2486  0.1650  0.2692
 5009TIP3    H136442   6.699   3.706  17.140  0.0110 -0.9609  0.8994
 5009TIP3    H236443   6.825   3.783  17.105  0.5731 -0.6863  3.4124
 5010TIP3   OH236444   2.131   0.339   4.743  0.3341  0.1592 -0.5031
 5010TIP3    H136445   2.051   0.347   4.793 -0.5783 -3.4728 -1.1965
 5010TIP3    H236446   2.179   0.267   4.785  1.0188 -0.8176 -2.8441
 5011TIP3   OH236447   0.062   1.287   2.400 -0.0184 -0.4386  0.1328
 5011TIP3    H136448   0.152   1.255   2.398  0.0660 -0.2164  0.3019
 5011TIP3    H236449   0.069   1.375   2.438 -0.1795 -0.0255 -0.7777
 5012TIP3   OH236450   4.888   0.394  16.231 -0.3685  0.0893  0.0063
 5012TIP3    H136451   4.846   0.317  16.192 -1.4812  0.7953 -0.1815
 5012TIP3    H236452   4.862   0.466  16.175  2.4712  0.3077 -1.1441
 5013TIP3   OH236453   6.024   0.196   4.536 -0.5956  0.0404  0.2433
 5013TIP3    H136454   6.039   0.106   4.510  4.8777  0.8830 -0.0916
 5013TIP3    H236455   6.031   0.195   4.632 -1.2172  0.0320  0.2926
 5014TIP3   OH236456   3.058   2.983   5.262  0.4246  0.1554  0.4075
 5014TIP3    H136457   2.991   3.028   5.211  0.2330  0.9026  1.3111
 5014TIP3    H236458   3.024   2.894   5.273  0.1627  0.1756 -0.1962
 5015TIP3   OH236459   0.027   4.688   4.615  0.3273  0.1168 -0.5626
 5015TIP3    H136460   0.057   4.607   4.573  1.3935 -0.1563  0.6835
 5015TIP3    H236461   0.108   4.736   4.635 -0.1445  0.2231  1.2027
 5016TIP3   OH236462   3.975   2.832   0.069  0.3964 -0.8954 -0.2870
 5016TIP3    H136463   3.892   2.846   0.115  0.3969  1.6033 -1.0160
 5016TIP3    H236464   3.950   2.823  -0.023  0.8940 -0.6803 -0.4395
 5017TIP3   OH236465   0.196   1.916   5.989  0.0597  0.0424 -0.3824
 5017TIP3    H136466   0.281   1.873   5.977 -0.0363 -0.5289  0.9314
 5017TIP3    H236467   0.145   1.854   6.040 -0.7991  0.8381 -0.2675
 5018TIP3   OH236468   0.898   3.608  13.670 -0.6567 -0.3859 -0.8420
 5018TIP3    H136469   0.893   3.703  13.658 -0.8977 -0.1923  0.7115
 5018TIP3    H236470   0.806   3.580  13.675 -0.5910 -0.7444 -1.5999
 5019TIP3   OH236471   4.330   2.146   2.105 -0.5137  0.6823 -0.3430
 5019TIP3    H136472   4.361   2.237   2.100  1.5656  0.0407  0.3916
 5019TIP3    H236473   4.384   2.099   2.042 -0.3536 -0.3794  0.5753
 5020TIP3   OH236474   4.268   2.730   0.552 -0.3719  0.3769  0.3227
 5020TIP3    H136475   4.207   2.751   0.481  0.4186 -2.7003 -1.4141
 5020TIP3    H236476   4.217   2.675   0.612  0.3892 -1.6357 -0.7875
 5021TIP3   OH236477   1.325   5.422  12.926 -0.1902  0.0593 -0.7246
 5021TIP3    H136478   1.290   5.354  12.869  3.9397 -3.2199  0.4392
 5021TIP3    H236479   1.412   5.441  12.891  0.1648  2.1083  1.1392
 5022TIP3   OH236480   4.077   5.785   3.594 -0.4581  0.3624  0.2380
 5022TIP3    H136481   4.063   5.730   3.517  0.5486  1.2919 -0.6242
 5022TIP3    H236482   4.016   5.858   3.582 -0.7816  0.1639  0.6676
 5023TIP3   OH236483   4.731   2.470   0.202  0.4232  0.4999  0.1282
 5023TIP3    H136484   4.800   2.536   0.210  1.1196 -0.2505  0.3497
 5023TIP3    H236485   4.650   2.519   0.212  0.9484  1.2735  0.6338
 5024TIP3   OH236486   4.542   2.483  11.692 -0.7055  0.1024 -0.4732
 5024TIP3    H136487   4.539   2.574  11.660  0.5495  0.7281  1.0843
 5024TIP3    H236488   4.636   2.462  11.693 -0.6794  0.1660  2.8338
 5025TIP3   OH236489   3.988   5.009   2.712 -0.2899 -1.0360 -0.5765
 5025TIP3    H136490   4.001   5.026   2.805 -0.1052 -2.1023 -0.4045
 5025TIP3    H236491   4.074   5.020   2.673 -0.4042 -0.3901 -0.6669
 5026TIP3   OH236492   4.393   4.685  15.022  0.4433 -0.1313  0.0444
 5026TIP3    H136493   4.347   4.624  15.080  0.3695  1.0167  1.2324
 5026TIP3    H236494   4.369   4.657  14.934 -1.0377 -0.7128  0.6089
 5027TIP3   OH236495   2.516   5.452   4.081 -0.3756  0.1605 -0.0497
 5027TIP3    H136496   2.574   5.469   4.007  2.4568 -2.2669  1.5451
 5027TIP3    H236497   2.499   5.358   4.077 -0.2012  0.0140  2.3955
 5028TIP3   OH236498   0.959   0.191  16.784  0.8554 -0.5126 -0.7139
 5028TIP3    H136499   0.908   0.203  16.704  1.2183 -1.1992 -1.0490
 5028TIP3    H236500   1.020   0.264  16.785  0.7252 -0.4006 -0.9643
 5029TIP3   OH236501   3.240   1.469   1.173 -0.1468 -0.2702 -0.4140
 5029TIP3    H136502   3.173   1.457   1.106 -1.6516  0.4777  0.9210
 5029TIP3    H236503   3.219   1.553   1.213  1.8575  0.1902 -0.2461
 5030TIP3   OH236504   2.606   3.754  13.685  0.5406  0.0300  0.3407
 5030TIP3    H136505   2.576   3.793  13.767  0.4490  1.6914 -0.4634
 5030TIP3    H236506   2.615   3.661  13.705 -0.5005  0.2482  1.9339
 5031TIP3   OH236507   1.916   4.809  12.906  0.3156 -0.5988  1.1569
 5031TIP3    H136508   1.951   4.830  12.992  0.4000 -0.4397  1.0843
 5031TIP3    H236509   1.981   4.752  12.866  1.6886  1.6728  0.0659
 5032TIP3   OH236510   5.848   2.504   6.579  0.3800  0.4117  0.3678
 5032TIP3    H136511   5.816   2.576   6.632  1.3948 -0.1982  1.8465
 5032TIP3    H236512   5.943   2.514   6.579  0.4988 -0.5764  0.0941
 5033TIP3   OH236513   4.703   1.441  15.276  0.2716  0.1323 -0.1278
 5033TIP3    H136514   4.739   1.514  15.327  0.9065 -0.3917  0.1742
 5033TIP3    H236515   4.638   1.482  15.219 -0.1700  0.7850  0.8210
 5034TIP3   OH236516   5.858   1.051   2.539  0.1570  0.2094  0.2614
 5034TIP3    H136517   5.845   1.038   2.446 -0.1594  0.4837  0.2656
 5034TIP3    H236518   5.952   1.043   2.552  0.1490 -0.3191 -0.0018
 5035TIP3   OH236519   6.523   5.806   2.593 -0.4441  0.2789 -0.0007
 5035TIP3    H136520   6.440   5.773   2.558 -0.5999 -2.0512  2.3705
 5035TIP3    H236521   6.519   5.786   2.687  1.6264  2.6924  0.6643
 5036TIP3   OH236522   4.260   0.456   6.055 -0.4635 -0.0154 -0.3050
 5036TIP3    H136523   4.251   0.377   6.108  0.4868  1.4055  2.0546
 5036TIP3    H236524   4.354   0.472   6.050 -0.6375  0.9445 -0.7821
 5037TIP3   OH236525   0.284   6.246  16.923 -0.1730 -0.2058  0.0117
 5037TIP3    H136526   0.275   6.184  16.851 -0.4408 -0.9218  0.6490
 5037TIP3    H236527   0.310   6.193  16.998  1.1482  0.6841  0.2037
 5038TIP3   OH236528   3.634   0.860  14.800  0.4782 -0.1879  0.3529
 5038TIP3    H136529   3.697   0.925  14.769  0.3662  0.1331  0.7924
 5038TIP3    H236530   3.646   0.858  14.895  0.5431 -0.8758  0.3300
 5039TIP3   OH236531   1.141   3.905  15.204 -0.2610  0.0440 -0.2141
 5039TIP3    H136532   1.153   4.000  15.206 -0.6054  0.0854 -0.1080
 5039TIP3    H236533   1.074   3.890  15.138 -0.2357 -0.1239 -0.2024
 5040TIP3   OH236534   0.389   5.055  12.308 -0.0715  0.0995  0.1380
 5040TIP3    H136535   0.353   5.027  12.224  1.5702  0.5752 -0.7562
 5040TIP3    H236536   0.321   5.110  12.346 -0.6225  0.3304 -1.1418
 5041TIP3   OH236537   6.016   0.714   4.962 -0.2749 -0.6609 -0.2646
 5041TIP3    H136538   6.037   0.790   5.016 -0.2137 -1.9248  1.5759
 5041TIP3    H236539   6.080   0.716   4.891  0.3081  0.5058  0.2774
 5042TIP3   OH236540   0.029   3.085  12.688  0.5102 -0.1591 -0.1217
 5042TIP3    H136541  -0.034   3.041  12.745  1.2760 -0.9552  0.1215
 5042TIP3    H236542   0.030   3.175  12.720 -0.0687 -0.2811  0.2567
 5043TIP3   OH236543   6.479   4.761  16.358 -0.5129  0.7179 -0.3633
 5043TIP3    H136544   6.495   4.666  16.351  1.7579  1.0821 -0.5208
 5043TIP3    H236545   6.385   4.768  16.374 -1.0257 -1.4850 -2.1249
 5044TIP3   OH236546   2.938   0.121   0.008  0.3377  0.2539  0.4735
 5044TIP3    H136547   3.007   0.142  -0.055  1.3119 -0.9914  1.0848
 5044TIP3    H236548   2.892   0.046  -0.030 -1.1117  1.4862 -0.2334
 5045TIP3   OH236549   4.722   5.103   3.327  0.1454 -0.0353  0.1359
 5045TIP3    H136550   4.698   5.011   3.324 -0.5588  0.1618 -0.2362
 5045TIP3    H236551   4.753   5.122   3.238 -0.3002  0.2462  0.0401
 5046TIP3   OH236552   6.393   1.857  15.181  0.4818  0.2953  0.6530
 5046TIP3    H136553   6.460   1.797  15.147 -1.1966 -1.6400  0.7199
 5046TIP3    H236554   6.347   1.806  15.248  0.1927  2.2653  2.0000
 5047TIP3   OH236555   4.940   6.648  13.585  0.3245  0.8390  0.4673
 5047TIP3    H136556   4.939   6.707  13.510 -0.0307  0.2349 -0.0081
 5047TIP3    H236557   5.029   6.613  13.586  0.1979  0.5021  0.0521
 5048TIP3   OH236558   4.349   3.049  15.988 -0.2418 -0.3115 -0.5313
 5048TIP3    H136559   4.260   3.023  15.963  0.1871 -1.8425 -0.5063
 5048TIP3    H236560   4.344   3.067  16.082 -0.6303  0.0959 -0.6265
 5049TIP3   OH236561   1.537   2.835  15.776  0.0946 -0.0107 -0.1571
 5049TIP3    H136562   1.556   2.866  15.688 -3.6562 -1.2646 -1.5366
 5049TIP3    H236563   1.549   2.740  15.770 -2.0409 -0.3267  0.0772
 5050TIP3   OH236564   2.168   5.672  15.126 -0.6650  1.1768  0.0821
 5050TIP3    H136565   2.083   5.671  15.168  0.5657 -2.6799  2.7327
 5050TIP3    H236566   2.224   5.724  15.184 -0.4519  1.1012 -0.0509
 5051TIP3   OH236567   2.482   2.781  13.212 -0.2796  0.0162  0.4241
 5051TIP3    H136568   2.390   2.806  13.206  0.0375  0.6280 -2.1482
 5051TIP3    H236569   2.530   2.863  13.211  0.3616 -0.3525  0.5457
 5052TIP3   OH236570   0.759   2.516  14.480 -0.2841 -0.3246 -0.5240
 5052TIP3    H136571   0.830   2.514  14.544 -0.0631 -0.9094 -0.7853
 5052TIP3    H236572   0.765   2.603  14.441  0.5919 -0.5404 -0.8837
 5053TIP3   OH236573   0.393   1.461   3.794 -0.2522 -0.7656  0.4755
 5053TIP3    H136574   0.313   1.459   3.847 -0.4772 -1.4727  0.1121
 5053TIP3    H236575   0.417   1.554   3.790 -1.1730 -0.5304  0.4014
 5054TIP3   OH236576   3.610   0.586  13.659  0.1528  1.1703 -0.1156
 5054TIP3    H136577   3.544   0.518  13.657  1.4638 -0.1132 -0.5604
 5054TIP3    H236578   3.561   0.667  13.676 -1.4385  0.1728  0.1146
 5055TIP3   OH236579   5.621   2.117   0.207  0.4691 -0.5007 -0.6150
 5055TIP3    H136580   5.643   2.050   0.143  2.4244  1.8645 -2.5208
 5055TIP3    H236581   5.544   2.161   0.171  1.8824  1.1729 -1.6738
 5056TIP3   OH236582   4.206   2.843  16.156  0.6773  0.3695  0.4891
 5056TIP3    H136583   4.207   2.879  16.244 -0.5951  1.2068  0.1648
 5056TIP3    H236584   4.131   2.884  16.113  0.6898 -0.7753 -0.6703
 5057TIP3   OH236585   1.336   3.335  17.150 -0.5426  0.3226 -0.1459
 5057TIP3    H136586   1.397   3.404  17.176 -0.0588  0.2586 -1.0670
 5057TIP3    H236587   1.345   3.268  17.218  0.1748  0.4650 -0.0894
 5058TIP3   OH236588   6.353   2.720  14.763  0.3349  0.0776  0.8980
 5058TIP3    H136589   6.317   2.808  14.756  0.9496  0.6163  3.6496
 5058TIP3    H236590   6.419   2.715  14.694 -2.1269  0.4856 -1.5669
 5059TIP3   OH236591   2.849   0.850   1.361  0.0598 -0.0728  0.1736
 5059TIP3    H136592   2.839   0.758   1.336 -0.1201  0.7458 -2.8743
 5059TIP3    H236593   2.780   0.896   1.313  2.9543  2.2802 -1.8689
 5060TIP3   OH236594   5.058   4.619   5.540 -0.3928  0.4289  0.4726
 5060TIP3    H136595   5.042   4.610   5.634 -1.4288  1.4660  0.4179
 5060TIP3    H236596   5.036   4.533   5.504 -0.0677  0.0502  1.1683
 5061TIP3   OH236597   2.748   1.305  12.554  0.3570  0.1690  0.6555
 5061TIP3    H136598   2.757   1.384  12.500 -0.2740  0.0788  0.4106
 5061TIP3    H236599   2.837   1.288  12.586  0.9551 -0.3954 -1.2242
 5062TIP3   OH236600   6.625   1.868  16.593 -0.0238  0.2254  0.3982
 5062TIP3    H136601   6.688   1.807  16.631 -2.0518 -1.2894  1.3430
 5062TIP3    H236602   6.620   1.940  16.656  2.4629  1.5318 -0.7827
 5063TIP3   OH236603   1.623   0.088   5.119 -0.0839 -0.0641 -0.4756
 5063TIP3    H136604   1.595   0.081   5.028 -2.6602  1.6088  0.1281
 5063TIP3    H236605   1.631  -0.002   5.149  0.7204 -0.6284 -2.3314
 5064TIP3   OH236606   1.935   0.640   5.096 -0.5454 -0.1881  0.2670
 5064TIP3    H136607   1.999   0.689   5.046  1.3920 -0.5455  2.3317
 5064TIP3    H236608   1.851   0.681   5.073  0.4264  0.5527 -2.1338
 5065TIP3   OH236609   1.346   1.464  16.428 -0.9134 -0.4530  0.4310
 5065TIP3    H136610   1.428   1.431  16.390  1.1523  1.1435  3.3636
 5065TIP3    H236611   1.315   1.529  16.365  0.0005 -1.1514 -0.7587
 5066TIP3   OH236612   0.019   0.123   2.314  0.1916  0.1640  0.3255
 5066TIP3    H136613   0.095   0.164   2.354 -0.2465  0.7472  0.5553
 5066TIP3    H236614   0.046   0.033   2.298  0.8994  0.3496  0.4916
 5067TIP3   OH236615   5.267   2.851  12.063  0.0690 -0.0331 -0.1971
 5067TIP3    H136616   5.339   2.789  12.054  1.9015  2.0853 -0.6572
 5067TIP3    H236617   5.217   2.820  12.138  1.0259 -1.9513 -0.3313
 5068TIP3   OH236618   0.079   4.652   4.978  0.0392 -0.6925 -0.3182
 5068TIP3    H136619   0.107   4.570   5.018 -0.5391 -0.4692  0.5677
 5068TIP3    H236620   0.161   4.698   4.958  0.3859  0.7846  3.9789
 5069TIP3   OH236621   6.604   1.963   4.360 -0.2961 -0.4321 -0.2286
 5069TIP3    H136622   6.539   1.934   4.425 -1.1984  0.6930 -0.6047
 5069TIP3    H236623   6.602   2.059   4.366  1.6328 -0.3868  0.0250
 5070TIP3   OH236624   1.963   5.014  13.487 -0.0862  0.1974  0.3383
 5070TIP3    H136625   2.026   4.999  13.417 -1.7741 -2.3828 -0.7073
 5070TIP3    H236626   1.989   4.954  13.556 -1.7476 -1.4263 -0.3882
 5071TIP3   OH236627   4.134   2.946   1.101 -0.6164  0.1098  0.1102
 5071TIP3    H136628   4.115   2.916   1.012  1.4849  0.8915 -0.6447
 5071TIP3    H236629   4.229   2.955   1.103 -0.6759  0.4653  2.3345
 5072TIP3   OH236630   2.331   6.361  16.255  0.4422 -0.4224 -0.3429
 5072TIP3    H136631   2.382   6.439  16.234 -0.2928 -0.0022 -0.5944
 5072TIP3    H236632   2.394   6.300  16.294  0.7846  0.7621  0.9914
 5073TIP3   OH236633   4.731   1.514  15.555  0.3215 -0.3812  0.1289
 5073TIP3    H136634   4.805   1.482  15.606  0.1370  0.3163  0.8581
 5073TIP3    H236635   4.670   1.547  15.621 -0.4993 -0.6718 -0.4846
 5074TIP3   OH236636   1.877   5.097   4.290  0.5284 -0.5685  0.1584
 5074TIP3    H136637   1.907   5.095   4.381 -2.0353 -0.2773  1.0540
 5074TIP3    H236638   1.879   5.005   4.263 -0.1642 -0.8620  1.0455
 5075TIP3   OH236639   6.628   0.980  12.997  0.1999 -0.6720 -0.7218
 5075TIP3    H136640   6.686   1.013  12.928  0.3041  0.2560 -0.1941
 5075TIP3    H236641   6.642   1.039  13.071 -2.5967  0.5640 -1.0997
 5076TIP3   OH236642   0.114   1.701  16.839 -0.3899 -0.5939  0.0267
 5076TIP3    H136643   0.071   1.623  16.876 -1.1776  0.4853  1.4376
 5076TIP3    H236644   0.179   1.665  16.779 -0.5553 -2.3701  0.8461
 5077TIP3   OH236645   6.719   2.950  14.369 -0.6673 -0.2828  0.1497
 5077TIP3    H136646   6.720   2.866  14.415 -1.3883 -0.3420  0.0699
 5077TIP3    H236647   6.797   2.996  14.399  0.3915 -1.4863 -0.7452
 5078TIP3   OH236648   5.378   5.307   3.721  0.0402  0.6226 -0.5251
 5078TIP3    H136649   5.309   5.329   3.658 -0.5343  0.1125 -0.0731
 5078TIP3    H236650   5.410   5.222   3.692 -0.9473 -0.0998  0.4951
 5079TIP3   OH236651   4.230   3.570   2.561  0.0575  0.3195  0.2776
 5079TIP3    H136652   4.316   3.609   2.546 -0.5430  1.3718 -0.5277
 5079TIP3    H236653   4.201   3.606   2.644  0.3892 -0.0276  0.5448
 5080TIP3   OH236654   4.715   4.939  15.757 -0.4690  0.0323  0.3991
 5080TIP3    H136655   4.635   4.888  15.748 -0.5240  0.1759  0.0780
 5080TIP3    H236656   4.786   4.875  15.743 -0.5052 -0.2958  1.6557
 5081TIP3   OH236657   6.053   5.888   4.980  0.5528  0.3115  0.2674
 5081TIP3    H136658   6.009   5.970   4.962 -1.0996 -0.4477  0.7879
 5081TIP3    H236659   6.004   5.849   5.052  3.0675  0.2159  1.9711
 5082TIP3   OH236660   2.477   6.555   3.738  0.3402 -0.0990 -0.6978
 5082TIP3    H136661   2.407   6.612   3.706  0.5170  0.9293  0.6708
 5082TIP3    H236662   2.556   6.590   3.698  0.3487  0.1190 -0.4907
 5083TIP3   OH236663   6.097   0.084  13.240 -0.2467  0.2974 -0.3694
 5083TIP3    H136664   6.099   0.170  13.196 -0.8435  1.1261  1.1730
 5083TIP3    H236665   6.026   0.092  13.304  2.6542  0.2716  3.0322
 5084TIP3   OH236666   4.548   3.269  16.991  0.1915  0.0461 -0.4993
 5084TIP3    H136667   4.478   3.326  16.959  0.5278  1.8132  1.8289
 5084TIP3    H236668   4.627   3.306  16.952  0.2057  0.1196 -0.4027
 5085TIP3   OH236669   3.814   6.374   5.658 -0.3812  0.2521  0.0229
 5085TIP3    H136670   3.879   6.418   5.714 -0.8301  3.5530 -1.9349
 5085TIP3    H236671   3.782   6.301   5.712  2.1034  0.8937  2.5105
 5086TIP3   OH236672   1.048   0.669  15.123 -0.0790 -0.1606  0.4153
 5086TIP3    H136673   1.121   0.617  15.154  3.2042  3.4932 -0.7491
 5086TIP3    H236674   1.017   0.717  15.200 -0.1492 -0.4186  0.5484
 5087TIP3   OH236675   3.814   5.117   1.011 -0.0479  0.0437  0.7846
 5087TIP3    H136676   3.809   5.212   1.005 -1.8006 -0.0371  0.6993
 5087TIP3    H236677   3.769   5.085   0.933  0.8122 -0.8575  0.6463
 5088TIP3   OH236678   3.900   6.187   3.790  0.5424  0.8687  0.3305
 5088TIP3    H136679   3.982   6.142   3.812  0.4975  0.1961 -0.8547
 5088TIP3    H236680   3.850   6.122   3.740 -0.2772  1.6336  0.1540
 5089TIP3   OH236681   1.931   1.816  14.816 -0.4557  0.0104  0.0252
 5089TIP3    H136682   1.997   1.840  14.752  1.4397 -1.9462  1.1917
 5089TIP3    H236683   1.876   1.752  14.771 -0.3610  0.1539 -0.2967
 5090TIP3   OH236684   1.347   5.276  15.746  0.4288 -0.1300  0.5562
 5090TIP3    H136685   1.347   5.190  15.789  2.0867 -1.3808 -1.8837
 5090TIP3    H236686   1.438   5.291  15.722  0.4816  3.1230  2.4047
 5091TIP3   OH236687   4.524   1.352  12.439 -0.0031 -0.1421 -0.5484
 5091TIP3    H136688   4.521   1.305  12.356 -0.2895 -1.3195  0.1230
 5091TIP3    H236689   4.433   1.379  12.454  0.0980  0.3261 -0.7476
 5092TIP3   OH236690   6.322   0.651  13.991 -0.8553 -0.2264 -0.1934
 5092TIP3    H136691   6.364   0.625  14.074  0.1783  1.2767 -0.2261
 5092TIP3    H236692   6.381   0.618  13.924 -0.0994  1.2405 -0.2565
 5093TIP3   OH236693   3.337   5.006   2.155 -0.0511  0.4658  0.1396
 5093TIP3    H136694   3.389   4.935   2.116 -0.7448  0.0499 -0.0384
 5093TIP3    H236695   3.353   5.081   2.098  1.0914  0.5990  0.6169
 5094TIP3   OH236696   2.337   4.810   1.739  0.4196  0.1045  0.2322
 5094TIP3    H136697   2.244   4.833   1.738  0.4458  0.2689  1.0928
 5094TIP3    H236698   2.354   4.783   1.829  0.6005 -2.4430 -0.5293
 5095TIP3   OH236699   6.418   2.131  15.260  0.6484 -0.4124 -0.2840
 5095TIP3    H136700   6.399   2.042  15.231 -1.5102 -0.3506  0.8753
 5095TIP3    H236701   6.432   2.124  15.354 -0.6802  0.6109  0.0181
 5096TIP3   OH236702   1.910   6.273  11.351  0.3015 -0.1362  0.1163
 5096TIP3    H136703   1.881   6.229  11.271 -1.4249  1.2827 -0.0650
 5096TIP3    H236704   1.829   6.293  11.398  1.2083  0.6454  1.3578
 5097TIP3   OH236705   1.573   3.485  15.550 -0.3318 -0.0110  1.2264
 5097TIP3    H136706   1.541   3.563  15.596 -0.0044  2.4591 -2.4408
 5097TIP3    H236707   1.668   3.488  15.561 -0.3043  0.2193  0.9286
 5098TIP3   OH236708   1.136   3.187  14.967  0.3918  0.5355 -0.2323
 5098TIP3    H136709   1.070   3.257  14.965  0.1489  0.3055 -0.4339
 5098TIP3    H236710   1.193   3.209  15.040  0.3645  0.9897 -0.3448
 5099TIP3   OH236711   2.793   2.824   0.109  0.7902 -0.4348 -0.1709
 5099TIP3    H136712   2.849   2.783   0.175 -0.1124 -2.3986 -0.6067
 5099TIP3    H236713   2.840   2.813   0.027  1.1833  0.6560 -0.1121
 5100TIP3   OH236714   4.659   1.546  14.983 -0.0705  0.6460 -0.4019
 5100TIP3    H136715   4.660   1.556  14.888 -0.9711  2.1967 -0.2671
 5100TIP3    H236716   4.729   1.603  15.014 -0.0557  0.4643 -0.0975
 5101TIP3   OH236717   3.456   1.460  12.709 -0.5475 -0.5775  0.1725
 5101TIP3    H136718   3.498   1.382  12.746 -0.0399 -0.0199  0.7885
 5101TIP3    H236719   3.378   1.473  12.762  2.4334  2.7638  3.9822
 5102TIP3   OH236720   2.843   2.461   0.266  0.2700  0.6187  0.3940
 5102TIP3    H136721   2.935   2.468   0.243  0.0592  0.1750 -0.6245
 5102TIP3    H236722   2.838   2.382   0.321  0.6823  1.3418  1.4823
 5103TIP3   OH236723   1.732   5.786   3.048 -0.1121  0.3219 -0.2398
 5103TIP3    H136724   1.775   5.869   3.070 -0.5730  0.3264  0.6863
 5103TIP3    H236725   1.764   5.765   2.961 -0.2139  1.6295 -0.6129
 5104TIP3   OH236726   1.492   1.509   5.695  0.3585  0.5370  0.0834
 5104TIP3    H136727   1.439   1.532   5.618  1.3970  1.8027 -0.2890
 5104TIP3    H236728   1.477   1.580   5.757  0.4840  0.1482  0.5632
 5105TIP3   OH236729   3.098   1.730  11.568 -0.7607 -0.5289  0.7683
 5105TIP3    H136730   3.084   1.795  11.637  0.7024  0.5602  0.0572
 5105TIP3    H236731   3.193   1.727  11.558 -0.9706 -0.6573 -1.2279
 5106TIP3   OH236732   5.834   1.657  14.488 -0.2633  0.1452 -0.0019
 5106TIP3    H136733   5.928   1.664  14.473  0.0924  1.3595  2.5210
 5106TIP3    H236734   5.824   1.664  14.583 -2.8616 -0.5563 -0.1685
 5107TIP3   OH236735   2.664   6.321   1.133 -0.5202 -0.2669  0.0987
 5107TIP3    H136736   2.638   6.345   1.045 -0.0234  1.0247  0.2872
 5107TIP3    H236737   2.752   6.284   1.123 -1.6213 -2.8904 -0.3002
 5108TIP3   OH236738   6.496   0.887   3.430  0.4035  0.4450  0.0405
 5108TIP3    H136739   6.488   0.887   3.525  1.3296  1.4296  0.1258
 5108TIP3    H236740   6.406   0.897   3.398  0.0157 -0.6071  0.7959
 5109TIP3   OH236741   0.395   3.307  12.571 -0.0396 -0.1320  0.2303
 5109TIP3    H136742   0.459   3.257  12.622 -1.8848 -2.6479  0.1826
 5109TIP3    H236743   0.443   3.333  12.492  0.6616 -3.0384 -0.3752
 5110TIP3   OH236744   5.369   5.318  14.089  0.0047  0.1359 -0.1458
 5110TIP3    H136745   5.291   5.366  14.061  0.1797  0.0618 -0.7618
 5110TIP3    H236746   5.430   5.386  14.118 -0.8555  0.1041  1.7909
 5111TIP3   OH236747   6.232   5.520  16.522 -0.3582  0.6547  0.4771
 5111TIP3    H136748   6.179   5.593  16.489  1.6303  0.6820 -2.9273
 5111TIP3    H236749   6.321   5.540  16.493  1.1395 -0.6476  3.9148
 5112TIP3   OH236750   2.886   2.866  14.575 -0.0994  0.0530 -0.9279
 5112TIP3    H136751   2.971   2.834  14.606  0.0463 -0.2214 -1.6098
 5112TIP3    H236752   2.892   2.961  14.583 -1.2822 -0.1028  3.0794
 5113TIP3   OH236753   4.547   5.763   3.465  0.2714 -0.0406  0.1332
 5113TIP3    H136754   4.577   5.710   3.538 -0.6807 -1.8217 -0.7428
 5113TIP3    H236755   4.553   5.705   3.389  0.6277  1.5638 -1.1012
 5114TIP3   OH236756   6.058   2.471  11.744 -0.5351 -0.5727 -0.3230
 5114TIP3    H136757   6.098   2.467  11.657 -1.1374 -1.4076 -0.5661
 5114TIP3    H236758   5.998   2.546  11.739 -0.4533 -0.5228 -0.5758
 5115TIP3   OH236759   3.363   6.269   4.922 -0.0410 -0.1033  0.3572
 5115TIP3    H136760   3.451   6.258   4.956  0.6218 -0.1062 -1.3019
 5115TIP3    H236761   3.307   6.272   5.000  1.3867 -0.3220  1.4102
 5116TIP3   OH236762   0.572   1.457  13.956 -0.3780  0.4055 -0.3907
 5116TIP3    H136763   0.567   1.551  13.939  0.4403  0.3933 -0.6899
 5116TIP3    H236764   0.574   1.417  13.870 -2.1305  0.0295 -0.2789
 5117TIP3   OH236765   2.779   6.558   0.491  0.6523 -0.3457 -0.4133
 5117TIP3    H136766   2.824   6.588   0.412  1.1473  0.4981  0.1785
 5117TIP3    H236767   2.703   6.615   0.499  1.4902  0.6511  0.6079
 5118TIP3   OH236768   4.147   2.650  11.968  0.4027 -0.4758 -0.0755
 5118TIP3    H136769   4.190   2.724  12.011  0.9436 -0.4300 -0.7038
 5118TIP3    H236770   4.103   2.687  11.892 -0.4819 -0.5760  0.3727
 5119TIP3   OH236771   5.370   0.009  15.377 -0.2497 -0.0381 -0.2043
 5119TIP3    H136772   5.449  -0.004  15.324 -0.5177 -1.9440 -0.1678
 5119TIP3    H236773   5.371   0.102  15.399  1.7590  0.0402 -0.5555
 5120TIP3   OH236774   4.955   1.308   3.177  0.1275 -0.2655  0.0171
 5120TIP3    H136775   4.944   1.238   3.241 -0.0570  0.6045  0.9407
 5120TIP3    H236776   4.956   1.263   3.092 -1.7823 -1.2181  0.4698
 5121TIP3   OH236777   6.267   1.951  12.321 -0.7265 -0.0520 -0.0307
 5121TIP3    H136778   6.283   1.970  12.228 -1.2376  1.5532  0.1966
 5121TIP3    H236779   6.335   2.001  12.367 -0.3897 -0.9538  0.4639
 5122TIP3   OH236780   6.439   2.166  12.432  0.0759  0.1114  0.1614
 5122TIP3    H136781   6.452   2.215  12.351  1.3787  0.0211  0.2946
 5122TIP3    H236782   6.365   2.209  12.474 -1.0502 -0.2630 -1.3839
 5123TIP3   OH236783   6.641   4.360   3.086 -0.5550 -0.2661 -0.6558
 5123TIP3    H136784   6.665   4.297   3.154  1.1442  2.3865  1.2848
 5123TIP3    H236785   6.721   4.411   3.071 -2.0812  1.8998 -1.6486
 5124TIP3   OH236786   4.716   5.984  16.851  0.7498 -0.1077 -0.4333
 5124TIP3    H136787   4.769   5.924  16.904  1.2302  0.0745 -0.7022
 5124TIP3    H236788   4.757   5.982  16.765 -1.3573 -2.1379 -1.4472
 5125TIP3   OH236789   3.476   1.193   0.073 -0.2168 -0.0317 -0.3098
 5125TIP3    H136790   3.417   1.201  -0.003 -1.6146  0.1659  0.7772
 5125TIP3    H236791   3.562   1.218   0.039 -1.0565  1.3106 -1.5180
 5126TIP3   OH236792   4.446   4.117  12.086  0.1569  0.2441 -0.4281
 5126TIP3    H136793   4.391   4.048  12.048 -2.9390  2.5537 -0.3667
 5126TIP3    H236794   4.491   4.156  12.011 -0.7900  0.4414 -0.8957
 5127TIP3   OH236795   4.362   1.668  14.880  0.1578  0.0124 -0.2177
 5127TIP3    H136796   4.445   1.647  14.838 -0.4773  0.1487 -1.5889
 5127TIP3    H236797   4.323   1.583  14.900 -0.2640 -0.0873 -1.4119
 5128TIP3   OH236798   0.125   1.956  16.600 -0.1112 -0.4131 -0.0528
 5128TIP3    H136799   0.133   2.047  16.573 -1.8673 -0.5597 -1.0909
 5128TIP3    H236800   0.129   1.906  16.519  1.5985 -1.3335  0.5736
 5129TIP3   OH236801   5.583   0.610   5.618  0.1425  0.7450 -0.1898
 5129TIP3    H136802   5.529   0.531   5.618  0.1942  0.7019 -1.5590
 5129TIP3    H236803   5.633   0.604   5.537  2.3516  0.6904  1.1400
 5130TIP3   OH236804   0.354   3.904  14.233  0.2834 -0.1683  0.0715
 5130TIP3    H136805   0.337   3.994  14.262  1.4638  0.1491 -0.1821
 5130TIP3    H236806   0.335   3.905  14.140 -1.8058 -0.7413  0.4778
 5131TIP3   OH236807   5.547   4.922   4.308  0.5774 -0.0467  0.0049
 5131TIP3    H136808   5.538   4.862   4.234 -0.6074  1.0381 -0.7493
 5131TIP3    H236809   5.477   4.986   4.296  1.0603  0.7843  1.4661
 5132TIP3   OH236810   3.328   6.269   6.113  0.2823 -0.3275  0.2789
 5132TIP3    H136811   3.352   6.251   6.022  1.2095 -0.8469  0.6260
 5132TIP3    H236812   3.282   6.190   6.142  2.6453 -1.4107  1.1946
 5133TIP3   OH236813   6.224   3.043  13.046 -0.5257  0.1503  0.0448
 5133TIP3    H136814   6.230   3.111  12.979  2.2459 -0.5821 -0.5121
 5133TIP3    H236815   6.222   3.091  13.129  0.5616  0.9601 -0.3838
 5134TIP3   OH236816   2.145   2.463  10.932  0.3046  0.0099 -0.4444
 5134TIP3    H136817   2.172   2.549  10.962 -0.2142  0.4490 -1.2217
 5134TIP3    H236818   2.208   2.440  10.864  1.8747 -1.2704  1.4043
 5135TIP3   OH236819   5.325   0.668  13.592 -0.4412 -0.1364 -0.3240
 5135TIP3    H136820   5.389   0.722  13.546 -2.1131  0.9701 -1.3831
 5135TIP3    H236821   5.264   0.731  13.631 -2.2683 -1.2273 -1.3508
 5136TIP3   OH236822   2.366   5.853   5.548  0.1481 -0.3937  0.0590
 5136TIP3    H136823   2.318   5.774   5.571  0.4527 -0.6055 -0.0251
 5136TIP3    H236824   2.421   5.827   5.473  0.5083 -0.2020  0.2518
 5137TIP3   OH236825   6.563   1.418  15.745 -0.0142  0.5113 -0.3348
 5137TIP3    H136826   6.640   1.363  15.763 -0.0833  0.6224  0.3067
 5137TIP3    H236827   6.556   1.418  15.650  0.1611 -0.3627 -0.3574
 5138TIP3   OH236828   4.214   1.456  11.772  0.3475  0.1255 -0.1293
 5138TIP3    H136829   4.159   1.532  11.753  0.8636  0.7727  0.8733
 5138TIP3    H236830   4.159   1.399  11.826  1.0874  1.4701  2.1624
 5139TIP3   OH236831   5.563   5.529   3.666 -0.3678 -0.4991 -0.7292
 5139TIP3    H136832   5.533   5.614   3.632 -1.9314 -0.5033  0.5516
 5139TIP3    H236833   5.482   5.483   3.687  0.5267 -1.2555  1.1111
 5140TIP3   OH236834   1.300   0.541   3.536 -0.4632  0.4288  0.2672
 5140TIP3    H136835   1.273   0.632   3.540 -2.0478 -0.0692  1.1828
 5140TIP3    H236836   1.385   0.543   3.491 -0.6539  2.2992 -0.0368
 5141TIP3   OH236837   6.542   2.119  16.733 -0.3680 -0.3183 -0.0608
 5141TIP3    H136838   6.608   2.188  16.726  0.8848 -1.6352 -1.6973
 5141TIP3    H236839   6.571   2.067  16.808 -0.9656  0.5535  0.7864
 5142TIP3   OH236840   3.197   4.977   1.604 -0.3156  0.1853  0.7872
 5142TIP3    H136841   3.269   5.017   1.652 -0.5605 -0.3204  1.5961
 5142TIP3    H236842   3.235   4.899   1.563 -0.1485  0.5177  0.3085
 5143TIP3   OH236843   1.218   3.523   4.476 -0.1913 -0.2587  0.1190
 5143TIP3    H136844   1.129   3.541   4.446  0.1617  0.5685 -0.4380
 5143TIP3    H236845   1.213   3.434   4.511 -0.9213 -0.7332 -1.1516
 5144TIP3   OH236846   6.173   3.471  14.033  0.1579 -0.2145  0.0026
 5144TIP3    H136847   6.120   3.545  14.063  0.4553 -0.3646  0.8867
 5144TIP3    H236848   6.218   3.440  14.111 -1.0386 -2.2428 -0.0930
 5145TIP3   OH236849   3.673   6.616   5.053  0.6446 -0.6800 -0.8002
 5145TIP3    H136850   3.704   6.675   5.121  2.1030 -0.5677 -1.5374
 5145TIP3    H236851   3.609   6.559   5.096 -0.0195  0.7603  0.1519
 5146TIP3   OH236852   2.381   2.644  14.188  0.0329 -0.4279  0.1292
 5146TIP3    H136853   2.326   2.576  14.227  0.5230 -2.3213 -2.3070
 5146TIP3    H236854   2.470   2.613  14.201  0.2284 -0.8027 -1.8215
 5147TIP3   OH236855   4.134   4.987  12.386  0.0638 -0.3917  0.0256
 5147TIP3    H136856   4.166   4.936  12.312 -0.5720  0.1614 -0.6380
 5147TIP3    H236857   4.067   5.044  12.349  0.3873  0.5499  0.8580
 5148TIP3   OH236858   1.725   4.861   3.936 -0.3764  0.9462  0.3587
 5148TIP3    H136859   1.672   4.839   3.860 -1.3275  0.5565  1.1274
 5148TIP3    H236860   1.749   4.953   3.923 -2.3671  1.5193  0.6790
 5149TIP3   OH236861   5.398   1.536  14.429 -0.0408  0.0311 -0.7388
 5149TIP3    H136862   5.469   1.472  14.426 -1.0682 -1.2462  1.2682
 5149TIP3    H236863   5.438   1.615  14.465  0.7207 -0.1820 -1.1122
 5150TIP3   OH236864   4.742   0.773  13.369  0.5743 -0.4686 -0.9133
 5150TIP3    H136865   4.698   0.837  13.426  0.7822  0.5411 -1.8687
 5150TIP3    H236866   4.733   0.690  13.416 -1.5733 -0.1325 -0.6574
 5151TIP3   OH236867   1.413   0.328  16.311 -0.1367 -0.5825 -0.5296
 5151TIP3    H136868   1.370   0.336  16.397 -0.2565  1.3443 -0.7600
 5151TIP3    H236869   1.505   0.344  16.329 -0.2958  0.7627 -0.9158
 5152TIP3   OH236870   2.604   0.733   4.235 -0.4786  0.0401 -0.4369
 5152TIP3    H136871   2.570   0.666   4.294 -1.0032 -0.9223 -1.8011
 5152TIP3    H236872   2.557   0.813   4.260 -0.5037 -0.2837  0.6005
 5153TIP3   OH236873   1.376   3.698  14.229 -0.8843 -0.1009 -0.4834
 5153TIP3    H136874   1.353   3.761  14.297 -0.3621 -0.7177  0.2677
 5153TIP3    H236875   1.464   3.669  14.251 -1.0720 -1.0088 -0.8937
 5154TIP3   OH236876   5.519   5.259   2.660 -0.1498 -0.4229 -0.8661
 5154TIP3    H136877   5.570   5.201   2.716  2.6935  0.6171 -2.3196
 5154TIP3    H236878   5.498   5.206   2.582 -0.8917 -0.6895 -0.4927
 5155TIP3   OH236879   3.339   2.321  17.030 -0.0507  0.3599  0.0232
 5155TIP3    H136880   3.259   2.371  17.047 -0.0056  0.7224 -0.7859
 5155TIP3    H236881   3.309   2.232  17.016 -0.1843  0.2575  0.9854
 5156TIP3   OH236882   4.913   3.810  13.927 -0.3810 -0.4290 -0.0194
 5156TIP3    H136883   4.886   3.861  14.003 -1.5098 -0.6751 -0.2492
 5156TIP3    H236884   4.834   3.805  13.872  0.8989  1.3958 -2.1370
 5157TIP3   OH236885   4.332   3.656   6.511  0.1500  0.3146 -0.1793
 5157TIP3    H136886   4.255   3.671   6.565  0.5950  0.9080  0.2956
 5157TIP3    H236887   4.384   3.591   6.558  0.1439  0.2200 -0.3002
 5158TIP3   OH236888   5.737   0.813   4.853 -0.4773 -0.0735  0.6648
 5158TIP3    H136889   5.807   0.862   4.897 -0.2583  1.0293 -0.8947
 5158TIP3    H236890   5.774   0.791   4.767 -1.6643 -0.4253  0.2409
 5159TIP3   OH236891   1.601   2.231  12.451  0.5130 -0.0440  0.5778
 5159TIP3    H136892   1.632   2.182  12.375  0.1049 -0.9193  0.9650
 5159TIP3    H236893   1.513   2.260  12.427  0.1492 -0.8389  0.9463
 5160TIP3   OH236894   4.998   2.938  16.447 -0.2704 -0.1340  0.2072
 5160TIP3    H136895   4.910   2.933  16.482  0.2793  0.7238  1.7166
 5160TIP3    H236896   5.053   2.893  16.512  0.3513 -1.0193 -0.9082
 5161TIP3   OH236897   2.187   1.940  14.739 -0.6876 -0.2482 -0.5807
 5161TIP3    H136898   2.229   1.964  14.822  0.1041 -0.6286 -0.8731
 5161TIP3    H236899   2.172   2.024  14.695 -1.1547 -0.0404 -0.0319
 5162TIP3   OH236900   3.607   3.934  14.797  0.3946  0.4359  0.2755
 5162TIP3    H136901   3.680   3.892  14.841 -0.3283 -1.3038 -0.1307
 5162TIP3    H236902   3.532   3.916  14.853  0.2560  2.0881  0.6199
 5163TIP3   OH236903   2.741   4.018  12.262 -0.2410  0.6021 -0.1360
 5163TIP3    H136904   2.676   4.087  12.277  0.1760  0.9740 -0.0043
 5163TIP3    H236905   2.751   4.015  12.167  0.3765  1.3321 -0.1029
 5164TIP3   OH236906   1.713   0.541  13.207 -0.6373 -0.0864  0.5505
 5164TIP3    H136907   1.645   0.484  13.172  0.2366  0.3702 -2.0530
 5164TIP3    H236908   1.764   0.485  13.266 -0.6518 -1.6283 -0.8557
 5165TIP3   OH236909   5.708   6.690   0.355 -0.0774 -0.9029  0.2043
 5165TIP3    H136910   5.727   6.771   0.307 -0.5722 -0.6870  0.3753
 5165TIP3    H236911   5.794   6.653   0.373  0.1263 -0.9122 -0.7310
 5166TIP3   OH236912   0.790   3.924   0.369 -0.0697  0.3914 -0.0699
 5166TIP3    H136913   0.789   4.019   0.362 -0.4722  0.5369  1.7713
 5166TIP3    H236914   0.865   3.897   0.316 -0.3355  1.6755 -1.1172
 5167TIP3   OH236915   3.172   6.387  13.251  0.2496  0.3331 -0.0902
 5167TIP3    H136916   3.090   6.415  13.292  1.0034  1.3998  0.7042
 5167TIP3    H236917   3.171   6.427  13.164 -0.8438 -1.0423 -0.7332
 5168TIP3   OH236918   3.501   3.624   4.516  0.1737  1.0446 -0.6012
 5168TIP3    H136919   3.551   3.677   4.455  0.0737  1.3876 -0.3828
 5168TIP3    H236920   3.450   3.564   4.461  2.7910 -1.1129 -0.7876
 5169TIP3   OH236921   5.165   6.688  14.157 -0.3255  0.3742 -0.1487
 5169TIP3    H136922   5.181   6.783  14.162 -0.5219  0.4840 -1.4838
 5169TIP3    H236923   5.218   6.652  14.228  1.6178  1.2641 -1.0988
 5170TIP3   OH236924   2.680   3.261   4.891 -0.6937  0.1175  0.5070
 5170TIP3    H136925   2.691   3.204   4.815 -0.5480 -1.4779  1.7187
 5170TIP3    H236926   2.588   3.253   4.915 -0.3504 -0.7313  1.5577
 5171TIP3   OH236927   2.413   1.033   0.727  0.5721  0.2128  0.7639
 5171TIP3    H136928   2.423   1.046   0.633 -1.1157 -2.6253  0.1390
 5171TIP3    H236929   2.503   1.029   0.760  1.2025 -0.0703 -0.9272
 5172TIP3   OH236930   6.644   2.686   0.802 -0.5764 -0.1714 -0.2227
 5172TIP3    H136931   6.618   2.654   0.888  0.0406  0.7561  0.3168
 5172TIP3    H236932   6.582   2.646   0.741 -0.4251 -1.5823  0.5427
 5173TIP3   OH236933   4.634   0.384   1.552 -0.1940  0.2614  0.3583
 5173TIP3    H136934   4.571   0.316   1.528  0.0850  0.7518 -1.9230
 5173TIP3    H236935   4.718   0.352   1.518  0.2662  0.8781  0.9093
 5174TIP3   OH236936   3.089   4.046   0.939  0.7390 -0.0699 -0.2827
 5174TIP3    H136937   3.107   4.015   0.850 -0.3325 -0.8114 -0.2441
 5174TIP3    H236938   3.136   3.984   0.996  0.8112 -0.0265 -0.2937
 5175TIP3   OH236939   2.064   2.592   6.125 -0.0903 -0.1596 -0.1990
 5175TIP3    H136940   2.105   2.639   6.198 -0.4225  0.4288 -0.3940
 5175TIP3    H236941   2.040   2.507   6.163 -1.5786  0.6756  0.7904
 5176TIP3   OH236942   5.670   6.580  16.030  0.3308 -0.3984  0.5202
 5176TIP3    H136943   5.763   6.601  16.019  0.4899 -1.7501 -0.7831
 5176TIP3    H236944   5.647   6.532  15.951 -0.9925 -1.7999  1.7447
 5177TIP3   OH236945   5.159   0.760   5.731 -0.1198 -0.6287  0.0165
 5177TIP3    H136946   5.157   0.665   5.742  0.2885 -0.8156 -1.4393
 5177TIP3    H236947   5.206   0.774   5.648 -1.3041  0.7701 -0.4440
 5178TIP3   OH236948   2.638   2.571  13.295  0.8080 -0.0693  0.2320
 5178TIP3    H136949   2.679   2.591  13.379  0.5946  2.1956 -0.1858
 5178TIP3    H236950   2.596   2.652  13.268 -0.2719 -1.1494 -1.4389
 5179TIP3   OH236951   2.773   4.114  14.550  0.0066 -0.1080 -0.0165
 5179TIP3    H136952   2.732   4.031  14.573  0.0860  0.5038  2.4223
 5179TIP3    H236953   2.858   4.111  14.594 -1.1230  2.4231  2.4656
 5180TIP3   OH236954   1.093   0.391   2.776 -0.0700 -0.2412 -0.1366
 5180TIP3    H136955   1.017   0.381   2.833  0.1008  2.2497  0.5956
 5180TIP3    H236956   1.127   0.478   2.796  0.1274  0.6592 -3.8672
 5181TIP3   OH236957   2.611   5.250  14.216 -0.0222 -0.0955 -0.4320
 5181TIP3    H136958   2.660   5.204  14.284 -0.2818 -0.8730 -0.7581
 5181TIP3    H236959   2.658   5.231  14.135  0.2636  0.7943 -0.4812
 5182TIP3   OH236960   6.533   3.360   5.964  0.1030  0.3392  0.2211
 5182TIP3    H136961   6.620   3.391   5.940 -0.0149  0.3085 -0.2485
 5182TIP3    H236962   6.473   3.423   5.923 -0.0859  0.5313  0.7946
 5183TIP3   OH236963   1.796   0.005  16.033  0.1207  0.1116  0.0117
 5183TIP3    H136964   1.724  -0.040  16.077  0.4982 -1.0272 -0.5147
 5183TIP3    H236965   1.874  -0.021  16.083  0.5528 -1.2108 -1.3147
 5184TIP3   OH236966   5.179   5.772  12.308 -0.9667 -0.4349  0.6811
 5184TIP3    H136967   5.232   5.714  12.253 -0.4540 -0.3595  1.0923
 5184TIP3    H236968   5.152   5.717  12.381  3.4828  0.9804  3.6400
 5185TIP3   OH236969   4.066   0.235  15.693 -0.1367  0.1795 -0.5304
 5185TIP3    H136970   3.999   0.278  15.639  1.0753  0.6948 -1.6692
 5185TIP3    H236971   4.019   0.204  15.770 -1.9553 -0.7357 -1.9720
 5186TIP3   OH236972   0.501   2.836  15.894 -0.6374  0.1916  0.3993
 5186TIP3    H136973   0.563   2.776  15.854  0.4597  2.0148 -0.6783
 5186TIP3    H236974   0.415   2.807  15.862 -0.2811 -1.5973  0.9680
 5187TIP3   OH236975   4.832   3.265  14.941  0.7255 -0.0689  0.3421
 5187TIP3    H136976   4.896   3.309  14.997 -0.0077 -0.6998  1.6895
 5187TIP3    H236977   4.885   3.214  14.880  1.5353  0.7188  0.3677
 5188TIP3   OH236978   4.870   0.383  15.255 -0.2725 -0.0737  0.2468
 5188TIP3    H136979   4.807   0.310  15.259  1.3870 -1.6302 -1.3591
 5188TIP3    H236980   4.952   0.345  15.285  0.0739  1.7952  1.7362
 5189TIP3   OH236981   5.985   0.549  14.292  0.1207 -0.2300  0.1918
 5189TIP3    H136982   6.057   0.497  14.329  1.5261  0.3005 -1.7781
 5189TIP3    H236983   5.982   0.628  14.346 -0.7282 -1.4255  1.9444
 5190TIP3   OH236984   6.451   2.193   1.676  0.4483  0.1358 -0.0093
 5190TIP3    H136985   6.394   2.260   1.714  2.6803  0.8213  2.2773
 5190TIP3    H236986   6.419   2.183   1.586 -2.7599  1.0295  0.9575
 5191TIP3   OH236987   4.679   2.645   0.998 -0.2835 -0.7168 -0.1791
 5191TIP3    H136988   4.596   2.635   0.950 -0.3522 -0.7515 -0.0544
 5191TIP3    H236989   4.681   2.737   1.023  0.8750 -0.1397 -2.2824
 5192TIP3   OH236990   6.628   6.734   0.336  0.2726 -0.6016 -0.4290
 5192TIP3    H136991   6.558   6.799   0.346 -0.9489 -1.5379 -2.5823
 5192TIP3    H236992   6.705   6.776   0.375 -0.5536  2.0380 -1.5014
 5193TIP3   OH236993   4.339   1.334   0.961  0.5977  0.0736  0.2408
 5193TIP3    H136994   4.310   1.365   1.047 -1.0616 -0.4034 -0.1205
 5193TIP3    H236995   4.269   1.362   0.902  0.8323 -1.2123 -0.6501
 5194TIP3   OH236996   2.014   4.632   1.893 -0.0225  0.0660 -0.5730
 5194TIP3    H136997   2.050   4.658   1.809  0.4895 -0.9002 -0.6565
 5194TIP3    H236998   2.033   4.706   1.951 -0.6421  0.8628 -1.3675
 5195TIP3   OH236999   2.470   0.725   1.483 -0.8640  0.2040 -0.0047
 5195TIP3    H137000   2.540   0.685   1.431  1.0379  3.2331  0.0934
 5195TIP3    H237001   2.440   0.799   1.430 -2.1519  0.5310  1.1614
 5196TIP3   OH237002   2.958   1.384  13.509  0.3404  0.1802  0.0627
 5196TIP3    H137003   2.941   1.396  13.603 -0.4332  1.2968 -0.2050
 5196TIP3    H237004   3.052   1.373  13.502  0.5449  1.4107  0.8443
 5197TIP3   OH237005   3.829   4.088  16.803  0.5912  0.1399  0.1050
 5197TIP3    H137006   3.799   4.125  16.720 -0.2979  1.3550  0.9451
 5197TIP3    H237007   3.854   3.998  16.782  0.6589  0.5333 -1.5290
 5198TIP3   OH237008   6.631   2.070   5.852  0.3482 -0.5298  0.0225
 5198TIP3    H137009   6.556   2.107   5.805  0.1148 -0.5991  0.3412
 5198TIP3    H237010   6.620   1.975   5.844  0.0202 -0.5467  0.6759
 5199TIP3   OH237011   5.740   0.138   3.429 -0.1738  0.2715 -0.5983
 5199TIP3    H137012   5.686   0.145   3.508  1.6325 -0.6023  0.7570
 5199TIP3    H237013   5.827   0.118   3.462  1.1235  2.1853 -2.6985
 5200TIP3   OH237014   5.738   5.664  16.636 -0.6231  0.2670  0.3700
 5200TIP3    H137015   5.788   5.582  16.645 -0.3623  0.3396 -0.3555
 5200TIP3    H237016   5.709   5.665  16.545 -2.0845  0.1638  0.8206
 5201TIP3   OH237017   1.326   2.354  16.184 -0.2991  0.2263  0.7844
 5201TIP3    H137018   1.405   2.399  16.215  1.5185 -0.8408 -2.1275
 5201TIP3    H237019   1.296   2.407  16.110 -1.3048 -0.3528  0.7677
 5202TIP3   OH237020   3.533   3.889  11.177 -0.5266  0.1145  0.6279
 5202TIP3    H137021   3.545   3.880  11.272 -0.2900  0.5618  0.6429
 5202TIP3    H237022   3.618   3.867  11.140 -0.0336  1.9153  0.6437
 5203TIP3   OH237023   3.214   5.671  11.885  0.6588 -0.2213 -0.1142
 5203TIP3    H137024   3.138   5.613  11.895  2.3256 -2.7140 -1.2707
 5203TIP3    H237025   3.278   5.638  11.948  1.3301  0.9411 -0.1658
 5204TIP3   OH237026   0.561   4.518   3.930  0.2221  0.1348  0.0306
 5204TIP3    H137027   0.608   4.503   4.012 -1.1691 -0.0740  0.8130
 5204TIP3    H237028   0.578   4.609   3.909  0.6482  0.1704  0.5192
 5205TIP3   OH237029   6.053   5.751  16.547  0.0780  0.2233 -0.3397
 5205TIP3    H137030   6.076   5.837  16.513 -0.0368 -0.0811 -1.1961
 5205TIP3    H237031   5.958   5.744  16.533 -0.0445  0.2547  0.4135
 5206TIP3   OH237032   0.837   1.831   5.438 -0.6122 -0.4102  0.2676
 5206TIP3    H137033   0.914   1.779   5.459  0.1633  0.8425  0.5396
 5206TIP3    H237034   0.764   1.780   5.473  0.2442 -0.7659  1.5714
 5207TIP3   OH237035   4.167   0.983   0.231  0.5183 -0.6693  0.3544
 5207TIP3    H137036   4.258   0.970   0.205  0.2751  0.7704 -1.2954
 5207TIP3    H237037   4.165   1.071   0.269 -0.0618 -0.9562  1.0119
 5208TIP3   OH237038   1.846   3.250  10.581  0.2724 -0.1977 -0.1264
 5208TIP3    H137039   1.892   3.167  10.591  0.0213 -0.2960  0.2154
 5208TIP3    H237040   1.754   3.226  10.575  0.0943  0.1405  1.1786
 5209TIP3   OH237041   0.018   3.259   1.322  0.4574 -0.2967 -0.1977
 5209TIP3    H137042   0.024   3.333   1.262  0.4311 -0.1423 -0.0100
 5209TIP3    H237043   0.100   3.212   1.310  0.0688 -0.7612 -1.0010
 5210TIP3   OH237044   1.536   4.820   0.084 -0.0548 -0.0869  0.0648
 5210TIP3    H137045   1.622   4.812   0.126  0.8745  0.9666 -1.6071
 5210TIP3    H237046   1.489   4.882   0.139  0.9866  0.9145 -0.1608
 5211TIP3   OH237047   0.935   4.661  11.811  0.3027 -0.3377 -0.2605
 5211TIP3    H137048   0.865   4.694  11.755 -2.2438 -1.8839  1.9304
 5211TIP3    H237049   0.948   4.730  11.876 -1.4623 -1.4446  1.2733
 5212TIP3   OH237050   1.494   0.744  16.892  0.4281 -0.4806 -0.4108
 5212TIP3    H137051   1.534   0.815  16.841  0.0071  1.9306  2.4043
 5212TIP3    H237052   1.553   0.670  16.880  2.1295  1.0186 -1.7098
 5213TIP3   OH237053   0.869   2.036   0.908  0.4354  0.0432  0.4214
 5213TIP3    H137054   0.826   2.015   0.991  0.4154  0.5187  0.5351
 5213TIP3    H237055   0.844   1.965   0.849  0.0516 -0.0397  0.6835
 5214TIP3   OH237056   1.520   2.039  14.428 -0.6714 -0.0452  0.3020
 5214TIP3    H137057   1.568   1.987  14.364 -0.8406 -1.1411  1.0327
 5214TIP3    H237058   1.441   2.067  14.383  1.0363  2.5024 -1.1807
 5215TIP3   OH237059   5.136   3.906   0.354 -0.5935  0.3675  0.3716
 5215TIP3    H137060   5.188   3.899   0.273  0.3906  0.5479  0.9824
 5215TIP3    H237061   5.102   3.995   0.354  0.3891  0.7453  0.7467
 5216TIP3   OH237062   2.958   3.633  15.693  0.1717  0.1836  0.4061
 5216TIP3    H137063   3.019   3.692  15.737  0.0605  1.3212 -0.9509
 5216TIP3    H237064   3.011   3.588  15.627 -0.4440  1.2021 -0.8016
 5217TIP3   OH237065   6.492   3.089  15.379  0.0650  0.2054 -0.2791
 5217TIP3    H137066   6.568   3.101  15.322  0.1970  0.2407 -0.0946
 5217TIP3    H237067   6.424   3.053  15.322  0.9074 -1.9283  0.0604
 5218TIP3   OH237068   0.359   0.580  12.791  0.0489  0.5470  0.0115
 5218TIP3    H137069   0.391   0.499  12.830 -0.5450  0.0929 -0.4262
 5218TIP3    H237070   0.372   0.568  12.697 -0.4830  0.7658 -0.0922
 5219TIP3   OH237071   4.963   1.292  16.395  0.0396 -0.1455 -0.2160
 5219TIP3    H137072   5.029   1.346  16.351  2.0298 -1.1212  1.5624
 5219TIP3    H237073   4.936   1.344  16.470  0.2493 -0.6162  0.1833
 5220TIP3   OH237074   3.001   2.614  12.434 -0.3455  0.0480  0.3265
 5220TIP3    H137075   3.085   2.632  12.392 -0.9292 -1.6187 -1.5943
 5220TIP3    H237076   3.025   2.572  12.517  0.7161 -1.6586 -0.8166
 5221TIP3   OH237077   5.654   4.731   0.565  0.7794  0.2730  0.3421
 5221TIP3    H137078   5.676   4.710   0.656  0.1528  0.1381  0.4646
 5221TIP3    H237079   5.692   4.660   0.514  1.8231  0.7676  0.4241
 5222TIP3   OH237080   3.268   0.529  15.858 -0.4058 -0.1201 -0.2527
 5222TIP3    H137081   3.213   0.523  15.780 -0.6825 -0.2172 -0.0517
 5222TIP3    H237082   3.212   0.498  15.929 -0.2425  0.2213  0.0282
 5223TIP3   OH237083   0.816   0.228   5.884 -0.1573 -0.1735  0.1650
 5223TIP3    H137084   0.861   0.199   5.963  0.9383  0.4839 -0.2077
 5223TIP3    H237085   0.776   0.311   5.908 -0.3626 -0.2894  0.2204
 5224TIP3   OH237086   5.322   3.466   3.537  0.2374 -0.4732 -0.3249
 5224TIP3    H137087   5.232   3.447   3.510  0.7503 -0.1702 -2.2611
 5224TIP3    H237088   5.326   3.436   3.628 -1.4716 -1.5786 -0.5935
 5225TIP3   OH237089   0.015   6.773   1.176 -0.2176 -0.9312 -0.2773
 5225TIP3    H137090  -0.050   6.807   1.237 -2.2234  0.0270 -2.8349
 5225TIP3    H237091   0.019   6.679   1.194  0.4389 -0.4309  2.3598
 5226TIP3   OH237092   5.708   0.226   2.345  0.4028 -0.1404 -0.1200
 5226TIP3    H137093   5.713   0.261   2.434 -0.2595  2.5871 -1.1263
 5226TIP3    H237094   5.783   0.265   2.300  0.0976 -0.6291 -1.0580
 5227TIP3   OH237095   4.669   0.696   0.250  0.4247 -0.4432  0.5633
 5227TIP3    H137096   4.761   0.671   0.250 -0.1928 -2.7812  0.1379
 5227TIP3    H237097   4.635   0.668   0.335 -0.0119 -0.0054  0.5427
 5228TIP3   OH237098   1.840   1.816   1.832 -1.0016  0.5398  0.5865
 5228TIP3    H137099   1.796   1.782   1.754 -0.3300  1.3562 -0.1639
 5228TIP3    H237100   1.934   1.810   1.811 -0.7747 -0.3637  1.8096
 5229TIP3   OH237101   2.093   4.100  15.237 -0.5045  0.5307 -0.2498
 5229TIP3    H137102   2.037   4.128  15.310 -0.4423  0.3445 -0.1304
 5229TIP3    H237103   2.132   4.181  15.205 -1.6898  0.8034 -1.0367
 5230TIP3   OH237104   4.566   0.450   5.187  0.3230  0.1060 -0.1565
 5230TIP3    H137105   4.569   0.435   5.281  0.8964 -0.1362 -0.2061
 5230TIP3    H237106   4.654   0.425   5.156 -0.0721 -0.4689 -0.8439
 5231TIP3   OH237107   4.882   4.578  16.793  0.4418  0.0537  0.1993
 5231TIP3    H137108   4.890   4.672  16.807  1.0400  0.0790 -0.2621
 5231TIP3    H237109   4.793   4.566  16.760 -0.0985  0.2875  1.5635
 5232TIP3   OH237110   6.169   5.715   4.543 -0.2662  0.7207  0.3264
 5232TIP3    H137111   6.086   5.729   4.589 -0.3732 -0.0353  0.3664
 5232TIP3    H237112   6.147   5.730   4.451 -0.9318 -1.4675  0.1015
 5233TIP3   OH237113   2.112   4.502  15.888  1.5258  0.1760  0.1471
 5233TIP3    H137114   2.145   4.504  15.798 -0.8504 -1.3266 -0.7854
 5233TIP3    H237115   2.048   4.573  15.892 -1.2142 -2.1754 -0.5327
 5234TIP3   OH237116   6.685   3.603  11.326  0.0690 -0.1762  0.6370
 5234TIP3    H137117   6.627   3.578  11.254  1.4033 -1.5244 -0.0083
 5234TIP3    H237118   6.629   3.654  11.385 -2.3276 -3.0738  1.0220
 5235TIP3   OH237119   4.268   3.719   1.062 -0.1081 -0.3456 -0.4651
 5235TIP3    H137120   4.307   3.767   1.135 -1.9760 -0.2857  0.4954
 5235TIP3    H237121   4.332   3.729   0.991  1.9323 -0.7596  1.2515
 5236TIP3   OH237122   6.591   5.642   5.122 -0.0111  0.1461  0.0479
 5236TIP3    H137123   6.591   5.555   5.162 -0.9386 -0.2587 -0.8224
 5236TIP3    H237124   6.682   5.655   5.095  0.4881  0.1411  1.6513
 5237TIP3   OH237125   2.944   4.367   4.213 -0.6138 -0.3797  0.2014
 5237TIP3    H137126   2.999   4.311   4.268  0.5108  1.1203  0.6335
 5237TIP3    H237127   2.970   4.347   4.123  0.2668 -0.0609  0.3817
 5238TIP3   OH237128   3.453   5.098  13.309  0.2685  0.3926  0.0338
 5238TIP3    H137129   3.500   5.116  13.227 -0.2380 -0.0402 -0.3534
 5238TIP3    H237130   3.478   5.170  13.367 -0.3377  1.3610 -0.9037
 5239TIP3   OH237131   4.646   5.531  13.002  0.3680  0.2982  0.4898
 5239TIP3    H137132   4.737   5.519  13.029  0.4457 -0.4945 -0.0934
 5239TIP3    H237133   4.608   5.443  13.006  0.0891  0.3347 -0.9040
 5240TIP3   OH237134   1.059   3.424  13.516 -0.1370  0.3201  0.4283
 5240TIP3    H137135   0.998   3.497  13.515  0.3977  0.7670  0.6420
 5240TIP3    H237136   1.144   3.463  13.535  0.7312  0.0877 -2.7012
 5241TIP3   OH237137   3.115   4.008   1.438 -0.0391  0.2485  0.2848
 5241TIP3    H137138   3.068   3.930   1.467 -2.2207  1.4553  0.1131
 5241TIP3    H237139   3.086   4.077   1.498  3.1921  0.5984  1.5309
 5242TIP3   OH237140   3.051   5.137   5.652  0.3857  0.3317  0.4441
 5242TIP3    H137141   3.077   5.125   5.561  1.8847  0.0920  0.8946
 5242TIP3    H237142   2.961   5.103   5.656  0.3796  0.1574 -0.8862
 5243TIP3   OH237143   0.186   2.316  15.531  0.2547 -0.2168  0.1305
 5243TIP3    H137144   0.124   2.244  15.522 -0.6520  0.2774  2.1961
 5243TIP3    H237145   0.207   2.341  15.441 -0.1339 -2.4293 -0.6109
 5244TIP3   OH237146   6.370   1.180  14.993 -0.0641 -0.0605 -0.2305
 5244TIP3    H137147   6.457   1.216  14.976  0.4053 -0.0036  2.0747
 5244TIP3    H237148   6.369   1.096  14.947  0.9575  0.2420 -0.8102
 5245TIP3   OH237149   5.328   5.395  12.915  0.0324 -0.2132 -0.1966
 5245TIP3    H137150   5.351   5.447  12.838 -0.3759  0.4592  0.1327
 5245TIP3    H237151   5.303   5.459  12.981  2.1134 -0.7056  1.1066
 5246TIP3   OH237152   2.324   3.022  16.731 -0.0873  0.1440 -0.1211
 5246TIP3    H137153   2.403   2.968  16.727 -1.4478 -1.9120 -0.0774
 5246TIP3    H237154   2.349   3.104  16.687  2.0458 -0.4673 -0.1160
 5247TIP3   OH237155   4.851   6.021   1.220  0.1357 -0.6428  0.6234
 5247TIP3    H137156   4.921   5.968   1.256  0.9893 -1.3053 -1.8939
 5247TIP3    H237157   4.893   6.074   1.152 -1.8545 -1.3475 -1.2199
 5248TIP3   OH237158   1.570   3.949   2.199  0.0966 -0.1532  0.1071
 5248TIP3    H137159   1.485   3.914   2.226 -0.4518  2.3217  1.8135
 5248TIP3    H237160   1.576   3.930   2.106 -2.2858 -0.4587 -0.0065
 5249TIP3   OH237161   2.006   5.075  12.822  0.0071  0.0062 -0.2148
 5249TIP3    H137162   2.001   4.983  12.848 -3.5208 -0.0523 -0.8038
 5249TIP3    H237163   2.089   5.106  12.857  0.0227 -2.7167  2.2858
 5250TIP3   OH237164   5.543   4.708  14.309 -0.6340 -0.2900  0.2308
 5250TIP3    H137165   5.636   4.684  14.304 -0.1943  1.7579 -1.6709
 5250TIP3    H237166   5.524   4.710  14.403  1.1302 -1.1255  0.6211
 5251TIP3   OH237167   5.147   0.450  16.138 -0.0889 -0.1825 -0.1994
 5251TIP3    H137168   5.072   0.443  16.197  0.9674  0.2548  1.2463
 5251TIP3    H237169   5.110   0.474  16.053 -1.4147  2.1436  0.9925
 5252TIP3   OH237170   5.562   6.680   0.806  0.3287 -0.0539  0.1942
 5252TIP3    H137171   5.561   6.776   0.813  1.2760 -0.1363  1.6349
 5252TIP3    H237172   5.655   6.657   0.801  0.0646 -0.8085 -1.9034
 5253TIP3   OH237173   4.879   4.521   3.454  0.2264 -0.0440  0.7734
 5253TIP3    H137174   4.951   4.575   3.421 -0.7612  0.5701 -0.4204
 5253TIP3    H237175   4.922   4.446   3.495  1.5314 -0.1778 -0.7995
 5254TIP3   OH237176   3.221   5.449   1.648  0.1923 -0.9317  0.3209
 5254TIP3    H137177   3.246   5.461   1.556  1.0709  0.0291  0.6666
 5254TIP3    H237178   3.130   5.419   1.645 -0.0136 -0.2146 -0.8437
 5255TIP3   OH237179   6.014   1.633   2.723 -0.3544  0.1860 -0.2783
 5255TIP3    H137180   5.981   1.662   2.638 -0.1095 -0.1033 -0.4739
 5255TIP3    H237181   5.936   1.627   2.778 -0.4164  1.1159 -0.2643
 5256TIP3   OH237182   3.062   3.537   0.109  0.1862 -0.0720 -0.0475
 5256TIP3    H137183   3.140   3.530   0.054  0.3568 -1.4136  0.3475
 5256TIP3    H237184   3.095   3.560   0.195  0.1325 -0.3882  0.0595
 5257TIP3   OH237185   5.031   5.675  12.012 -0.1155  0.1488 -0.5252
 5257TIP3    H137186   5.092   5.656  12.084  0.1802  2.2196 -0.2172
 5257TIP3    H237187   5.082   5.662  11.933  0.7495  1.8919 -0.2688
 5258TIP3   OH237188   4.602   4.040  16.624  0.1690 -0.1022  0.2483
 5258TIP3    H137189   4.534   4.061  16.559  1.7797  2.3504 -0.7455
 5258TIP3    H237190   4.602   4.116  16.682  1.3773 -0.5477  0.8336
 5259TIP3   OH237191   1.496   0.146  14.539  0.0191  0.2530  0.4419
 5259TIP3    H137192   1.559   0.218  14.534 -1.6825  1.6862 -1.0068
 5259TIP3    H237193   1.418   0.185  14.578 -1.2070 -0.5792 -1.1323
 5260TIP3   OH237194   1.333   3.901  12.746  0.1279  0.1129  0.1347
 5260TIP3    H137195   1.405   3.846  12.777  0.1259  0.9888  1.7369
 5260TIP3    H237196   1.303   3.858  12.666  0.5740 -1.8361  0.9854
 5261TIP3   OH237197   3.437   1.737   6.464 -0.7347 -0.3689 -0.2144
 5261TIP3    H137198   3.344   1.752   6.446 -0.2666 -0.0928 -2.5407
 5261TIP3    H237199   3.444   1.643   6.479 -1.5400 -0.2498  0.9591
 5262TIP3   OH237200   2.266   6.562   3.217 -0.0682 -0.2221  0.0920
 5262TIP3    H137201   2.306   6.628   3.273 -2.0120  2.4327 -1.5051
 5262TIP3    H237202   2.324   6.486   3.224  1.5301  1.1741  3.0054
 5263TIP3   OH237203   3.346   3.793  16.654  0.1736  0.4340 -0.2610
 5263TIP3    H137204   3.313   3.868  16.703 -0.0539  0.2073 -0.0665
 5263TIP3    H237205   3.361   3.826  16.566 -0.5215  0.5509 -0.3404
 5264TIP3   OH237206   1.410   2.495  14.976  0.6040  0.3286  0.1135
 5264TIP3    H137207   1.408   2.547  15.056  0.1365  2.0509 -0.9812
 5264TIP3    H237208   1.496   2.511  14.939  0.6482 -0.1034  0.0195
 5265TIP3   OH237209   3.526   1.205   2.675  0.0337 -0.7364 -0.4031
 5265TIP3    H137210   3.553   1.292   2.704 -1.8762 -0.2821  0.0833
 5265TIP3    H237211   3.558   1.146   2.743  0.2434 -0.2640 -0.0865
 5266TIP3   OH237212   2.635   5.751   4.384  0.1033 -0.2939 -0.3380
 5266TIP3    H137213   2.693   5.806   4.331  0.4715  1.5139  1.8484
 5266TIP3    H237214   2.669   5.662   4.373  2.3348  0.5291 -0.3029
 5267TIP3   OH237215   0.453   4.222  10.748 -0.2828  0.3038 -0.1991
 5267TIP3    H137216   0.461   4.308  10.707 -0.5353  0.2658 -0.3267
 5267TIP3    H237217   0.416   4.241  10.835  1.8628  0.5543  0.6907
 5268TIP3   OH237218   3.321   2.564   0.697 -0.4784 -0.3042 -0.1032
 5268TIP3    H137219   3.416   2.552   0.709 -0.1221  2.2402 -0.0789
 5268TIP3    H237220   3.306   2.545   0.605  0.0238 -0.9184 -0.0643
 5269TIP3   OH237221   6.636   3.712   4.006  0.0117  0.5156 -0.1262
 5269TIP3    H137222   6.619   3.764   4.085 -0.1109  0.3269 -0.0283
 5269TIP3    H237223   6.552   3.669   3.987 -0.1513  1.0976 -0.7504
 5270TIP3   OH237224   1.922   2.950   6.116  0.7964  0.4042  1.0892
 5270TIP3    H137225   1.996   2.930   6.058  0.0727 -0.9259  0.5838
 5270TIP3    H237226   1.938   2.898   6.194  0.5801  0.3880  1.1226
 5271TIP3   OH237227   5.110   2.876  10.690 -0.4602 -0.6989  0.2701
 5271TIP3    H137228   5.075   2.848  10.605 -1.7717  0.0734  0.5427
 5271TIP3    H237229   5.099   2.800  10.747 -1.6741 -0.4738  0.3430
 5272TIP3   OH237230   6.013   3.944  14.091 -0.0737 -0.4461 -0.1925
 5272TIP3    H137231   6.012   3.928  14.186 -0.5607  0.5654 -0.0180
 5272TIP3    H237232   6.103   3.972  14.073 -0.1199 -0.1179  0.0716
 5273TIP3   OH237233   6.070   3.616  15.650 -0.7854  0.2825  0.5207
 5273TIP3    H137234   6.084   3.534  15.697  0.9199  0.5451  0.5057
 5273TIP3    H237235   6.059   3.591  15.559 -0.7002  0.0381  0.5786
 5274TIP3   OH237236   1.007   6.231  11.809 -0.0839 -0.4366  0.2522
 5274TIP3    H137237   1.017   6.317  11.768 -1.7000 -0.3834 -0.0880
 5274TIP3    H237238   0.986   6.172  11.736 -1.9060 -0.5438  0.8404
 5275TIP3   OH237239   3.000   2.877   0.581  0.2152 -0.8130  0.0925
 5275TIP3    H137240   2.925   2.908   0.529  0.9529  0.0052 -0.5117
 5275TIP3    H237241   2.981   2.907   0.670  0.8552  1.3648 -0.4596
 5276TIP3   OH237242   6.146   5.566  15.584  0.3210  0.2772  0.1103
 5276TIP3    H137243   6.187   5.651  15.601 -0.6015  0.8828 -0.6621
 5276TIP3    H237244   6.129   5.565  15.490  2.1666 -1.6118 -0.2453
 5277TIP3   OH237245   6.780   2.283  15.953  0.4826  0.4451  0.2942
 5277TIP3    H137246   6.837   2.325  16.017  1.0108  0.2134 -0.0261
 5277TIP3    H237247   6.833   2.214  15.914 -0.2714 -0.2797  0.5512
 5278TIP3   OH237248   4.032   0.208   1.835  0.4690 -0.6992 -0.1524
 5278TIP3    H137249   4.076   0.261   1.769 -0.9495 -0.5905 -1.0180
 5278TIP3    H237250   4.017   0.124   1.792 -2.3462  0.0534 -0.7157
 5279TIP3   OH237251   3.070   5.114  11.146  0.4861 -0.5534 -0.1671
 5279TIP3    H137252   3.100   5.077  11.229  0.4651 -0.0208  0.0798
 5279TIP3    H237253   3.074   5.209  11.159  0.8929 -0.4613 -0.9196
 5280TIP3   OH237254   4.686   3.597   3.552  0.3665  0.1656  0.0642
 5280TIP3    H137255   4.688   3.524   3.613 -0.1976  0.2301  0.1657
 5280TIP3    H237256   4.717   3.672   3.603  1.8998 -0.1840 -0.3117
 5281TIP3   OH237257   2.515   0.744   0.866  0.0066  0.8543 -0.2821
 5281TIP3    H137258   2.469   0.702   0.938  1.2458 -0.5455 -0.2732
 5281TIP3    H237259   2.600   0.769   0.903  0.3627  0.8066 -1.0557
 5282TIP3   OH237260   6.108   4.447   3.455 -0.1669 -0.2653  0.0106
 5282TIP3    H137261   6.174   4.454   3.525 -0.4414 -2.3367  0.5044
 5282TIP3    H237262   6.062   4.366   3.474 -1.1903 -0.1226 -1.7948
 5283TIP3   OH237263   4.609   1.024  10.201  0.8147  0.5911  0.6413
 5283TIP3    H137264   4.704   1.031  10.200  0.7878  1.0475  1.3712
 5283TIP3    H237265   4.578   1.106  10.163  0.7104  0.3519  0.1998
 5284TIP3   OH237266   6.300   5.517   2.822  0.1941  0.1379  0.0268
 5284TIP3    H137267   6.242   5.442   2.807 -1.2625  1.4600 -1.2293
 5284TIP3    H237268   6.370   5.507   2.757  1.2288 -1.2890  1.3295
 5285TIP3   OH237269   3.085   0.374  13.820 -0.2273 -0.0030 -0.2108
 5285TIP3    H137270   3.078   0.469  13.830 -0.0793 -0.1849  1.7666
 5285TIP3    H237271   3.178   0.359  13.801  0.0215  0.1507  0.8360
 5286TIP3   OH237272   1.035   2.494  11.388  0.5464 -0.4833 -0.1773
 5286TIP3    H137273   1.026   2.557  11.316  0.5481 -0.8787 -0.5281
 5286TIP3    H237274   0.970   2.522  11.453  1.4336  0.6381  0.2413
 5287TIP3   OH237275   0.286   0.637  17.000 -0.2318 -0.1046 -0.1151
 5287TIP3    H137276   0.259   0.604  16.914  0.5286  0.9826 -0.7887
 5287TIP3    H237277   0.206   0.634  17.053 -0.9812  0.2943 -1.2029
 5288TIP3   OH237278   4.071   4.016  12.800  0.0550  0.0763 -0.9699
 5288TIP3    H137279   4.139   3.949  12.793  1.8245  1.6520  0.4437
 5288TIP3    H237280   4.050   4.039  12.710  0.6882 -1.1228 -1.4380
 5289TIP3   OH237281   0.400   2.593  11.202  0.2301  0.4570  0.4985
 5289TIP3    H137282   0.379   2.545  11.122  2.7849 -0.0590  0.0855
 5289TIP3    H237283   0.364   2.681  11.187  0.4926  0.3029 -1.1521
 5290TIP3   OH237284   2.401   6.627  16.529 -0.2555 -0.1862 -0.4390
 5290TIP3    H137285   2.494   6.648  16.521  0.2022 -2.4829 -1.6484
 5290TIP3    H237286   2.392   6.593  16.619 -0.3889  2.0971  0.4321
 5291TIP3   OH237287   4.911   4.483   4.735  0.5782  0.0155 -0.3432
 5291TIP3    H137288   4.961   4.560   4.762  1.5554 -0.6743 -0.1859
 5291TIP3    H237289   4.899   4.433   4.816 -0.2477  0.0955 -0.4039
 5292TIP3   OH237290   0.182   3.671  12.441  0.5926 -0.4389  0.5386
 5292TIP3    H137291   0.209   3.692  12.352 -0.7163 -1.0518 -0.0207
 5292TIP3    H237292   0.160   3.577  12.438  1.5101 -0.7032  1.7450
 5293TIP3   OH237293   0.455   6.380   4.786 -0.1201 -0.2291 -0.2485
 5293TIP3    H137294   0.532   6.418   4.743 -0.0597 -0.9717 -0.7996
 5293TIP3    H237295   0.389   6.450   4.780  0.8846  0.8937  1.3765
 5294TIP3   OH237296   5.766   3.020  14.587  0.8566 -0.0160  0.4587
 5294TIP3    H137297   5.692   3.030  14.647  0.9783 -0.4845  0.6938
 5294TIP3    H237298   5.790   2.927  14.594 -0.0810 -0.4301 -1.4197
 5295TIP3   OH237299   4.281   3.702   2.918  0.4112  1.0580  0.9967
 5295TIP3    H137300   4.282   3.638   2.989  0.6318  0.5686  0.5602
 5295TIP3    H237301   4.373   3.712   2.894  0.3317  1.1521  0.7255
 5296TIP3   OH237302   3.697   5.010   6.541 -0.0765  0.7705 -0.5605
 5296TIP3    H137303   3.743   5.020   6.458 -1.8856  0.6038 -1.6294
 5296TIP3    H237304   3.706   5.095   6.584  2.1670  0.3769 -0.2260
 5297TIP3   OH237305   3.564   0.594   4.809  0.0824 -0.2963 -0.7525
 5297TIP3    H137306   3.659   0.608   4.812  0.2133 -1.1033 -0.9772
 5297TIP3    H237307   3.542   0.564   4.897  0.4727 -2.6921 -1.4110
 5298TIP3   OH237308   1.296   4.155   6.521 -0.0597 -0.4497 -0.2597
 5298TIP3    H137309   1.369   4.122   6.574  1.7136  0.5922 -1.9800
 5298TIP3    H237310   1.317   4.247   6.507 -2.4540  0.2323  0.3755
 5299TIP3   OH237311   0.662   5.835  17.043  0.7030  0.3994 -0.0247
 5299TIP3    H137312   0.611   5.808  17.120 -0.5873  0.8710 -0.6896
 5299TIP3    H237313   0.671   5.755  16.992 -0.6635  0.6130 -0.6187
 5300TIP3   OH237314   2.828   3.186  14.441  0.3603  0.5599 -0.6683
 5300TIP3    H137315   2.917   3.164  14.471  0.7145  0.6441 -1.6503
 5300TIP3    H237316   2.820   3.142  14.357 -0.3396  1.0161 -0.8359
 5301TIP3   OH237317   6.375   2.729   5.256 -0.5031 -0.1509  0.1371
 5301TIP3    H137318   6.285   2.729   5.225 -0.2860 -1.2229 -0.5099
 5301TIP3    H237319   6.424   2.682   5.188  0.2223 -1.2322  1.3936
 5302TIP3   OH237320   3.129   2.447  14.520  0.7081  0.2190  0.6892
 5302TIP3    H137321   3.106   2.473  14.610  1.1754 -0.9301  1.1459
 5302TIP3    H237322   3.191   2.513  14.491  0.7139  0.4806  1.2864
 5303TIP3   OH237323   5.774   4.914   5.017  0.1777 -0.0005 -0.1556
 5303TIP3    H137324   5.849   4.959   4.976 -0.6546  1.0760 -0.5229
 5303TIP3    H237325   5.727   4.875   4.943  0.3171 -0.5918  0.0680
 5304TIP3   OH237326   3.066   0.845   5.897  0.0527  0.0681  0.3623
 5304TIP3    H137327   3.147   0.799   5.875 -0.1926 -0.6188  0.8569
 5304TIP3    H237328   3.046   0.818   5.986  0.0379  1.3662  0.7606
 5305TIP3   OH237329   0.858   1.550   3.534  0.6761 -0.3529 -0.2002
 5305TIP3    H137330   0.838   1.605   3.610  2.3151 -1.4015  1.0261
 5305TIP3    H237331   0.777   1.501   3.517  0.8315 -1.3642  1.9382
 5306TIP3   OH237332   1.874   5.721   2.151 -0.3183 -0.3053 -0.0322
 5306TIP3    H137333   1.854   5.671   2.230  0.0723 -2.9193 -1.5202
 5306TIP3    H237334   1.791   5.726   2.104 -0.4579  0.8875  0.3175
 5307TIP3   OH237335   1.068   3.585  10.811  0.4203 -0.5984 -0.1325
 5307TIP3    H137336   1.023   3.507  10.778  2.0082 -1.4900 -0.2672
 5307TIP3    H237337   1.058   3.650  10.742 -0.6688 -0.7763 -0.1498
 5308TIP3   OH237338   5.511   1.470   3.930 -0.5218  0.1087  0.0972
 5308TIP3    H137339   5.572   1.405   3.897 -0.5898 -0.9296  1.9633
 5308TIP3    H237340   5.565   1.546   3.951 -0.2456  0.1548 -0.7987
 5309TIP3   OH237341   5.810   3.635   5.886  0.5113 -0.1375  0.1835
 5309TIP3    H137342   5.746   3.702   5.907  0.0722 -0.6294  0.4353
 5309TIP3    H237343   5.759   3.566   5.842  0.9489 -0.3081 -0.0583
 5310TIP3   OH237344   4.989   6.420   0.144  0.1821 -0.9756  0.5021
 5310TIP3    H137345   4.914   6.444   0.198  0.1855 -0.0532  0.1069
 5310TIP3    H237346   4.951   6.376   0.068  0.0974 -1.1771  0.6592
 5311TIP3   OH237347   1.321   0.627   4.288  0.1735 -0.2330 -0.2380
 5311TIP3    H137348   1.276   0.546   4.264 -0.9198  0.3670 -0.2411
 5311TIP3    H237349   1.410   0.600   4.308 -0.5425 -1.6370  1.0855
 5312TIP3   OH237350   5.117   6.671  16.779  0.4910  0.4617 -0.5473
 5312TIP3    H137351   5.197   6.687  16.828  0.0361 -1.3874  0.8494
 5312TIP3    H237352   5.145   6.620  16.703  0.6496 -0.2146 -0.0419
 5313TIP3   OH237353   4.232   4.058   0.720 -0.1152  0.1947 -0.3083
 5313TIP3    H137354   4.310   4.057   0.775  0.6043 -0.0443 -1.3332
 5313TIP3    H237355   4.258   4.016   0.639 -1.2215  0.3918 -0.7835
 5314TIP3   OH237356   2.947   5.246   4.078 -0.2704 -0.3515  0.5708
 5314TIP3    H137357   2.911   5.335   4.071 -0.2937 -0.4824 -1.0679
 5314TIP3    H237358   3.016   5.243   4.012 -0.5494 -1.7034  0.3411
 5315TIP3   OH237359   4.877   3.034  13.825 -0.0899 -0.1782 -0.4509
 5315TIP3    H137360   4.911   3.096  13.890  0.4671  1.1389 -1.9503
 5315TIP3    H237361   4.875   2.950  13.870 -0.9269  0.9391  1.6621
 5316TIP3   OH237362   4.542   5.568   0.507 -0.1756  0.0632  0.1202
 5316TIP3    H137363   4.565   5.479   0.480  0.1491 -0.1076  0.9417
 5316TIP3    H237364   4.480   5.556   0.579  0.1194  0.5017  0.4507
 5317TIP3   OH237365   3.817   5.855   2.074 -0.2868 -0.3738  0.3920
 5317TIP3    H137366   3.854   5.767   2.083 -0.5045 -0.7135 -1.7076
 5317TIP3    H237367   3.800   5.864   1.980 -2.1043  1.1767  0.8401
 5318TIP3   OH237368   4.718   6.539   2.948 -0.2180 -0.1709 -0.8315
 5318TIP3    H137369   4.638   6.499   2.981 -1.3096  1.0207 -1.9593
 5318TIP3    H237370   4.692   6.582   2.867  1.2745  1.3526 -0.5422
 5319TIP3   OH237371   2.623   4.431  12.810  0.6380 -0.2293  0.2761
 5319TIP3    H137372   2.692   4.479  12.765  1.8882 -1.1729  1.1449
 5319TIP3    H237373   2.583   4.376  12.743 -0.0960  1.2160 -0.4898
 5320TIP3   OH237374   2.390   1.732   4.085  0.2317  0.6806 -0.6806
 5320TIP3    H137375   2.315   1.672   4.086 -0.8726  2.0274 -0.1615
 5320TIP3    H237376   2.412   1.743   3.993  1.1722 -1.3856 -0.7229
 5321TIP3   OH237377   0.400   5.449   4.183  0.4113  0.0275  0.3787
 5321TIP3    H137378   0.330   5.432   4.246 -2.0302  2.6365 -1.4848
 5321TIP3    H237379   0.408   5.367   4.134  0.4313 -1.1024  2.1933
 5322TIP3   OH237380   2.603   6.701   3.530 -0.0546  0.5652 -0.3237
 5322TIP3    H137381   2.636   6.709   3.441 -2.2366 -3.2712 -1.6207
 5322TIP3    H237382   2.680   6.687   3.584  1.1489  1.0346 -1.8975
 5323TIP3   OH237383   0.851   2.545   6.337 -0.0468 -0.3781  0.7970
 5323TIP3    H137384   0.813   2.538   6.249 -0.1080 -0.6249  0.8411
 5323TIP3    H237385   0.788   2.598   6.386  1.7481  2.8633 -0.2884
 5324TIP3   OH237386   5.124   2.540   3.027  0.0573  0.1024  0.1928
 5324TIP3    H137387   5.105   2.573   2.939  0.4387  1.5671  0.6352
 5324TIP3    H237388   5.139   2.447   3.016  0.7164  0.3911 -1.4071
 5325TIP3   OH237389   2.420   3.613  15.705 -0.0645 -0.1748  0.1925
 5325TIP3    H137390   2.424   3.544  15.771 -0.3482 -0.5361 -0.1611
 5325TIP3    H237391   2.475   3.683  15.740  1.6675 -1.2784 -0.2798
 5326TIP3   OH237392   5.249   6.074   3.743  0.4777 -0.2444  0.3725
 5326TIP3    H137393   5.170   6.122   3.718  0.0436 -0.7930  0.6592
 5326TIP3    H237394   5.321   6.126   3.709  0.0524  1.0927  1.4818
 5327TIP3   OH237395   0.052   4.749  13.830 -0.0334  0.0852  0.8616
 5327TIP3    H137396   0.062   4.829  13.779  0.7399 -0.9972 -0.7091
 5327TIP3    H237397  -0.009   4.695  13.779 -2.0396  0.4093  2.8338
 5328TIP3   OH237398   6.507   4.798   1.362 -0.4252 -0.5052 -0.2667
 5328TIP3    H137399   6.434   4.856   1.342  0.2664  1.0996  1.7991
 5328TIP3    H237400   6.581   4.856   1.377  0.5661 -1.9673  0.6242
 5329TIP3   OH237401   4.271   6.307   4.757 -0.1026 -1.3915  0.6034
 5329TIP3    H137402   4.231   6.326   4.672 -2.6724 -0.4925  1.9416
 5329TIP3    H237403   4.250   6.215   4.772  0.8147 -1.7004  0.0566
 5330TIP3   OH237404   5.110   4.393   2.542  0.3134 -0.3265  1.2667
 5330TIP3    H137405   5.020   4.377   2.571 -0.0436 -0.5948  0.0442
 5330TIP3    H237406   5.151   4.307   2.544 -0.2130 -0.6625 -0.6250
 5331TIP3   OH237407   4.384   0.364  14.998  0.5368 -0.3773  0.2458
 5331TIP3    H137408   4.430   0.316  15.068  0.4177  0.8860  1.2100
 5331TIP3    H237409   4.451   0.423  14.962 -0.0394  0.7075  0.9363
 5332TIP3   OH237410   6.760   4.425  14.665 -0.1632 -0.1874  0.0215
 5332TIP3    H137411   6.829   4.490  14.655  1.3226 -1.9346 -1.3840
 5332TIP3    H237412   6.770   4.393  14.755 -0.0649  0.5714  0.2849
 5333TIP3   OH237413   1.038   0.224   1.406 -0.2285 -0.4503 -0.0972
 5333TIP3    H137414   1.002   0.283   1.340  1.3498  1.1996  0.4967
 5333TIP3    H237415   1.080   0.154   1.355 -1.3720 -0.6194 -0.8117
 5334TIP3   OH237416   4.271   0.870   1.156  0.2631 -0.0971 -0.3092
 5334TIP3    H137417   4.282   0.946   1.098 -3.6528  1.1985  0.4421
 5334TIP3    H237418   4.341   0.878   1.220  0.9090  1.9771 -1.2293
 5335TIP3   OH237419   5.997   5.368   4.429  0.2391 -0.6111  0.8223
 5335TIP3    H137420   5.976   5.427   4.357  1.1279 -0.2130  0.8836
 5335TIP3    H237421   6.088   5.342   4.413 -0.5833 -3.1631 -0.0603
 5336TIP3   OH237422   1.637   2.413  12.188  0.0808  0.8511 -0.1064
 5336TIP3    H137423   1.546   2.385  12.180  0.0377  0.4531  1.5699
 5336TIP3    H237424   1.685   2.354  12.130 -0.2713 -1.4201  1.8354
 5337TIP3   OH237425   4.393   5.584   3.693 -0.1345 -0.0549 -0.1925
 5337TIP3    H137426   4.382   5.668   3.738  0.5882  0.1611 -0.4085
 5337TIP3    H237427   4.304   5.551   3.683 -0.5078  1.1550 -0.9884
 5338TIP3   OH237428   2.426   4.588  13.295  0.3642 -0.0034 -0.1042
 5338TIP3    H137429   2.351   4.642  13.316  1.6992  1.1389  1.8208
 5338TIP3    H237430   2.460   4.624  13.213  0.1957  0.9565  0.2451
 5339TIP3   OH237431   4.170   2.176  12.150  0.3198 -0.4249 -0.3963
 5339TIP3    H137432   4.080   2.160  12.177  0.4501  0.6660  0.6824
 5339TIP3    H237433   4.220   2.103  12.186  0.1478 -0.1084  0.4840
 5340TIP3   OH237434   1.691   2.096   1.916 -0.4654 -1.3517 -0.1110
 5340TIP3    H137435   1.775   2.073   1.955 -0.3826  0.0144  0.5505
 5340TIP3    H237436   1.627   2.078   1.985 -0.4831 -0.4077  0.1278
 5341TIP3   OH237437   1.831   6.546   0.970  0.2128  0.6324  0.6174
 5341TIP3    H137438   1.854   6.614   1.034  0.7220  1.4559 -0.4310
 5341TIP3    H237439   1.890   6.474   0.989 -1.4735 -0.2419  2.8760
 5342TIP3   OH237440   5.392   0.846  15.179  0.2394  0.4181  0.4497
 5342TIP3    H137441   5.329   0.840  15.107 -0.4380  0.2131  1.0584
 5342TIP3    H237442   5.469   0.798  15.148 -0.8254 -1.4899  0.6823
 5343TIP3   OH237443   5.319   5.523  10.723  0.2387  0.0899  0.1096
 5343TIP3    H137444   5.327   5.459  10.653  0.9701 -0.3449  0.5892
 5343TIP3    H237445   5.234   5.505  10.762 -0.3612  0.6087 -0.9307
 5344TIP3   OH237446   0.545   2.994  12.003 -0.4123  0.1353  0.0170
 5344TIP3    H137447   0.594   3.068  12.040 -0.7935  0.4450 -0.0938
 5344TIP3    H237448   0.603   2.919  12.015 -0.4261  0.2758  1.0303
 5345TIP3   OH237449   1.395   6.644  14.440  0.2333 -0.3143  0.1790
 5345TIP3    H137450   1.304   6.615  14.434  0.0188  0.2324  0.7173
 5345TIP3    H237451   1.412   6.649  14.534  0.0829  1.8297  0.1232
 5346TIP3   OH237452   5.729   2.031   4.415  0.2138 -0.2864 -0.5599
 5346TIP3    H137453   5.715   2.120   4.384 -2.5212 -0.3163  0.4438
 5346TIP3    H237454   5.784   2.040   4.492 -1.8711  0.7580  0.8358
 5347TIP3   OH237455   3.484   4.408  17.083 -0.3386  0.0807 -0.5869
 5347TIP3    H137456   3.466   4.397  16.989 -1.2197  1.9633 -0.6652
 5347TIP3    H237457   3.399   4.397  17.125  0.2426 -1.8724  0.1221
 5348TIP3   OH237458   3.658   0.818   4.504  0.0799  0.2304  0.6616
 5348TIP3    H137459   3.613   0.744   4.465  0.3839 -0.1410  1.0131
 5348TIP3    H237460   3.601   0.846   4.576 -0.4866  0.9236 -0.0508
 5349TIP3   OH237461   3.357   5.602  16.139  0.1087 -0.1895 -0.5874
 5349TIP3    H137462   3.273   5.587  16.098  0.7665 -0.7729 -1.7200
 5349TIP3    H237463   3.409   5.647  16.073  0.7126  0.1091  0.0809
 5350TIP3   OH237464   0.488   0.887   4.248 -0.5296  0.5452  0.3472
 5350TIP3    H137465   0.499   0.925   4.335 -2.0721  0.3088  0.6630
 5350TIP3    H237466   0.437   0.807   4.263  1.3365 -0.8267 -0.4868
 5351TIP3   OH237467   0.768   2.567   4.908  0.5484  0.3004 -0.0371
 5351TIP3    H137468   0.701   2.568   4.840  0.8557 -4.1118 -0.5788
 5351TIP3    H237469   0.847   2.600   4.865  0.4206 -1.2419 -1.5266
 5352TIP3   OH237470   1.318   0.959  12.770 -0.3043 -0.0635  0.1121
 5352TIP3    H137471   1.401   0.969  12.817  0.3522 -0.2770 -1.0032
 5352TIP3    H237472   1.343   0.927  12.684 -1.3308  2.3707 -1.1328
 5353TIP3   OH237473   4.250   4.674  15.280  0.1094  0.3690  0.0250
 5353TIP3    H137474   4.276   4.765  15.269 -1.9580  1.0824  0.8736
 5353TIP3    H237475   4.317   4.636  15.337  1.4542  1.1036 -1.0375
 5354TIP3   OH237476   5.088   6.188  12.361 -0.1225  0.2293  0.2098
 5354TIP3    H137477   5.143   6.264  12.343 -0.1287  0.5007  1.3332
 5354TIP3    H237478   5.114   6.123  12.295 -0.1590  1.2146 -0.7952
 5355TIP3   OH237479   6.777   3.553  12.777 -0.2872 -0.2462  0.4264
 5355TIP3    H137480   6.814   3.575  12.692 -0.3290 -1.8523 -0.0338
 5355TIP3    H237481   6.792   3.459  12.786 -2.3790 -0.5427  1.1596
 5356TIP3   OH237482   2.410   6.255  14.755  0.0845 -0.1521  0.3531
 5356TIP3    H137483   2.368   6.206  14.826 -2.3315 -0.3719 -1.1710
 5356TIP3    H237484   2.479   6.305  14.798 -0.8536 -0.8421  2.7442
 5357TIP3   OH237485   5.457   5.324  11.903 -0.0298  0.4386 -0.4754
 5357TIP3    H137486   5.537   5.372  11.925  0.7450 -1.1754  0.2532
 5357TIP3    H237487   5.440   5.348  11.812  1.3823  0.6410 -0.7006
 5358TIP3   OH237488   4.806   4.479   2.988  0.1550  0.3867 -0.6074
 5358TIP3    H137489   4.856   4.401   2.966 -1.4538 -1.4750  1.9481
 5358TIP3    H237490   4.737   4.483   2.922  0.0956 -0.5230 -0.6082
 5359TIP3   OH237491   5.464   3.050   1.781 -0.4594 -0.0858  0.0150
 5359TIP3    H137492   5.486   2.992   1.709 -0.1131  1.0286 -0.7782
 5359TIP3    H237493   5.378   3.085   1.759 -0.9165 -0.7195  0.7652
 5360TIP3   OH237494   0.006   1.731  14.169 -0.0066 -0.0484 -0.2166
 5360TIP3    H137495  -0.030   1.665  14.109  0.9049 -1.3071  0.6000
 5360TIP3    H237496  -0.061   1.799  14.172 -1.9049 -1.9047  0.5505
 5361TIP3   OH237497   2.475   4.636   1.545 -0.5131  0.5945 -0.1159
 5361TIP3    H137498   2.425   4.677   1.615 -1.5779 -0.0266 -0.4999
 5361TIP3    H237499   2.495   4.707   1.484  1.9957  1.4977  1.6965
 5362TIP3   OH237500   0.702   4.913  15.788  0.4726  0.6005  0.3995
 5362TIP3    H137501   0.704   5.008  15.795 -2.9851  0.6372  2.2490
 5362TIP3    H237502   0.681   4.895  15.696 -0.4951  1.6959  0.3970
 5363TIP3   OH237503   3.038   4.205   5.676  0.2074  0.0727 -0.0148
 5363TIP3    H137504   3.086   4.268   5.728  1.7692 -0.6615 -0.5336
 5363TIP3    H237505   2.963   4.253   5.642  1.2582  1.5820 -0.2307
 5364TIP3   OH237506   3.950   2.763  16.315 -0.2623  0.3541 -0.6758
 5364TIP3    H137507   3.971   2.692  16.376 -0.6837 -0.1058 -1.0590
 5364TIP3    H237508   4.034   2.792  16.283  0.0637  1.5470  1.1841
 5365TIP3   OH237509   4.830   1.884  11.410 -0.1022  0.3608 -0.1214
 5365TIP3    H137510   4.807   1.895  11.502 -2.7912  0.6630 -0.7768
 5365TIP3    H237511   4.783   1.955  11.365  0.5373 -0.2551 -1.8096
 5366TIP3   OH237512   2.371   3.900  16.742 -0.4626 -0.1435 -0.2588
 5366TIP3    H137513   2.357   3.806  16.733 -2.6826  0.0284  1.1604
 5366TIP3    H237514   2.337   3.922  16.829  0.6565  1.8575 -0.2833
 5367TIP3   OH237515   5.257   4.190  12.319  0.9265 -0.4789 -0.1885
 5367TIP3    H137516   5.318   4.185  12.246  1.3308  1.1239  0.0287
 5367TIP3    H237517   5.280   4.271  12.365 -0.9143 -0.2089  0.2999
 5368TIP3   OH237518   0.007   3.398   3.296  0.7297 -0.3060  0.4579
 5368TIP3    H137519   0.002   3.461   3.369  2.1004  0.8196 -0.3844
 5368TIP3    H237520   0.100   3.400   3.270  0.4220 -1.3540 -0.7343
 5369TIP3   OH237521   2.588   2.444   1.797 -0.3658  0.1397  0.3369
 5369TIP3    H137522   2.596   2.447   1.701  1.9272  0.9650  0.5175
 5369TIP3    H237523   2.517   2.382   1.813 -0.8964  0.1163 -1.9081
 5370TIP3   OH237524   3.001   3.699  11.411  0.9217  0.1777  0.0148
 5370TIP3    H137525   2.996   3.649  11.330  0.7835 -0.3951  0.3797
 5370TIP3    H237526   3.022   3.788  11.383  0.9517 -0.0385 -0.6440
 5371TIP3   OH237527   2.364   4.911  17.206  0.3124 -0.2073 -0.1841
 5371TIP3    H137528   2.343   4.840  17.268  2.7752 -0.9645 -0.1647
 5371TIP3    H237529   2.324   4.883  17.124 -0.0415 -0.8720  0.2030
 5372TIP3   OH237530   3.017   5.228  17.141 -0.4561 -0.4661 -0.7406
 5372TIP3    H137531   2.939   5.174  17.131 -1.2564  0.5421  0.0071
 5372TIP3    H237532   3.009   5.295  17.073 -1.2366  0.8017  0.5680
 5373TIP3   OH237533   6.397   1.089   5.255  0.1301  0.2436 -0.1168
 5373TIP3    H137534   6.445   1.106   5.335  1.3043 -0.8371 -0.5756
 5373TIP3    H237535   6.354   1.004   5.270  1.4858 -0.6461 -1.1256
 5374TIP3   OH237536   2.658   6.770   0.200  0.0025 -0.0741 -0.4349
 5374TIP3    H137537   2.567   6.746   0.181  0.0789 -1.5970  1.0005
 5374TIP3    H237538   2.710   6.701   0.159  0.4103 -0.3309  0.5079
 5375TIP3   OH237539   6.266   1.403  11.165 -0.1808 -0.2757  0.5957
 5375TIP3    H137540   6.273   1.323  11.218  2.3452  0.5196  1.5355
 5375TIP3    H237541   6.338   1.397  11.103 -0.5228  0.8517  0.0808
 5376TIP3   OH237542   2.942   4.011   0.291  0.5263 -0.2863 -0.6585
 5376TIP3    H137543   3.022   4.063   0.300  0.0790  0.3041 -0.0428
 5376TIP3    H237544   2.967   3.937   0.235  1.9643 -1.0683  0.9670
 5377TIP3   OH237545   1.179   6.052  16.796  0.5986 -0.2691  0.2312
 5377TIP3    H137546   1.096   6.090  16.825  0.5184 -1.3265  1.4156
 5377TIP3    H237547   1.194   6.091  16.710 -1.1512 -0.0777 -0.0113
 5378TIP3   OH237548   1.274   3.031   0.568 -0.3322  0.1248  0.0152
 5378TIP3    H137549   1.279   3.068   0.480 -0.8096  0.4191  0.1135
 5378TIP3    H237550   1.345   2.966   0.570  1.2374  1.8106  0.2301
 5379TIP3   OH237551   1.318   2.409  14.152 -0.1084  0.2273  0.5625
 5379TIP3    H137552   1.337   2.503  14.151 -0.5462  0.3136  0.0361
 5379TIP3    H237553   1.275   2.393  14.068  0.6765 -0.5955  0.3133
 5380TIP3   OH237554   4.408   4.904   0.878  0.2831 -0.0126 -0.9228
 5380TIP3    H137555   4.401   4.912   0.783 -1.3490 -0.4848 -0.8568
 5380TIP3    H237556   4.361   4.823   0.899  1.2941 -0.3254  0.2175
 5381TIP3   OH237557   0.325   0.940   1.311 -0.2334  0.2107  0.1682
 5381TIP3    H137558   0.318   0.921   1.405 -0.6035  0.7586  0.2562
 5381TIP3    H237559   0.236   0.935   1.279 -0.6660  3.6895  0.5902
 5382TIP3   OH237560   0.210   2.524   5.252  0.3963 -0.3360 -0.3158
 5382TIP3    H137561   0.188   2.583   5.324 -2.0921 -0.1273 -1.1893
 5382TIP3    H237562   0.226   2.439   5.294 -1.3053 -0.2811  0.4707
 5383TIP3   OH237563   0.989   5.809   3.978  0.5131  0.0704  0.0842
 5383TIP3    H137564   0.944   5.825   4.061  1.0425 -3.0516  1.0448
 5383TIP3    H237565   1.077   5.845   3.991  1.2463 -2.1619  1.6684
 5384TIP3   OH237566   3.066   1.211  16.352 -0.0116 -0.4080 -0.8930
 5384TIP3    H137567   3.129   1.247  16.415 -0.8193  0.1780 -0.4172
 5384TIP3    H237568   3.102   1.235  16.267 -0.7344  1.9321 -0.5746
 5385TIP3   OH237569   1.168   4.632  13.084 -0.5369 -0.2618 -0.0118
 5385TIP3    H137570   1.220   4.710  13.107 -1.4486  0.6229 -0.9079
 5385TIP3    H237571   1.190   4.615  12.993 -1.2247 -0.3769 -0.1530
 5386TIP3   OH237572   5.392   5.406   0.145 -0.0408 -0.1665 -0.6473
 5386TIP3    H137573   5.469   5.357   0.173  0.1303  0.4557 -0.0316
 5386TIP3    H237574   5.389   5.482   0.203 -2.1127 -1.0917  0.5443
 5387TIP3   OH237575   0.036   6.252  14.996  0.2140 -0.6318  0.0768
 5387TIP3    H137576  -0.017   6.177  15.021  1.6670 -1.6434  0.2131
 5387TIP3    H237577   0.117   6.241  15.046  0.8719  0.4306 -0.7387
 5388TIP3   OH237578   3.340   4.627   5.483 -0.1447  0.2490  0.0647
 5388TIP3    H137579   3.399   4.650   5.411 -1.3108  2.3299 -0.2619
 5388TIP3    H237580   3.252   4.641   5.447 -0.7282  2.7078  2.3190
 5389TIP3   OH237581   1.781   3.808   3.790 -0.6849  0.1573 -0.1347
 5389TIP3    H137582   1.789   3.842   3.701  0.9115 -1.4216 -0.5975
 5389TIP3    H237583   1.790   3.713   3.781 -1.1738 -0.0676  1.6311
 5390TIP3   OH237584   6.075   5.532   5.023 -0.1749 -0.0431  0.1729
 5390TIP3    H137585   6.024   5.580   5.088 -3.1064  0.3220 -2.2783
 5390TIP3    H237586   6.150   5.589   5.006 -2.2709  2.5753 -0.8139
 5391TIP3   OH237587   4.280   2.374  14.106 -0.6752  0.1881  0.6776
 5391TIP3    H137588   4.337   2.353  14.032 -0.3314  1.4988  0.5523
 5391TIP3    H237589   4.328   2.343  14.183  0.2296  1.2958  0.5720
 5392TIP3   OH237590   6.372   5.957   0.252  0.2503  0.5859 -0.2438
 5392TIP3    H137591   6.337   5.883   0.301  2.5135 -0.0096  0.5321
 5392TIP3    H237592   6.449   5.922   0.207  1.8442  2.6574  0.8034
 5393TIP3   OH237593   1.747   5.394   0.355  0.7185  0.2346 -0.1062
 5393TIP3    H137594   1.760   5.307   0.392  0.2057 -0.3044 -1.1547
 5393TIP3    H237595   1.824   5.444   0.383  2.0131 -1.1335 -1.1264
 5394TIP3   OH237596   3.952   6.772  11.732  0.1586 -0.1151 -0.0910
 5394TIP3    H137597   3.924   6.681  11.728  0.2962 -0.2385  1.3875
 5394TIP3    H237598   3.878   6.817  11.773 -0.4570  0.6920 -2.0059
 5395TIP3   OH237599   1.051   2.114  15.946  0.0669 -0.1959  0.4401
 5395TIP3    H137600   1.035   2.044  15.881 -1.7669 -0.0880  0.7527
 5395TIP3    H237601   1.117   2.169  15.905 -0.6891 -0.4206 -1.1334
 5396TIP3   OH237602   3.623   1.979   5.293  0.0933 -0.3156 -0.7341
 5396TIP3    H137603   3.667   1.903   5.330 -1.0986 -1.3990 -1.4902
 5396TIP3    H237604   3.561   2.007   5.361  0.2929 -0.2264 -0.5890
 5397TIP3   OH237605   5.589   0.567  16.480  0.2204 -0.0643  0.1661
 5397TIP3    H137606   5.666   0.536  16.526  0.8052 -0.0157 -0.7664
 5397TIP3    H237607   5.544   0.488  16.451  0.5479 -0.0709 -0.3181
 5398TIP3   OH237608   3.673   5.412   0.104 -0.1556 -0.4753 -0.5973
 5398TIP3    H137609   3.661   5.422   0.199  0.6696  0.0208 -0.5397
 5398TIP3    H237610   3.674   5.502   0.071  0.0360 -0.6305 -1.0160
 5399TIP3   OH237611   3.630   2.300  16.976  0.3466  0.0831  0.2305
 5399TIP3    H137612   3.591   2.213  16.989  0.7136  0.0836  1.3303
 5399TIP3    H237613   3.616   2.345  17.059  1.6912  0.4803  0.2454
 5400TIP3   OH237614   4.300   5.795  13.621  0.6325  0.1762  0.1149
 5400TIP3    H137615   4.373   5.749  13.661  1.2094  0.1198 -0.9722
 5400TIP3    H237616   4.317   5.790  13.527 -1.4676 -1.0359 -0.2480
 5401TIP3   OH237617   5.448   6.395  16.920  0.4455  0.3080 -0.0202
 5401TIP3    H137618   5.359   6.384  16.955  0.6148 -0.5895  0.1446
 5401TIP3    H237619   5.440   6.464  16.854 -0.3289  0.4092  0.1803
 5402TIP3   OH237620   6.457   3.536  13.946 -0.0844  0.4060 -0.0886
 5402TIP3    H137621   6.464   3.587  13.866  0.1125  0.2027 -0.1978
 5402TIP3    H237622   6.363   3.531  13.963 -0.3071 -2.0819 -1.9231
 5403TIP3   OH237623   1.537   0.765   4.557 -0.8201 -0.2162 -0.2060
 5403TIP3    H137624   1.598   0.746   4.628  1.1036 -0.2708 -1.8293
 5403TIP3    H237625   1.451   0.763   4.599  0.1784 -1.3012  1.9081
 5404TIP3   OH237626   6.328   3.925  13.199 -0.4469 -0.4331  0.7293
 5404TIP3    H137627   6.424   3.930  13.199 -0.4482  0.3453 -1.9074
 5404TIP3    H237628   6.301   3.987  13.267  0.9289 -0.0971  0.9823
 5405TIP3   OH237629   3.278   2.056  16.969  0.2514 -0.3792  0.1346
 5405TIP3    H137630   3.371   2.036  16.958  0.2773 -0.7288  0.9530
 5405TIP3    H237631   3.240   1.974  17.000  0.1239  0.4573  2.2673
 5406TIP3   OH237632   1.900   4.284  10.877 -0.0200  0.3993  0.2822
 5406TIP3    H137633   1.920   4.341  10.951  0.5141 -1.3333  1.4864
 5406TIP3    H237634   1.815   4.316  10.845  1.0854  2.9908 -0.1919
 5407TIP3   OH237635   4.626   4.369   1.320 -0.2097 -0.1990  0.2444
 5407TIP3    H137636   4.569   4.434   1.279 -1.2203 -0.2293  1.5716
 5407TIP3    H237637   4.642   4.403   1.408  0.7792 -0.8285  0.3155
 5408TIP3   OH237638   3.046   3.358   5.256 -0.0835 -0.2731 -0.0970
 5408TIP3    H137639   2.967   3.342   5.204 -0.2021 -0.2118  0.0616
 5408TIP3    H237640   3.033   3.303   5.334  0.4610 -0.9812 -0.4995
 5409TIP3   OH237641   5.859   2.753   3.786 -0.3342  0.2627  0.6255
 5409TIP3    H137642   5.837   2.678   3.842  1.1491 -0.8821 -0.2936
 5409TIP3    H237643   5.953   2.765   3.798 -0.4676  1.6381  0.3342
 5410TIP3   OH237644   5.832   5.886   2.812 -0.2431 -0.3747 -0.0352
 5410TIP3    H137645   5.789   5.906   2.729  2.1833 -0.8966 -1.4715
 5410TIP3    H237646   5.817   5.964   2.866 -2.3077 -0.2511 -0.7282
 5411TIP3   OH237647   0.832   3.552   2.596 -0.4951  0.0984 -0.4391
 5411TIP3    H137648   0.818   3.566   2.502 -1.2954 -0.3893 -0.3988
 5411TIP3    H237649   0.810   3.636   2.636 -3.2748 -0.6103 -0.3953
 5412TIP3   OH237650   5.200   6.003   6.095 -0.6129 -0.2422 -0.2466
 5412TIP3    H137651   5.156   5.925   6.129 -0.3533  0.1303  0.9773
 5412TIP3    H237652   5.288   5.973   6.072 -0.6199 -0.3836 -0.0890
 5413TIP3   OH237653   0.858   6.765   1.435  0.0446  0.1045  0.3338
 5413TIP3    H137654   0.909   6.843   1.412  0.8800 -1.0076 -1.7945
 5413TIP3    H237655   0.778   6.773   1.382 -1.9168  1.6804  3.4154
 5414TIP3   OH237656   2.001   2.478   3.192 -0.2795  0.4039 -0.3655
 5414TIP3    H137657   2.070   2.535   3.157 -0.4862  1.1434  0.4071
 5414TIP3    H237658   1.924   2.535   3.199 -0.4070  0.1065  0.6957
 5415TIP3   OH237659   1.556   2.345   6.713 -0.3573  0.1470  0.3199
 5415TIP3    H137660   1.631   2.286   6.707 -0.6525 -0.1028 -1.3532
 5415TIP3    H237661   1.481   2.288   6.725 -0.7775  0.0491 -2.4003
 5416TIP3   OH237662   6.760   6.604   2.243 -0.2663 -0.0168 -0.3751
 5416TIP3    H137663   6.778   6.612   2.337 -1.1264 -2.4882  0.0438
 5416TIP3    H237664   6.843   6.577   2.204  0.2366  1.5514 -0.4446
 5417TIP3   OH237665   2.798   1.932  11.627 -0.0484  0.0745  0.6026
 5417TIP3    H137666   2.847   1.954  11.548 -1.8065  0.7073 -0.3591
 5417TIP3    H237667   2.707   1.928  11.598 -0.7334  0.3590  2.6063
 5418TIP3   OH237668   1.300   2.850  16.952  0.3007  0.0227  0.4909
 5418TIP3    H137669   1.301   2.807  17.038 -1.1722 -1.0540 -0.0256
 5418TIP3    H237670   1.286   2.943  16.973 -4.8581 -0.7704  1.2702
 5419TIP3   OH237671   2.386   6.744   0.446 -0.3250  0.4397  0.0450
 5419TIP3    H137672   2.351   6.818   0.496 -0.6891  0.8341 -0.7832
 5419TIP3    H237673   2.391   6.776   0.356 -2.6581 -1.2715 -0.7322
 5420TIP3   OH237674   3.777   5.913   4.070  0.3825 -0.1707  0.2419
 5420TIP3    H137675   3.768   5.818   4.084  0.2793 -0.0171  1.2157
 5420TIP3    H237676   3.776   5.951   4.157  1.4093  0.6543 -0.0907
 5421TIP3   OH237677   6.460   4.724  13.246 -0.2481  0.2006 -0.1762
 5421TIP3    H137678   6.460   4.760  13.335  2.0467 -3.0390  1.2506
 5421TIP3    H237679   6.518   4.782  13.197 -0.5360  1.3030  0.7612
 5422TIP3   OH237680   1.073   0.213  15.142 -0.0884  0.6139 -0.0049
 5422TIP3    H137681   1.130   0.183  15.213 -1.0065 -0.3596  0.3315
 5422TIP3    H237682   1.133   0.227  15.068  0.4751 -1.2760  0.0755
 5423TIP3   OH237683   4.059   3.657   5.748  0.6406  0.0326  0.2043
 5423TIP3    H137684   4.010   3.739   5.738 -1.9818 -1.4647  0.5309
 5423TIP3    H237685   4.095   3.661   5.837  0.2050  0.6352  0.3550
 5424TIP3   OH237686   4.701   6.750  14.933 -0.1965  0.1284  0.3006
 5424TIP3    H137687   4.616   6.708  14.946  0.8119 -1.4127  2.0342
 5424TIP3    H237688   4.755   6.682  14.892  0.9122  0.2816  1.4729
 5425TIP3   OH237689   2.910   3.758  16.876  0.3005  0.5369  0.2471
 5425TIP3    H137690   2.951   3.824  16.821  2.1974  1.4866  2.7394
 5425TIP3    H237691   2.844   3.807  16.926 -0.5793 -0.0987 -0.2740
 5426TIP3   OH237692   4.797   4.738   1.920 -0.4458  0.0477 -0.4471
 5426TIP3    H137693   4.735   4.670   1.946 -0.9229 -0.2489 -2.2701
 5426TIP3    H237694   4.741   4.811   1.892  0.0537  0.7554  0.3909
 5427TIP3   OH237695   5.064   4.734  14.064 -0.2782  0.0959  0.1831
 5427TIP3    H137696   5.045   4.799  13.996 -0.8646  2.0590  2.1592
 5427TIP3    H237697   5.144   4.767  14.106  1.2251 -2.1729 -0.8202
 5428TIP3   OH237698   0.754   4.820  16.877 -0.0897 -0.5129 -0.5531
 5428TIP3    H137699   0.844   4.789  16.865 -0.0787 -0.6663 -0.0424
 5428TIP3    H237700   0.700   4.744  16.857 -0.2146  0.3114 -3.6529
 5429TIP3   OH237701   1.316   1.659  16.621 -0.2082 -0.7731  0.0269
 5429TIP3    H137702   1.312   1.734  16.562  0.9430 -1.1855 -0.5938
 5429TIP3    H237703   1.320   1.583  16.563  0.8845 -1.1898  0.6152
 5430TIP3   OH237704   5.975   3.298   5.718  1.0633 -0.0625  0.0699
 5430TIP3    H137705   5.977   3.390   5.692  0.1639  0.0153  0.2780
 5430TIP3    H237706   5.937   3.298   5.805  1.7927 -0.5661  0.3956
 5431TIP3   OH237707   3.600   3.502   2.571 -0.3114 -0.2487  0.0284
 5431TIP3    H137708   3.688   3.473   2.593  0.2664  0.0821 -1.7474
 5431TIP3    H237709   3.606   3.597   2.566 -0.6924 -0.2462 -0.4236
 5432TIP3   OH237710   6.655   3.919  10.759 -0.0170  0.1718 -0.6601
 5432TIP3    H137711   6.630   3.849  10.820  1.1624  0.4594  0.1609
 5432TIP3    H237712   6.581   3.924  10.698 -0.6188 -1.0220 -0.0549
 5433TIP3   OH237713   1.429   2.434   2.534  0.5061  0.2217  0.5723
 5433TIP3    H137714   1.369   2.490   2.584  0.7026  0.4510  0.5513
 5433TIP3    H237715   1.484   2.495   2.486  0.2254 -0.0019 -0.0409
 5434TIP3   OH237716   6.303   2.703  15.065 -0.1894 -0.0970 -0.5367
 5434TIP3    H137717   6.236   2.641  15.092 -0.8148  0.3297 -1.1233
 5434TIP3    H237718   6.298   2.705  14.970 -0.7830  1.5374 -0.4786
 5435TIP3   OH237719   1.010   0.169  12.671  0.0507  0.6057 -0.4168
 5435TIP3    H137720   1.007   0.096  12.609  2.6489  2.3899 -2.7828
 5435TIP3    H237721   0.992   0.129  12.756  0.5688 -2.6643 -1.7652
 5436TIP3   OH237722   3.131   4.770  11.746  0.3418  0.3484  0.0744
 5436TIP3    H137723   3.139   4.705  11.676  1.6517  1.0612 -0.4447
 5436TIP3    H237724   3.154   4.722  11.826  4.3077  0.8753 -0.6674
 5437TIP3   OH237725   4.333   2.146  13.529  0.2913  0.2900 -0.0635
 5437TIP3    H137726   4.406   2.112  13.477 -0.9137 -2.3161 -0.1620
 5437TIP3    H237727   4.263   2.162  13.466  0.2296  1.2442  0.2306
 5438TIP3   OH237728   2.260   1.313  15.909  1.0047  0.5924  0.2530
 5438TIP3    H137729   2.193   1.286  15.973  0.7442  2.1800  0.6696
 5438TIP3    H237730   2.338   1.329  15.962  0.6972  2.2312  0.2176
 5439TIP3   OH237731   0.997   1.074  15.429  0.1040 -1.1145 -0.2633
 5439TIP3    H137732   1.005   1.059  15.335  0.6215 -0.0931 -0.3832
 5439TIP3    H237733   0.902   1.079  15.445  0.0182 -1.2977 -0.7239
 5440TIP3   OH237734   5.159   5.531  16.027  0.8646 -0.1478  0.0522
 5440TIP3    H137735   5.142   5.497  16.115  1.0795 -1.6632 -0.4697
 5440TIP3    H237736   5.182   5.623  16.041 -1.4489  0.2654  1.3487
 5441TIP3   OH237737   5.074   4.100   0.002 -0.2647  0.5551 -0.4932
 5441TIP3    H137738   5.063   4.177   0.057 -0.9993  1.4711 -1.9133
 5441TIP3    H237739   5.168   4.098  -0.018  0.0272  0.1701  0.8239
 5442TIP3   OH237740   4.700   4.397  11.537 -0.0876 -0.6353  0.0044
 5442TIP3    H137741   4.628   4.415  11.477  2.0371  1.4652 -2.0496
 5442TIP3    H237742   4.709   4.478  11.588  0.0999 -1.2770  0.9945
 5443TIP3   OH237743   1.713   3.429   6.421  0.7840  0.0763  0.0976
 5443TIP3    H137744   1.680   3.367   6.486 -0.8211  2.5974  1.8238
 5443TIP3    H237745   1.795   3.391   6.390  0.6999 -2.0490  2.3292
 5444TIP3   OH237746   2.093   1.271   3.620  0.7727 -0.0813 -0.6964
 5444TIP3    H137747   2.013   1.220   3.608  1.0358 -0.8935  0.8261
 5444TIP3    H237748   2.083   1.347   3.563 -0.4436 -0.9148 -1.6065
 5445TIP3   OH237749   3.111   5.243  11.513 -0.0916 -0.6604  0.2729
 5445TIP3    H137750   3.150   5.294  11.584  2.1865  0.8693 -2.0061
 5445TIP3    H237751   3.052   5.304  11.470 -1.4514 -1.5792  0.8032
 5446TIP3   OH237752   4.261   6.662  10.863 -0.2167  0.1157 -0.1404
 5446TIP3    H137753   4.338   6.671  10.919 -0.0268  0.0231 -0.3851
 5446TIP3    H237754   4.201   6.608  10.913  0.6452 -1.4159 -0.7389
 5447TIP3   OH237755   5.869   5.031  11.421  0.1332  0.3595 -0.1143
 5447TIP3    H137756   5.955   5.047  11.460  0.7181 -0.1890 -1.1621
 5447TIP3    H237757   5.885   4.965  11.354 -1.0542  0.4937 -0.5403
 5448TIP3   OH237758   6.163   0.564   5.389 -0.6510  0.5058  0.4142
 5448TIP3    H137759   6.176   0.540   5.298  2.3586  0.1213  0.9143
 5448TIP3    H237760   6.153   0.480   5.434  1.5077  0.4952  0.9335
 5449TIP3   OH237761   2.977   3.473  10.643 -0.1241 -0.6052 -0.4091
 5449TIP3    H137762   2.886   3.502  10.645  0.1623  0.3628 -1.0609
 5449TIP3    H237763   2.972   3.378  10.635 -1.0746 -0.6941  0.9615
 5450TIP3   OH237764   2.207   2.515   3.383 -0.3285  0.0081  0.4320
 5450TIP3    H137765   2.199   2.422   3.405  0.0783 -0.3619 -0.9807
 5450TIP3    H237766   2.117   2.545   3.373 -0.4114 -0.7527 -1.2385
 5451TIP3   OH237767   5.330   1.597   3.784 -0.2329  0.3881 -0.4253
 5451TIP3    H137768   5.380   1.547   3.849  0.0089  0.7275 -0.3504
 5451TIP3    H237769   5.272   1.532   3.744 -0.6221  0.2413  0.3656
 5452TIP3   OH237770   6.212   5.629  14.931  0.5118  0.3280  0.2806
 5452TIP3    H137771   6.277   5.676  14.984  2.5785 -0.1487 -1.7759
 5452TIP3    H237772   6.168   5.697  14.881 -0.1202  0.5779  1.1568
 5453TIP3   OH237773   2.335   2.783  13.542 -0.0760 -0.2865 -0.3027
 5453TIP3    H137774   2.327   2.808  13.450  0.1358  0.1831 -0.1925
 5453TIP3    H237775   2.429   2.782  13.558 -0.0939 -0.9073 -0.2405
 5454TIP3   OH237776   0.680   5.536   4.198  0.1361 -0.5947 -0.2311
 5454TIP3    H137777   0.597   5.492   4.180  0.1492 -1.0819  0.8381
 5454TIP3    H237778   0.664   5.584   4.279  0.6890 -0.1201 -0.4008
 5455TIP3   OH237779   0.836   3.060  14.860  0.4173 -0.1666 -0.2219
 5455TIP3    H137780   0.855   3.080  14.768  0.9227 -0.7109 -0.2416
 5455TIP3    H237781   0.917   3.021  14.893  0.1773 -0.1312  0.4064
 5456TIP3   OH237782   1.255   1.699   3.405 -0.6444  0.2596 -0.1992
 5456TIP3    H137783   1.346   1.727   3.392 -0.6905  0.0019 -1.1314
 5456TIP3    H237784   1.216   1.769   3.458 -0.1597  0.8529 -0.6069
 5457TIP3   OH237785   3.364   5.426   4.506 -0.2620 -0.0652 -0.2556
 5457TIP3    H137786   3.369   5.450   4.598 -0.0532 -2.4350  0.3757
 5457TIP3    H237787   3.308   5.493   4.466 -0.6529  0.7591  1.6539
 5458TIP3   OH237788   5.649   3.315  11.814  0.4451 -0.0967  0.0401
 5458TIP3    H137789   5.563   3.304  11.856 -0.6564  1.5958 -1.6647
 5458TIP3    H237790   5.682   3.226  11.802 -0.2670 -0.7104  2.2826
 5459TIP3   OH237791   5.740   5.754  14.402  0.0817 -0.8198  0.2990
 5459TIP3    H137792   5.661   5.782  14.356 -1.3521 -2.0657  1.9225
 5459TIP3    H237793   5.736   5.801  14.485  1.0560 -0.8871  0.3850
 5460TIP3   OH237794   0.647   3.887   5.209 -0.6215  0.4254 -1.1044
 5460TIP3    H137795   0.699   3.901   5.288 -1.8113  0.0817 -0.2524
 5460TIP3    H237796   0.654   3.793   5.191 -2.4540  0.0444  0.0861
 5461TIP3   OH237797   3.726   5.691  12.561  0.0471 -0.2833  0.7209
 5461TIP3    H137798   3.770   5.695  12.476 -0.0864  1.0416  0.7137
 5461TIP3    H237799   3.797   5.696  12.625  0.1856 -1.7153  0.7052
 5462TIP3   OH237800   5.537   3.968   0.602  0.8338  1.0371 -0.0175
 5462TIP3    H137801   5.579   3.921   0.674  0.4220  1.3425  0.4252
 5462TIP3    H237802   5.444   3.947   0.612  0.6802  1.7563  0.0365
 5463TIP3   OH237803   0.591   3.304  12.340 -0.2204  0.4466 -0.2902
 5463TIP3    H137804   0.668   3.254  12.366  0.1542 -0.2032 -2.5773
 5463TIP3    H237805   0.589   3.297  12.245 -2.2728  1.6970 -0.3572
 5464TIP3   OH237806   4.762   6.290  15.213  0.0874 -0.5640  0.4587
 5464TIP3    H137807   4.710   6.224  15.259  0.5200 -0.9907  0.3304
 5464TIP3    H237808   4.733   6.285  15.122  0.5674 -1.0211  0.3252
 5465TIP3   OH237809   1.162   2.272  13.293 -0.1458 -0.1659 -0.7545
 5465TIP3    H137810   1.250   2.299  13.268 -0.2403  1.5951  0.7447
 5465TIP3    H237811   1.106   2.343  13.262 -0.3328  1.8357  3.7888
 5466TIP3   OH237812   1.833   2.161   3.446  0.1414  0.5982 -0.6413
 5466TIP3    H137813   1.859   2.077   3.485 -1.4040  0.3984  0.0123
 5466TIP3    H237814   1.899   2.179   3.380  0.1237 -1.4992 -1.2621
 5467TIP3   OH237815   6.228   6.471  10.694  0.4849  0.8283 -0.5059
 5467TIP3    H137816   6.216   6.472  10.599  0.2211 -1.0568 -0.5063
 5467TIP3    H237817   6.283   6.395  10.710  0.2573  0.9514  0.8966
 5468TIP3   OH237818   2.288   1.315   0.366  0.2639  0.7816 -0.0937
 5468TIP3    H137819   2.375   1.355   0.358 -0.3109  2.1056  0.0402
 5468TIP3    H237820   2.234   1.385   0.403 -1.0088  0.1692 -0.7989
 5469TIP3   OH237821   5.499   1.681   2.431 -0.1618 -0.0296 -0.4494
 5469TIP3    H137822   5.470   1.640   2.513  0.0306 -1.0223 -0.8771
 5469TIP3    H237823   5.552   1.756   2.459  1.5132 -1.4862  0.3418
 5470TIP3   OH237824   0.119   3.803  14.491  0.3223  0.5962  0.0287
 5470TIP3    H137825   0.113   3.787  14.585 -0.2288 -0.8082 -0.2299
 5470TIP3    H237826   0.211   3.785  14.469  0.0076 -1.0595 -0.0294
 5471TIP3   OH237827   0.930   6.119  12.722  0.1991  0.3267  0.1280
 5471TIP3    H137828   0.904   6.105  12.631  1.0478  0.1050 -0.0893
 5471TIP3    H237829   0.924   6.033  12.763  1.1895  0.1492 -0.0873
 5472TIP3   OH237830   0.450   6.143   3.981 -0.5392  0.3816 -0.1014
 5472TIP3    H137831   0.511   6.069   3.989 -0.5407  0.4661  0.7886
 5472TIP3    H237832   0.364   6.105   4.000 -0.4773  0.7042  0.8580
 5473TIP3   OH237833   5.662   5.142  14.596  0.0249  0.4116 -0.5767
 5473TIP3    H137834   5.596   5.202  14.632  0.1831 -0.8630  1.9690
 5473TIP3    H237835   5.715   5.197  14.539 -1.6415  2.0458 -0.6079
 5474TIP3   OH237836   6.064   4.507  15.449  0.0235  0.0110 -0.4031
 5474TIP3    H137837   6.142   4.559  15.428 -0.0188  0.1191 -0.2961
 5474TIP3    H237838   6.019   4.558  15.516  0.5864 -0.7346  0.5605
 5475TIP3   OH237839   1.875   1.179   5.835 -0.0653  0.3890 -0.0585
 5475TIP3    H137840   1.862   1.140   5.749 -2.0923  2.0565 -0.5638
 5475TIP3    H237841   1.827   1.123   5.895  0.6004 -0.2729 -0.1421
 5476TIP3   OH237842   4.196   0.583  16.246  0.0052  0.1835  0.3840
 5476TIP3    H137843   4.237   0.642  16.310 -0.3209  0.4993  0.3066
 5476TIP3    H237844   4.247   0.503  16.251  0.7634  0.6428  0.1448
 5477TIP3   OH237845   0.335   4.444   2.609 -0.2121  0.0581  0.1383
 5477TIP3    H137846   0.265   4.392   2.571 -0.4543  1.4420 -1.3626
 5477TIP3    H237847   0.293   4.492   2.681 -0.7943  0.7914 -0.6797
 5478TIP3   OH237848   3.079   3.837  14.196  0.6967  0.6983 -0.2376
 5478TIP3    H137849   3.174   3.838  14.180  0.5261 -0.1454 -1.3682
 5478TIP3    H237850   3.061   3.750  14.230  0.4650  1.1936  0.9275
 5479TIP3   OH237851   4.914   2.967  11.866 -0.5458 -0.1877  0.4012
 5479TIP3    H137852   4.927   2.997  11.776 -2.7714 -0.5660 -0.0765
 5479TIP3    H237853   4.915   2.871  11.859 -0.3481 -0.2185  0.8476
 5480TIP3   OH237854   1.417   4.981  10.802  0.4570 -0.2517  0.0788
 5480TIP3    H137855   1.485   4.995  10.737 -0.2351  0.0461 -0.5948
 5480TIP3    H237856   1.353   4.924  10.759 -0.5221  0.7971  0.1081
 5481TIP3   OH237857   4.745   1.269  15.759 -0.3322 -0.7417 -0.2289
 5481TIP3    H137858   4.821   1.324  15.781 -1.7899  1.3438 -0.2596
 5481TIP3    H237859   4.669   1.320  15.788 -1.7819 -2.3805 -1.0571
 5482TIP3   OH237860   3.275   6.222  15.593 -0.6318 -0.9073  0.3582
 5482TIP3    H137861   3.339   6.202  15.525 -0.7230  0.3669 -0.1284
 5482TIP3    H237862   3.219   6.145  15.598  0.5014 -1.7370  0.2765
 5483TIP3   OH237863   0.833   2.234   6.188  0.3195 -0.4339  0.5823
 5483TIP3    H137864   0.912   2.180   6.198  0.3017 -0.6408 -0.3592
 5483TIP3    H237865   0.861   2.310   6.137 -0.2438 -0.8663 -0.3855
 5484TIP3   OH237866   0.808   2.191  14.911 -0.5786  0.0039 -0.5264
 5484TIP3    H137867   0.859   2.148  14.842 -0.6574 -0.6200 -0.2000
 5484TIP3    H237868   0.764   2.263  14.867 -1.2954 -0.8945 -1.3212
 5485TIP3   OH237869   3.482   4.489   5.703 -0.4170 -0.0121 -0.2632
 5485TIP3    H137870   3.445   4.541   5.774  0.4203  2.4715 -1.5845
 5485TIP3    H237871   3.443   4.526   5.624  1.4869 -0.3193 -1.3598
 5486TIP3   OH237872   4.083   2.303  16.892  0.2693 -0.1195 -0.1990
 5486TIP3    H137873   4.069   2.331  16.801  1.1885  1.0171  0.0053
 5486TIP3    H237874   4.174   2.327  16.911 -0.3296  0.8863  1.4590
 5487TIP3   OH237875   2.327   0.932   4.983 -0.4530  0.1811 -0.0050
 5487TIP3    H137876   2.286   1.018   4.977  1.7256  1.2893  0.6533
 5487TIP3    H237877   2.293   0.885   4.907 -0.7535  2.0014 -1.0324
 5488TIP3   OH237878   1.257   2.328   5.012 -0.5783  0.2864  0.7454
 5488TIP3    H137879   1.229   2.337   4.921  0.9833 -0.1841  0.2058
 5488TIP3    H237880   1.307   2.408   5.029 -0.8265  0.3509  1.1822
 5489TIP3   OH237881   2.624   2.864  17.081 -0.1432  0.2820 -0.3045
 5489TIP3    H137882   2.695   2.806  17.107 -0.0401  0.9778  1.0228
 5489TIP3    H237883   2.625   2.862  16.986  0.4427 -1.1794 -0.2852
 5490TIP3   OH237884   5.846   4.562   3.465 -0.6932 -0.5335  0.4643
 5490TIP3    H137885   5.928   4.549   3.418  0.8343 -0.2147  2.9884
 5490TIP3    H237886   5.801   4.631   3.416  1.4881  0.7855  0.2881
 5491TIP3   OH237887   5.536   5.483   1.406  0.9124  0.1568 -0.2340
 5491TIP3    H137888   5.603   5.539   1.368  0.2795  2.2115  1.5971
 5491TIP3    H237889   5.454   5.512   1.365  0.7575 -0.3909 -0.3176
 5492TIP3   OH237890   3.991   1.669  13.089 -0.9367  0.1401 -0.1948
 5492TIP3    H137891   4.075   1.624  13.078  0.1277  1.8530  0.7848
 5492TIP3    H237892   3.985   1.687  13.183 -1.9465  0.8916 -0.3922
 5493TIP3   OH237893   3.728   0.504   4.284 -0.5214  0.2960  0.1339
 5493TIP3    H137894   3.644   0.551   4.291 -0.3230  0.4287  2.0004
 5493TIP3    H237895   3.759   0.497   4.375  1.0698 -0.5280 -0.4510
 5494TIP3   OH237896   3.791   0.808   1.676 -0.3712 -0.0393  0.3059
 5494TIP3    H137897   3.780   0.763   1.592 -1.2278 -0.7122  0.7759
 5494TIP3    H237898   3.854   0.755   1.724 -0.1377  0.1609  0.2215
 5495TIP3   OH237899   4.020   0.089  14.044 -0.3987 -0.1100 -0.1702
 5495TIP3    H137900   3.979   0.117  13.962  2.1633 -0.8081 -1.7345
 5495TIP3    H237901   3.948   0.049  14.094 -1.9523  0.1414 -2.1475
 5496TIP3   OH237902   5.661   4.043   2.118  0.2131  0.2686  0.0429
 5496TIP3    H137903   5.737   4.057   2.173  0.5529  0.8531 -0.5698
 5496TIP3    H237904   5.586   4.058   2.176  0.5676  1.1843  0.2658
 5497TIP3   OH237905   1.276   2.447   1.725  0.2434 -1.0040  0.2500
 5497TIP3    H137906   1.295   2.531   1.682  2.0107 -0.1007  2.6648
 5497TIP3    H237907   1.352   2.393   1.704 -0.1616 -1.4689 -0.0077
 5498TIP3   OH237908   0.625   0.554   5.318  0.1314 -0.6020  0.1813
 5498TIP3    H137909   0.610   0.526   5.408  0.6478 -1.1806  0.0937
 5498TIP3    H237910   0.605   0.648   5.317 -0.5647 -0.7501  0.7327
 5499TIP3   OH237911   2.788   4.088  16.196 -0.3269  0.5534  0.2195
 5499TIP3    H137912   2.767   4.179  16.220 -2.1896 -0.0673  1.0161
 5499TIP3    H237913   2.746   4.036  16.264  2.2693 -0.8495  0.7910
 5500TIP3   OH237914   5.522   0.297   1.152 -0.4941  0.2227  0.3555
 5500TIP3    H137915   5.531   0.238   1.227 -0.2004 -0.2357 -0.0357
 5500TIP3    H237916   5.451   0.258   1.100  0.3349 -0.3198 -0.3913
 5501TIP3   OH237917   4.996   6.358  13.017  0.3113  0.4237  0.5783
 5501TIP3    H137918   5.071   6.385  12.963 -0.1793  0.7093  0.0312
 5501TIP3    H237919   4.952   6.291  12.965 -0.6421  1.2923  0.2415
 5502TIP3   OH237920   0.467   1.466   6.320 -0.1637 -0.4268  0.6448
 5502TIP3    H137921   0.483   1.382   6.276  1.5473  0.4092 -0.4041
 5502TIP3    H237922   0.462   1.443   6.413  1.2637 -1.5932  0.4635
 5503TIP3   OH237923   5.929   4.366  13.279  0.0937  0.0341  0.4237
 5503TIP3    H137924   5.924   4.340  13.370 -2.2179  0.7800  0.5511
 5503TIP3    H237925   5.979   4.297  13.236  2.9897  0.7118  2.5991
 5504TIP3   OH237926   1.534   5.769   1.428  0.3259  0.4104 -0.5656
 5504TIP3    H137927   1.543   5.683   1.387  1.7610  0.5690 -0.6248
 5504TIP3    H237928   1.624   5.797   1.444 -0.1057  2.1275 -1.0209
 5505TIP3   OH237929   1.604   1.839   0.380 -0.4401 -0.6973 -1.2028
 5505TIP3    H137930   1.546   1.774   0.418 -0.2747 -0.7986 -1.1223
 5505TIP3    H237931   1.600   1.822   0.286 -0.2451 -0.9505 -1.1650
 5506TIP3   OH237932   0.325   0.555  11.582 -0.1213  0.4540  0.0786
 5506TIP3    H137933   0.325   0.460  11.599  0.2266  0.9058  2.7806
 5506TIP3    H237934   0.369   0.564  11.497  0.4792 -1.7472  0.1287
 5507TIP3   OH237935   3.118   4.412  14.324  0.2229  0.3637  0.2509
 5507TIP3    H137936   3.207   4.405  14.287  0.0922 -1.6453  0.2854
 5507TIP3    H237937   3.088   4.322  14.330 -1.6197  1.0098  0.7863
 5508TIP3   OH237938   5.942   6.456   2.443 -0.1516  0.5638  0.1849
 5508TIP3    H137939   6.001   6.409   2.502  0.9634  0.4733 -0.9811
 5508TIP3    H237940   5.871   6.487   2.500 -0.0022 -1.0116  1.2653
 5509TIP3   OH237941   6.443   4.419   4.629 -0.3656 -0.4389  0.0557
 5509TIP3    H137942   6.531   4.449   4.652 -0.2548  1.4317 -2.5331
 5509TIP3    H237943   6.386   4.463   4.693  0.3410  0.5447  0.0274
 5510TIP3   OH237944   0.692   1.895   1.552 -0.1785  0.2594 -0.4594
 5510TIP3    H137945   0.675   1.816   1.500 -3.0083 -0.5199  1.5213
 5510TIP3    H237946   0.712   1.862   1.639 -0.1301  1.7083  0.0842
 5511TIP3   OH237947   1.614   0.381   5.214 -0.8481 -0.7671  0.4068
 5511TIP3    H137948   1.601   0.407   5.305 -2.5645 -1.0055  0.2566
 5511TIP3    H237949   1.584   0.290   5.210  0.3854 -1.1616 -0.1331
 5512TIP3   OH237950   2.232   4.671  11.445  0.4477 -0.0534 -0.5720
 5512TIP3    H137951   2.296   4.611  11.407  0.2003 -0.4641 -0.3387
 5512TIP3    H237952   2.278   4.712  11.519  0.7364  0.3172 -0.9543
 5513TIP3   OH237953   3.151   6.064  13.309 -0.1643 -0.1181  0.1058
 5513TIP3    H137954   3.164   6.158  13.306  1.6516 -0.3033  1.2054
 5513TIP3    H237955   3.140   6.038  13.218  1.7865  0.8504 -0.4342
 5514TIP3   OH237956   4.074   1.069   1.432 -0.5417  0.1828 -0.4064
 5514TIP3    H137957   4.077   1.154   1.476  2.3330 -0.0222 -0.0932
 5514TIP3    H237958   4.108   1.086   1.344  0.2633 -0.6683 -0.2681
 5515TIP3   OH237959   6.213   0.981  15.275  0.2355 -0.0230  0.4036
 5515TIP3    H137960   6.145   0.915  15.265 -0.0882  0.2827  0.5943
 5515TIP3    H237961   6.221   1.021  15.188  0.2382 -0.1213  0.3574
 5516TIP3   OH237962   6.606   3.323   0.902  0.0317  0.5844 -0.1593
 5516TIP3    H137963   6.524   3.299   0.945  1.4440 -3.7759  0.3115
 5516TIP3    H237964   6.595   3.296   0.811  1.7132 -2.2798  0.4147
 5517TIP3   OH237965   0.154   1.546  13.430 -0.3713 -0.2781  0.0532
 5517TIP3    H137966   0.089   1.498  13.482 -1.5136  0.6869 -0.4442
 5517TIP3    H237967   0.172   1.624  13.483 -1.5248  0.6977 -0.9663
 5518TIP3   OH237968   5.118   3.143   4.537 -0.7294 -0.1274 -0.4613
 5518TIP3    H137969   5.087   3.222   4.494  0.6890  0.4819 -0.3920
 5518TIP3    H237970   5.082   3.071   4.485 -0.3533  0.5920 -1.7254
 5519TIP3   OH237971   3.823   1.068  16.775  0.4211  0.3792 -0.3816
 5519TIP3    H137972   3.744   1.105  16.735  0.9931  1.6283 -0.3875
 5519TIP3    H237973   3.805   1.072  16.869  0.0809 -0.2381 -0.4206
 5520TIP3   OH237974   4.381   2.137   2.766 -0.3387 -0.5331  0.1819
 5520TIP3    H137975   4.453   2.129   2.704 -0.6312 -0.2578 -0.1978
 5520TIP3    H237976   4.329   2.057   2.755 -0.6800 -0.2505 -0.3047
 5521TIP3   OH237977   2.044   2.907   0.279 -0.0947  0.3604  0.1180
 5521TIP3    H137978   2.062   2.815   0.261 -0.2061  0.2780  0.4195
 5521TIP3    H237979   2.129   2.946   0.296 -0.0215  0.3697 -0.2701
 5522TIP3   OH237980   3.446   1.752  14.979  0.0379 -0.1888  0.2423
 5522TIP3    H137981   3.523   1.746  15.035 -0.0200  0.4521  0.3970
 5522TIP3    H237982   3.381   1.695  15.022  0.9023 -1.9333 -0.7162
 5523TIP3   OH237983   3.127   5.975   1.317 -0.0715  0.1147 -0.8898
 5523TIP3    H137984   3.117   5.881   1.299 -0.3489  0.1923 -1.1413
 5523TIP3    H237985   3.182   5.978   1.396 -2.4291 -0.3140  0.8052
 5524TIP3   OH237986   5.071   1.380   6.001  0.2976  0.4263  0.1104
 5524TIP3    H137987   5.105   1.468   5.986 -0.7538  0.5156 -2.0643
 5524TIP3    H237988   5.074   1.368   6.095  3.1652  1.6886  0.2417
 5525TIP3   OH237989   1.485   0.834   6.408 -0.0123  0.2782 -0.0425
 5525TIP3    H137990   1.559   0.872   6.360  0.9009  0.6837  1.6695
 5525TIP3    H237991   1.479   0.745   6.375  1.2494  0.2401 -0.1910
 5526TIP3   OH237992   1.278   1.048   1.379  0.3699 -0.2844 -0.3462
 5526TIP3    H137993   1.219   1.091   1.318  0.0857 -1.0030 -0.5745
 5526TIP3    H237994   1.242   0.961   1.391  1.6230 -0.8873 -0.8292
 5527TIP3   OH237995   4.510   0.492   3.843  0.4081 -0.5008 -0.5111
 5527TIP3    H137996   4.458   0.562   3.882  0.0942 -1.1241  0.1958
 5527TIP3    H237997   4.532   0.434   3.916  1.8729 -0.3989 -0.8360
 5528TIP3   OH237998   5.063   6.016  13.156 -0.0231 -0.0781 -0.3435
 5528TIP3    H137999   5.121   6.017  13.080  1.6866  1.7054  0.9485
 5528TIP3    H238000   4.984   6.061  13.126  0.3364 -0.0605 -1.2838
 5529TIP3   OH238001   0.906   5.789  12.791 -0.0320  0.3018  0.2030
 5529TIP3    H138002   0.945   5.821  12.709 -0.7845 -3.1532 -1.6114
 5529TIP3    H238003   0.812   5.802  12.779 -0.2724 -1.6174 -0.1779
 5530TIP3   OH238004   2.767   0.601  12.666 -0.5596  0.8613  0.7259
 5530TIP3    H138005   2.747   0.572  12.576 -2.3541  1.9835  0.7326
 5530TIP3    H238006   2.856   0.570  12.682 -0.1985  0.6790 -1.4678
 5531TIP3   OH238007   3.150   5.905  15.255  0.3610  0.8413  0.6758
 5531TIP3    H138008   3.099   5.840  15.303 -0.1012 -1.0081 -2.1918
 5531TIP3    H238009   3.096   5.984  15.256 -1.4689 -0.3585 -0.1863
 5532TIP3   OH238010   3.589   6.543  17.120  0.1864  0.6775 -0.4066
 5532TIP3    H138011   3.615   6.620  17.170 -0.7567  1.4281 -1.0630
 5532TIP3    H238012   3.602   6.470  17.181 -2.7154  1.7595  1.6515
 5533TIP3   OH238013   6.239   2.244  13.211 -0.6255 -0.1080  0.9160
 5533TIP3    H138014   6.273   2.333  13.208 -2.4005  0.6453  2.0246
 5533TIP3    H238015   6.226   2.219  13.120  3.9612 -0.9051  0.3651
 5534TIP3   OH238016   2.749   4.179  13.579  0.9498 -0.3340  0.0781
 5534TIP3    H138017   2.805   4.218  13.646  0.3176  0.1664  0.3181
 5534TIP3    H238018   2.672   4.148  13.627 -0.1569  1.2881 -0.5885
 5535TIP3   OH238019   3.285   3.525  15.933 -0.4355 -0.4130 -0.3370
 5535TIP3    H138020   3.190   3.517  15.939 -0.5332  1.3591  0.6106
 5535TIP3    H238021   3.313   3.547  16.021  0.8208 -0.4487 -0.7201
 5536TIP3   OH238022   5.905   6.480   0.134 -0.0906  0.2777 -0.2624
 5536TIP3    H138023   5.954   6.451   0.211  0.4787  2.3783  0.2263
 5536TIP3    H238024   5.926   6.416   0.066  0.3549 -0.9439  0.9952
 5537TIP3   OH238025   1.537   5.461  15.089 -0.3710 -0.1542  0.6721
 5537TIP3    H138026   1.613   5.518  15.078 -2.1377  2.2390  0.6620
 5537TIP3    H238027   1.571   5.387  15.141  1.9706  0.8237  0.6074
 5538TIP3   OH238028   5.327   2.917   6.336 -0.0046  0.3580  0.0028
 5538TIP3    H138029   5.335   3.008   6.306  0.6704  0.6280  0.9658
 5538TIP3    H238030   5.354   2.920   6.428  0.2242 -0.8498 -0.0187
 5539TIP3   OH238031   4.943   0.746  14.472 -0.0918  0.3204 -0.8726
 5539TIP3    H138032   4.984   0.717  14.390 -0.8733 -0.7820 -0.8826
 5539TIP3    H238033   4.905   0.831  14.450  1.4880  0.9954 -1.0811
 5540TIP3   OH238034   0.546   6.415   4.217  0.1931  0.2867  0.7331
 5540TIP3    H138035   0.564   6.506   4.240  0.8678  0.6541 -1.1677
 5540TIP3    H238036   0.583   6.404   4.129  0.9680 -2.0715  1.3001
 5541TIP3   OH238037   4.116   4.354   4.496  0.1643 -0.2951  0.1612
 5541TIP3    H138038   4.154   4.398   4.572  1.5429 -0.5131 -0.3920
 5541TIP3    H238039   4.152   4.266   4.499 -0.9166 -0.7571  0.0512
 5542TIP3   OH238040   2.414   0.182   1.857  0.2091  0.1227 -0.4190
 5542TIP3    H138041   2.381   0.272   1.859  0.7417  0.3448 -1.3786
 5542TIP3    H238042   2.501   0.188   1.896 -0.0619 -0.1209  0.2405
 5543TIP3   OH238043   0.008   3.393  16.098  0.1033 -0.2495 -0.4153
 5543TIP3    H138044   0.088   3.408  16.047  0.9759  0.5075  1.1397
 5543TIP3    H238045  -0.009   3.477  16.141 -0.4945 -0.9440  0.7091
 5544TIP3   OH238046   0.395   3.201  14.510  0.5212 -0.1295  0.2631
 5544TIP3    H138047   0.394   3.275  14.570 -1.6557 -1.7660  2.3493
 5544TIP3    H238048   0.454   3.138  14.550 -0.3649 -0.9365  0.3167
 5545TIP3   OH238049   1.061   5.696  14.386 -0.1331  0.4562 -0.2321
 5545TIP3    H138050   1.023   5.776  14.348 -1.0970  2.1493  4.0249
 5545TIP3    H238051   1.154   5.717  14.397  0.3101 -0.3267 -2.2348
 5546TIP3   OH238052   3.898   3.120   4.081  0.2366 -0.3937 -0.3309
 5546TIP3    H138053   3.974   3.107   4.025 -0.6662  0.4483 -1.7726
 5546TIP3    H238054   3.930   3.101   4.170  2.5481  1.5126 -0.7065
 5547TIP3   OH238055   6.353   4.256   1.685  0.2969 -0.0838  0.0697
 5547TIP3    H138056   6.404   4.334   1.706 -0.8157  0.8397 -0.5367
 5547TIP3    H238057   6.383   4.189   1.746 -1.4155  1.9148  3.2507
 5548TIP3   OH238058   4.614   3.607  14.199  0.0173 -0.1268 -0.4320
 5548TIP3    H138059   4.569   3.655  14.129  0.2192 -1.2299 -1.3373
 5548TIP3    H238060   4.596   3.515  14.179  1.2385 -0.4978  0.1849
 5549TIP3   OH238061   3.119   6.052  15.949 -0.1840  0.1131 -0.2376
 5549TIP3    H138062   3.041   6.108  15.948  0.8456  1.6243  1.5665
 5549TIP3    H238063   3.190   6.109  15.976  1.1439 -1.7803  0.4127
 5550TIP3   OH238064   0.925   5.217  11.793 -0.4817  0.5225 -0.5167
 5550TIP3    H138065   1.006   5.266  11.810 -0.3427  0.3486 -0.6839
 5550TIP3    H238066   0.954   5.131  11.763 -0.7291  0.2444  0.0317
 5551TIP3   OH238067   0.412   2.617  15.550 -0.2978 -0.3761  0.3284
 5551TIP3    H138068   0.349   2.588  15.616  0.7552 -2.3527  0.5324
 5551TIP3    H238069   0.475   2.671  15.599 -0.5333 -0.3349  0.5841
 5552TIP3   OH238070   1.384   0.135   1.075 -0.4788  0.2062  0.7580
 5552TIP3    H138071   1.441   0.168   1.005  0.7968 -0.7704  1.3236
 5552TIP3    H238072   1.375   0.042   1.056 -1.3556  0.2307  1.0542
 5553TIP3   OH238073   3.509   4.909  14.020  0.1930  0.0468  0.2364
 5553TIP3    H138074   3.508   4.814  14.035  2.8839  0.1630  1.5645
 5553TIP3    H238075   3.439   4.943  14.075 -0.5329 -1.1478  0.0539
 5554TIP3   OH238076   3.731   0.962   4.848  0.5247  0.2428 -0.0411
 5554TIP3    H138077   3.773   1.046   4.829 -0.2939  0.6793  0.0607
 5554TIP3    H238078   3.671   0.982   4.920  0.2454 -0.4061 -0.0971
 5555TIP3   OH238079   1.165   3.115   0.305 -0.1171 -0.1677 -0.3869
 5555TIP3    H138080   1.121   3.053   0.245 -1.1048  1.3229 -1.2364
 5555TIP3    H238081   1.237   3.150   0.254 -0.6156  0.6780 -0.5227
 5556TIP3   OH238082   1.559   0.301   1.315 -0.3518  0.0933  0.5780
 5556TIP3    H138083   1.550   0.396   1.310  1.9831  0.2353 -1.8869
 5556TIP3    H238084   1.646   0.283   1.279 -0.7036 -2.9765  1.1261
 5557TIP3   OH238085   5.535   6.469  16.361 -0.2366  0.6497  0.4219
 5557TIP3    H138086   5.470   6.534  16.388 -1.4439  0.1166 -1.0775
 5557TIP3    H238087   5.618   6.516  16.361 -1.0608  2.1470 -0.4240
 5558TIP3   OH238088   0.269   4.116   3.092  0.5184  0.4586  0.2622
 5558TIP3    H138089   0.306   4.077   3.013  0.6049  0.2892  0.3869
 5558TIP3    H238090   0.182   4.076   3.100  0.5848  0.3320  0.3587
 5559TIP3   OH238091   2.101   2.395   5.650 -0.0943 -0.0969 -0.2221
 5559TIP3    H138092   2.080   2.466   5.710  2.7487  0.3185  0.3840
 5559TIP3    H238093   2.148   2.437   5.578  1.7723 -1.3144  0.2274
 5560TIP3   OH238094   6.219   0.147   1.045  0.4211  0.1055 -0.6074
 5560TIP3    H138095   6.169   0.222   1.013 -0.4361 -0.3928 -0.4640
 5560TIP3    H238096   6.179   0.072   1.002 -1.7366 -0.7509  2.6270
 5561TIP3   OH238097   6.252   3.762   1.918  0.5894 -0.2667  0.4027
 5561TIP3    H138098   6.157   3.750   1.925  0.3130  1.1013 -0.8007
 5561TIP3    H238099   6.288   3.709   1.990 -1.2194  1.0432  2.3443
 5562TIP3   OH238100   2.375   4.210   4.412 -0.3793 -0.2425 -0.0025
 5562TIP3    H138101   2.351   4.302   4.405 -0.3289 -0.0463  2.1395
 5562TIP3    H238102   2.293   4.166   4.437 -0.3717 -0.7523 -0.8692
 5563TIP3   OH238103   0.165   0.040   3.118 -0.1368  0.3456  0.0291
 5563TIP3    H138104   0.202  -0.039   3.080  2.5646  1.8512 -0.5998
 5563TIP3    H238105   0.121   0.011   3.198 -1.5634 -2.1386 -1.5999
 5564TIP3   OH238106   2.431   1.746  16.697  0.4198 -0.2151 -0.9684
 5564TIP3    H138107   2.379   1.684  16.749  1.5628  0.8140  1.4675
 5564TIP3    H238108   2.430   1.710  16.608 -2.6859 -1.3296 -0.5502
 5565TIP3   OH238109   2.586   2.329  14.021  0.3370 -0.1278  0.5443
 5565TIP3    H138110   2.513   2.390  14.013 -0.6945 -1.3282  0.8766
 5565TIP3    H238111   2.572   2.265  13.951 -0.7790 -2.2919  2.6906
 5566TIP3   OH238112   6.559   5.978   6.005 -0.0512  0.0118  0.5512
 5566TIP3    H138113   6.601   6.054   5.964  1.1162 -0.8013  0.1734
 5566TIP3    H238114   6.465   5.993   5.995  0.1901  0.8827 -0.4871
 5567TIP3   OH238115   4.799   4.250  13.915  0.4134 -0.2313 -0.2283
 5567TIP3    H138116   4.754   4.201  13.984 -0.4611  1.1850  0.2360
 5567TIP3    H238117   4.868   4.298  13.961  0.6645 -0.2989 -0.5324
 5568TIP3   OH238118   2.393   6.391  15.049  0.1112  0.0595 -0.0014
 5568TIP3    H138119   2.427   6.306  15.078 -0.1015  0.1696  0.5756
 5568TIP3    H238120   2.461   6.425  14.991  0.1260 -0.5798 -0.3711
 5569TIP3   OH238121   3.326   1.500   4.358  0.7050  0.1129 -0.5186
 5569TIP3    H138122   3.377   1.580   4.369  0.5959  0.4209 -2.1279
 5569TIP3    H238123   3.387   1.440   4.314  0.1638 -0.0318 -1.0717
 5570TIP3   OH238124   1.695   5.509  13.329  0.2935 -0.0563 -0.2162
 5570TIP3    H138125   1.675   5.588  13.279 -2.3665 -0.9439 -0.6083
 5570TIP3    H238126   1.667   5.530  13.418  1.4021  0.1051  0.1113
 5571TIP3   OH238127   4.695   1.901   5.775 -0.1563  0.0293  0.2682
 5571TIP3    H138128   4.725   1.886   5.865  2.9044  1.6110 -0.4283
 5571TIP3    H238129   4.664   1.992   5.775 -0.1794  0.0248 -0.2523
 5572TIP3   OH238130   5.054   1.831  16.024 -0.3900 -0.0960  0.1255
 5572TIP3    H138131   5.114   1.863  15.956  0.7763 -0.5919  0.9023
 5572TIP3    H238132   4.997   1.769  15.979 -0.0842  0.1002 -0.5434
 5573TIP3   OH238133   5.295   2.519   4.162 -0.5284  0.1834  0.2657
 5573TIP3    H138134   5.324   2.433   4.194  4.1448  1.0985 -1.1119
 5573TIP3    H238135   5.322   2.520   4.070 -0.1460  3.2355  0.3594
 5574TIP3   OH238136   3.391   2.525   2.337 -0.4066 -0.3383 -0.4373
 5574TIP3    H138137   3.383   2.477   2.419 -1.4615 -1.5316 -1.2126
 5574TIP3    H238138   3.308   2.509   2.292  0.3116 -0.0285 -1.9016
 5575TIP3   OH238139   6.395   2.648   0.643  0.0941 -0.0716  0.7890
 5575TIP3    H138140   6.355   2.572   0.602  1.3021  0.7556 -2.0425
 5575TIP3    H238141   6.323   2.709   0.658 -0.3201 -0.2567 -0.4238
 5576TIP3   OH238142   2.065   2.104  17.203 -0.1978  1.1049  0.5349
 5576TIP3    H138143   2.137   2.052  17.238 -0.7672  0.1293  0.2601
 5576TIP3    H238144   2.059   2.078  17.111  0.6314  2.9172 -0.0620
 5577TIP3   OH238145   2.733   0.176   0.987 -0.5566  0.4151 -0.5352
 5577TIP3    H138146   2.750   0.098   0.934  0.2520 -0.0105  0.3250
 5577TIP3    H238147   2.639   0.174   1.004 -0.7890  0.4366 -1.7569
 5578TIP3   OH238148   2.584   4.685   5.302 -0.0538 -0.0509 -0.3142
 5578TIP3    H138149   2.639   4.762   5.308  0.6219 -0.5158 -0.5026
 5578TIP3    H238150   2.604   4.647   5.216 -0.4126 -0.4050 -0.2455
 5579TIP3   OH238151   1.041   1.495  16.803 -0.4197 -0.0493 -0.1757
 5579TIP3    H138152   1.032   1.519  16.711 -0.3946  1.8122  0.2930
 5579TIP3    H238153   1.084   1.571  16.844 -0.9506 -0.6160  1.4765
 5580TIP3   OH238154   2.276   2.706   3.570 -0.1685  0.1675 -0.0615
 5580TIP3    H138155   2.255   2.770   3.502  1.4069  0.9399  0.1427
 5580TIP3    H238156   2.303   2.627   3.522 -1.2147 -0.0279 -0.3201
 5581TIP3   OH238157   0.462   4.740  16.701  0.4614 -0.0222 -0.2877
 5581TIP3    H138158   0.401   4.697  16.761  1.3200 -0.2688  0.4065
 5581TIP3    H238159   0.425   4.827  16.688  1.1258  0.5753  1.8335
 5582TIP3   OH238160   2.964   2.572   6.052 -0.1357 -0.2789  0.5065
 5582TIP3    H138161   2.879   2.533   6.033 -1.2991  0.8447  3.0535
 5582TIP3    H238162   2.979   2.551   6.144  1.6036  0.8847  0.5013
 5583TIP3   OH238163   2.357   4.097   3.595 -0.1459 -0.0423  0.8840
 5583TIP3    H138164   2.281   4.043   3.575 -0.4898  0.6100  0.4306
 5583TIP3    H238165   2.349   4.115   3.689 -0.4332 -0.1602  0.8820
 5584TIP3   OH238166   2.547   3.357   1.270  0.0290 -0.1768 -0.4236
 5584TIP3    H138167   2.480   3.425   1.254 -1.2328 -1.2235  0.3279
 5584TIP3    H238168   2.504   3.295   1.329  1.3528 -1.3674 -0.6996
 5585TIP3   OH238169   5.829   0.491  13.027  0.3659 -0.2316 -0.1994
 5585TIP3    H138170   5.788   0.487  13.113 -0.1942 -3.2112 -0.5367
 5585TIP3    H238171   5.775   0.433  12.973  1.9770 -0.0782 -2.0131
 5586TIP3   OH238172   2.755   4.410  13.151 -0.2325  0.0926  0.1084
 5586TIP3    H138173   2.735   4.331  13.202  0.7616 -1.1513 -1.4018
 5586TIP3    H238174   2.847   4.427  13.170 -0.4083  0.8187  0.3174
 5587TIP3   OH238175   1.670   4.248  15.375 -0.1754 -0.0484 -0.2559
 5587TIP3    H138176   1.605   4.178  15.363 -1.0082  0.7023 -0.2411
 5587TIP3    H238177   1.655   4.307  15.301  1.9026 -0.9319 -1.4117
 5588TIP3   OH238178   1.523   0.905  16.399 -0.2473  0.0957 -0.7844
 5588TIP3    H138179   1.480   0.826  16.432 -0.7441  0.4993 -0.4519
 5588TIP3    H238180   1.600   0.916  16.456  0.9387 -1.2568 -2.0865
 5589TIP3   OH238181   1.557   5.624  13.563 -0.5197  0.0466 -0.6205
 5589TIP3    H138182   1.645   5.662  13.559  0.6062 -2.3200  0.5414
 5589TIP3    H238183   1.499   5.697  13.546  1.3398  3.2480  5.4141
 5590TIP3   OH238184   2.703   0.973  16.287 -0.0485  0.2521  0.3472
 5590TIP3    H138185   2.624   0.961  16.340  0.6364  3.1544  2.1321
 5590TIP3    H238186   2.709   1.067  16.273  3.1791  0.1151  0.3823
 5591TIP3   OH238187   1.354   3.408  14.472  0.8152  0.0603  1.1209
 5591TIP3    H138188   1.276   3.371  14.431  1.0949  0.2897  0.3547
 5591TIP3    H238189   1.382   3.477  14.411  1.8563 -0.3080  1.1716
 5592TIP3   OH238190   3.625   4.560  16.451  0.0459  0.1036  0.7270
 5592TIP3    H138191   3.705   4.611  16.466  0.5352 -0.4289 -0.0292
 5592TIP3    H238192   3.598   4.584  16.362 -0.4036 -0.0467  0.8197
 5593TIP3   OH238193   1.481   6.640  15.337  0.2886  0.3466 -0.3429
 5593TIP3    H138194   1.400   6.653  15.386  0.5482  3.5275 -0.6310
 5593TIP3    H238195   1.453   6.608  15.251 -0.3674 -2.1283  0.7493
 5594TIP3   OH238196   4.803   2.547   2.057 -0.3798  0.0809 -0.3079
 5594TIP3    H138197   4.854   2.612   2.104 -0.7304 -0.0593  0.2621
 5594TIP3    H238198   4.731   2.597   2.018 -0.2937  0.1367 -0.3972
 5595TIP3   OH238199   5.568   6.530  13.478 -0.7523 -0.1734  0.1274
 5595TIP3    H138200   5.510   6.476  13.533  0.2350 -0.9267  0.4566
 5595TIP3    H238201   5.558   6.493  13.390 -0.9129 -0.1825  0.1492
 5596TIP3   OH238202   1.432   0.035   2.806  0.5213 -0.3879 -0.0023
 5596TIP3    H138203   1.417  -0.026   2.734 -2.0888 -0.9161  0.9193
 5596TIP3    H238204   1.345   0.068   2.828  1.3912  0.5318  2.2276
 5597TIP3   OH238205   2.046   6.779   4.936 -0.3945  0.3037 -0.3572
 5597TIP3    H138206   1.982   6.840   4.974  0.5539 -0.6972  3.0501
 5597TIP3    H238207   2.011   6.693   4.957  0.5960 -0.2788 -1.0808
 5598TIP3   OH238208   6.613   1.091   5.448  0.3591  0.3486 -0.1071
 5598TIP3    H138209   6.631   1.162   5.509 -0.6796  1.3645 -0.9719
 5598TIP3    H238210   6.668   1.110   5.372 -1.7225  1.5942 -1.3490
 5599TIP3   OH238211   3.806   0.124  16.241 -0.9134  0.3261 -0.0165
 5599TIP3    H138212   3.791   0.041  16.285 -3.5947  0.7295 -0.0759
 5599TIP3    H238213   3.736   0.130  16.176 -0.2911  2.2751 -0.5451
 5600TIP3   OH238214   6.162   2.416   5.668 -0.3925 -0.1212 -0.1104
 5600TIP3    H138215   6.095   2.461   5.617 -0.8038 -2.1487 -1.4002
 5600TIP3    H238216   6.113   2.360   5.728  0.1238 -0.4036  0.0473
 5601TIP3   OH238217   6.104   2.046  13.366  0.8546 -0.1718 -0.2450
 5601TIP3    H138218   6.174   2.102  13.333  1.5172 -0.3276  0.8800
 5601TIP3    H238219   6.024   2.099  13.359  1.1192  0.1050 -1.2610
 5602TIP3   OH238220   4.906   2.197  12.242 -0.2850  0.3419 -0.2847
 5602TIP3    H138221   4.976   2.240  12.290  0.2112  1.4044 -1.9121
 5602TIP3    H238222   4.826   2.236  12.275  0.0008  0.5007  0.2230
 5603TIP3   OH238223   0.093   2.732   5.003  0.2463  0.1430 -0.1052
 5603TIP3    H138224   0.126   2.659   5.054  0.3913  0.8224  0.7829
 5603TIP3    H238225   0.044   2.692   4.931 -0.2144 -0.8033  0.7361
 5604TIP3   OH238226   6.527   5.178  13.725 -0.0245  0.3526  0.4529
 5604TIP3    H138227   6.598   5.121  13.753 -0.0594 -0.7858 -1.6771
 5604TIP3    H238228   6.509   5.233  13.802  2.9993  0.5589  1.0864
 5605TIP3   OH238229   4.009   4.181   0.339  0.4685  0.1269  0.9037
 5605TIP3    H138230   4.038   4.243   0.272  1.0372  0.1903  1.2151
 5605TIP3    H238231   3.913   4.188   0.337  0.5427  1.4669  1.3672
 5606TIP3   OH238232   0.544   5.731   3.894  0.3296  0.4229  0.2368
 5606TIP3    H138233   0.581   5.818   3.908  0.5495  0.4789 -0.6321
 5606TIP3    H238234   0.618   5.671   3.906  0.3272  0.4083  0.1791
 5607TIP3   OH238235   4.280   2.772  14.404 -0.1495  0.5400 -0.5018
 5607TIP3    H138236   4.227   2.696  14.383 -0.5895  0.6912  0.0517
 5607TIP3    H238237   4.238   2.811  14.480  0.0206  1.3866 -0.8268
 5608TIP3   OH238238   4.590   0.563   0.608 -0.4135 -0.0213 -0.4253
 5608TIP3    H138239   4.638   0.610   0.677  0.7785  0.3466 -1.4735
 5608TIP3    H238240   4.512   0.616   0.593 -0.9115 -0.3413  0.9355
 5609TIP3   OH238241   2.837   2.742   1.874 -0.2236 -0.3173  0.8248
 5609TIP3    H138242   2.872   2.710   1.791 -1.1891 -0.5716  0.5126
 5609TIP3    H238243   2.907   2.797   1.910  0.2113 -0.2308 -0.1352
 5610TIP3   OH238244   6.590   0.653   6.350  0.3247  0.2998  0.1687
 5610TIP3    H138245   6.508   0.681   6.391  1.0699  0.6860  1.4342
 5610TIP3    H238246   6.629   0.735   6.318  0.6158  0.2272  0.3334
 5611TIP3   OH238247   5.345   5.450  13.619  0.1114 -0.0299 -0.0717
 5611TIP3    H138248   5.307   5.529  13.658  0.9533 -0.1126  0.9194
 5611TIP3    H238249   5.271   5.407  13.577 -0.1604  1.8228 -1.5382
 5612TIP3   OH238250   2.074   5.147  12.523 -0.1315 -0.0966  0.0394
 5612TIP3    H138251   2.099   5.108  12.606  0.1160  0.4909  0.2475
 5612TIP3    H238252   2.139   5.216  12.509 -0.2346 -0.1252 -0.5869
 5613TIP3   OH238253   5.527   5.656  10.914 -0.4944  0.5317  0.0975
 5613TIP3    H138254   5.599   5.629  10.856 -0.0948  1.6541  0.0594
 5613TIP3    H238255   5.461   5.588  10.903 -0.3439  0.6341 -1.5430
 5614TIP3   OH238256   0.872   5.219   3.123 -0.0713 -0.0950 -0.4986
 5614TIP3    H138257   0.807   5.161   3.162 -1.7250  1.5705 -0.7405
 5614TIP3    H238258   0.876   5.192   3.031 -2.1205  1.2809 -1.0195
 5615TIP3   OH238259   2.548   0.233  13.232 -0.0738 -0.1820  0.0754
 5615TIP3    H138260   2.467   0.199  13.193 -0.3434 -0.5584  0.9422
 5615TIP3    H238261   2.612   0.231  13.161 -1.0374  0.8714 -0.8334
 5616TIP3   OH238262   5.600   3.675   3.110  0.4336 -0.1809  0.4642
 5616TIP3    H138263   5.547   3.751   3.086  0.4555 -0.5366 -0.7475
 5616TIP3    H238264   5.540   3.617   3.156  0.0831 -0.0251  0.2051
 5617TIP3   OH238265   5.113   3.829  14.826 -0.3105  0.1987 -0.4277
 5617TIP3    H138266   5.124   3.914  14.783  1.1618 -0.4636 -1.4367
 5617TIP3    H238267   5.114   3.766  14.753  0.1962 -0.7891  0.4182
 5618TIP3   OH238268   2.596   3.380   3.756 -0.3908  0.1137 -0.1715
 5618TIP3    H138269   2.592   3.474   3.771 -1.2380 -0.0851  0.9639
 5618TIP3    H238270   2.555   3.367   3.671 -1.2752  0.6690  0.1634
 5619TIP3   OH238271   1.330   2.162  11.569 -0.4179  0.1082 -0.4807
 5619TIP3    H138272   1.421   2.163  11.540 -0.6399 -1.0071 -1.2142
 5619TIP3    H238273   1.291   2.238  11.526 -0.0772  0.0367 -0.9185
 5620TIP3   OH238274   1.265   0.483   5.591 -0.5181 -0.1618 -0.3846
 5620TIP3    H138275   1.281   0.504   5.499  0.6739  0.6870 -0.0036
 5620TIP3    H238276   1.340   0.431   5.618  0.3019  1.5171  0.6985
 5621TIP3   OH238277   2.823   1.143   6.209  0.1087 -0.1010 -0.7044
 5621TIP3    H138278   2.800   1.076   6.144 -0.5921  1.1074 -1.7168
 5621TIP3    H238279   2.743   1.194   6.220  0.6147  0.5174  0.1393
 5622TIP3   OH238280   1.575   0.150  16.482 -0.1738 -0.3674 -0.3589
 5622TIP3    H138281   1.480   0.152  16.469 -0.5155 -1.7035  1.6599
 5622TIP3    H238282   1.588   0.181  16.572  1.1866 -1.4163 -0.1698
 5623TIP3   OH238283   2.666   4.288   6.284  0.5856 -0.3890  0.0936
 5623TIP3    H138284   2.683   4.232   6.359  1.0156  1.0368  1.0987
 5623TIP3    H238285   2.587   4.253   6.244  0.2385 -1.0391  1.3411
 5624TIP3   OH238286   5.408   6.104  11.602 -0.5617  0.8242 -0.3208
 5624TIP3    H138287   5.377   6.186  11.639  0.0438  1.1987 -0.6494
 5624TIP3    H238288   5.343   6.039  11.630 -0.4935  1.2294  0.8018
 5625TIP3   OH238289   3.659   5.608   0.293  0.1500 -0.0646  0.5539
 5625TIP3    H138290   3.691   5.698   0.300 -0.8540  0.4509 -0.9503
 5625TIP3    H238291   3.574   5.609   0.338 -0.4270  0.0657 -0.5138
 5626TIP3   OH238292   2.294   2.737   0.355 -0.0651 -0.0599  0.0685
 5626TIP3    H138293   2.253   2.651   0.343 -1.6931  0.8578 -1.2252
 5626TIP3    H238294   2.356   2.744   0.283 -1.8421  0.8952 -1.4230
 5627TIP3   OH238295   3.154   0.464  14.908  0.2889 -0.4990 -0.0849
 5627TIP3    H138296   3.149   0.368  14.913  1.2580 -0.4823  1.3916
 5627TIP3    H238297   3.113   0.494  14.989 -0.4293  0.3557 -0.7613
 5628TIP3   OH238298   5.393   5.107   1.677  0.0371 -0.0012  0.3212
 5628TIP3    H138299   5.478   5.134   1.711  0.9441  1.9704 -3.2122
 5628TIP3    H238300   5.390   5.144   1.589 -4.5073 -0.0050  0.3573
 5629TIP3   OH238301   3.557   2.922   0.887  0.1807 -0.4543  0.3828
 5629TIP3    H138302   3.639   2.901   0.932  0.7241 -0.5195 -0.6391
 5629TIP3    H238303   3.490   2.913   0.955  0.8935 -1.4382  0.9722
 5630TIP3   OH238304   5.597   4.240  10.724 -0.2993 -0.0027  0.1096
 5630TIP3    H138305   5.681   4.229  10.769  0.5097  0.6669 -1.2259
 5630TIP3    H238306   5.532   4.227  10.793  0.8852 -0.7456  1.1186
 5631TIP3   OH238307   4.664   1.183   0.634  0.1393  0.0504 -0.1345
 5631TIP3    H138308   4.626   1.255   0.583 -0.5329 -0.6901 -0.6981
 5631TIP3    H238309   4.741   1.221   0.675 -1.2054  1.5935  1.0326
 5632TIP3   OH238310   2.806   1.603   2.518 -0.2645  0.2632  0.3350
 5632TIP3    H138311   2.873   1.558   2.569 -0.6233 -0.4586  0.1759
 5632TIP3    H238312   2.796   1.688   2.561  1.2242  0.6442 -0.0330
 5633TIP3   OH238313   0.593   4.317  14.480 -0.1217 -0.4303 -0.8113
 5633TIP3    H138314   0.565   4.376  14.549  0.4397 -2.1462  0.9531
 5633TIP3    H238315   0.635   4.373  14.415  1.3492  0.9881  1.3109
 5634TIP3   OH238316   5.065   2.220   5.570  0.0165  0.2201  0.3626
 5634TIP3    H138317   5.015   2.143   5.597 -1.2555 -0.0406 -2.5494
 5634TIP3    H238318   5.114   2.245   5.648 -1.4187 -2.0683  2.0705
 5635TIP3   OH238319   4.461   5.468   4.724  0.4131 -0.3378  0.6746
 5635TIP3    H138320   4.507   5.468   4.640  0.8395 -1.2025  0.9023
 5635TIP3    H238321   4.441   5.376   4.740  0.7394 -0.2313  1.7420
 5636TIP3   OH238322   0.787   1.283   2.360 -0.2158 -0.8402 -0.1784
 5636TIP3    H138323   0.800   1.215   2.426  1.6418 -2.4693 -2.1890
 5636TIP3    H238324   0.860   1.273   2.299 -0.8684  1.8315 -1.4901
 5637TIP3   OH238325   2.815   4.184  16.976  0.4877  0.5755 -0.5467
 5637TIP3    H138326   2.847   4.270  17.003  3.7786 -0.3839 -1.1454
 5637TIP3    H238327   2.874   4.122  17.018 -3.0122 -1.5413  1.4455
 5638TIP3   OH238328   3.297   0.047  14.243  0.0658 -0.0905 -0.1399
 5638TIP3    H138329   3.290  -0.040  14.205 -0.5897  0.1610 -0.6072
 5638TIP3    H238330   3.382   0.080  14.212  0.9694 -1.0829  1.1754
 5639TIP3   OH238331   6.367   6.633  15.206 -0.1469 -0.4146 -0.2121
 5639TIP3    H138332   6.274   6.624  15.186 -0.6571  2.1194  0.8347
 5639TIP3    H238333   6.411   6.600  15.128 -1.8358 -3.1248 -0.1217
 5640TIP3   OH238334   0.584   5.751  11.685 -0.4655 -0.6484 -0.3729
 5640TIP3    H138335   0.607   5.667  11.645  2.4950  0.3481 -0.9145
 5640TIP3    H238336   0.563   5.808  11.611  1.8598  0.2884 -0.3629
 5641TIP3   OH238337   6.401   0.608  11.586  0.3651  0.1511 -0.1151
 5641TIP3    H138338   6.466   0.610  11.656  2.0810 -0.7987 -1.6752
 5641TIP3    H238339   6.397   0.698  11.554  0.5971  0.2906  0.2503
 5642TIP3   OH238340   3.496   4.928  16.808  0.6080 -0.1384  0.0343
 5642TIP3    H138341   3.479   4.987  16.735  1.0590 -1.2008 -0.9397
 5642TIP3    H238342   3.551   4.978  16.868  1.5690  0.1896 -1.1135
 5643TIP3   OH238343   3.882   0.461  15.813 -0.5894  0.5107 -0.5408
 5643TIP3    H138344   3.941   0.464  15.889  1.0061  0.3497 -1.7426
 5643TIP3    H238345   3.810   0.405  15.840 -0.0473  0.4707  0.8578
 5644TIP3   OH238346   0.597   5.249  12.061  0.1178  0.4642  0.7350
 5644TIP3    H138347   0.638   5.170  12.027  0.2934  0.0355  1.9347
 5644TIP3    H238348   0.626   5.318  12.002  1.6127 -0.0339  0.8630
 5645TIP3   OH238349   0.049   6.211  16.021  0.5063 -0.4569 -0.1919
 5645TIP3    H138350   0.081   6.204  16.111  1.3113  1.0209 -0.3536
 5645TIP3    H238351  -0.015   6.140  16.013 -0.2890 -0.0126  1.8520
 5646TIP3   OH238352   3.124   5.873  16.988 -0.0463 -0.4862 -0.0552
 5646TIP3    H138353   3.206   5.916  17.010  0.4474 -1.5304  0.1705
 5646TIP3    H238354   3.135   5.783  17.019 -1.7335 -0.3180  1.0889
 5647TIP3   OH238355   2.465   3.756   1.083  0.0542 -0.1229 -0.2630
 5647TIP3    H138356   2.425   3.708   1.010 -0.8922  0.7282 -0.3050
 5647TIP3    H238357   2.535   3.806   1.041  0.7122 -1.0400 -0.2970
 5648TIP3   OH238358   0.752   6.391  14.763  0.1830 -0.1694 -0.1362
 5648TIP3    H138359   0.667   6.436  14.769 -1.2155 -2.7071 -0.3965
 5648TIP3    H238360   0.789   6.398  14.851 -0.1953  1.1175 -0.0692
 5649TIP3   OH238361   5.837   3.270   3.297  0.0877 -0.1799 -0.0502
 5649TIP3    H138362   5.885   3.291   3.217  1.0562 -3.4211 -0.3783
 5649TIP3    H238363   5.882   3.318   3.365  1.9926 -0.8403 -0.8173
 5650TIP3   OH238364   4.988   1.825   6.593  0.4856 -0.0441  0.0058
 5650TIP3    H138365   4.903   1.854   6.561 -0.1347  0.1213  1.7516
 5650TIP3    H238366   5.044   1.902   6.585 -0.2752  0.6937  1.4420
 5651TIP3   OH238367   2.341   2.015  16.699  0.2779  0.4837  0.0255
 5651TIP3    H138368   2.353   2.043  16.789 -1.2517 -0.6622  0.6019
 5651TIP3    H238369   2.375   1.926  16.696 -0.2428  0.2912 -0.3726
 5652TIP3   OH238370   0.119   5.602   1.947  0.4443 -0.1069 -0.6062
 5652TIP3    H138371   0.111   5.583   1.854  0.8271 -0.5117 -0.5532
 5652TIP3    H238372   0.104   5.518   1.991 -0.4812  0.2192 -0.2657
 5653TIP3   OH238373   3.520   4.683  12.986  0.1694 -0.2802 -0.2982
 5653TIP3    H138374   3.523   4.721  12.898 -0.5019 -0.4061 -0.3815
 5653TIP3    H238375   3.426   4.677  13.006  0.3219  0.9384  0.9453
 5654TIP3   OH238376   3.231   0.024   3.280  0.0571 -0.0123 -0.3460
 5654TIP3    H138377   3.242   0.003   3.188 -0.8772 -0.0235 -0.4632
 5654TIP3    H238378   3.309   0.075   3.303 -0.0350  0.5842 -1.3176
 5655TIP3   OH238379   4.387   4.782  14.067  0.2173  0.3546  0.7228
 5655TIP3    H138380   4.335   4.710  14.102 -0.8520 -1.1029 -3.5189
 5655TIP3    H238381   4.322   4.848  14.043  0.7503  0.6318  0.0320
 5656TIP3   OH238382   3.149   4.501   5.186 -0.3295  0.5546  0.4678
 5656TIP3    H138383   3.115   4.444   5.117 -0.5190 -0.0643  1.0624
 5656TIP3    H238384   3.200   4.568   5.139  0.5887 -0.5755 -0.1975
 5657TIP3   OH238385   1.218   3.578   2.775  0.4378  0.3967  0.1886
 5657TIP3    H138386   1.143   3.524   2.800  2.7865 -2.3776  1.7477
 5657TIP3    H238387   1.274   3.577   2.853  2.5153  1.5769 -1.2437
 5658TIP3   OH238388   2.857   4.574  11.948  0.1496  0.8056  0.0894
 5658TIP3    H138389   2.848   4.657  11.903  0.7654  1.9076  1.9438
 5658TIP3    H238390   2.812   4.587  12.032 -0.9047 -1.1679 -0.1295
 5659TIP3   OH238391   6.609   0.389  13.856 -0.4639  0.0947  0.3092
 5659TIP3    H138392   6.635   0.447  13.928  1.2748  0.5182 -0.6329
 5659TIP3    H238393   6.688   0.338  13.838 -1.0060 -0.2641 -1.0618
 5660TIP3   OH238394   6.440   1.425   5.527 -0.0310 -0.0817  0.3864
 5660TIP3    H138395   6.389   1.366   5.583  0.8983 -0.7395  0.5659
 5660TIP3    H238396   6.520   1.375   5.507 -0.1647  0.3048 -1.1850
 5661TIP3   OH238397   0.677   5.409   3.332 -0.3282  0.2628 -0.4433
 5661TIP3    H138398   0.614   5.461   3.382  0.8823  2.1806 -0.8330
 5661TIP3    H238399   0.637   5.323   3.324 -2.1752  0.9901  0.6644
 5662TIP3   OH238400   3.806   1.192  15.098 -0.3538 -0.0424 -0.0118
 5662TIP3    H138401   3.772   1.103  15.095 -2.6554  0.8327 -0.7840
 5662TIP3    H238402   3.883   1.190  15.040 -1.1653 -1.2100 -1.0686
 5663TIP3   OH238403   2.106   3.649  15.019  0.3500  0.0418 -0.2176
 5663TIP3    H138404   2.071   3.641  15.108  0.3437 -0.0551 -0.2281
 5663TIP3    H238405   2.068   3.730  14.986 -0.1622 -0.2450 -0.3553
 5664TIP3   OH238406   1.612   5.613   2.087 -0.1928  0.0626 -0.7182
 5664TIP3    H138407   1.584   5.566   2.165 -1.0955 -1.5985 -1.9969
 5664TIP3    H238408   1.562   5.694   2.088 -0.6759 -0.2359  0.0896
 5665TIP3   OH238409   4.191   2.243  11.035 -0.6569 -0.7350 -0.0934
 5665TIP3    H138410   4.222   2.157  11.064 -0.1813 -0.9507 -1.2088
 5665TIP3    H238411   4.150   2.281  11.112  2.4565 -0.3925  1.4554
 5666TIP3   OH238412   1.410   4.448   3.159  0.0444  0.3920  0.5706
 5666TIP3    H138413   1.442   4.465   3.247  0.4984  0.5743  0.3723
 5666TIP3    H238414   1.353   4.523   3.140 -0.9059 -0.1845  1.1142
 5667TIP3   OH238415   5.186   5.108   0.996 -0.1966 -0.0883 -0.5679
 5667TIP3    H138416   5.181   5.014   1.013 -1.6198 -0.2598 -1.8476
 5667TIP3    H238417   5.271   5.134   1.032  0.1382 -1.8221 -0.0492
 5668TIP3   OH238418   4.218   0.023  11.858  0.4894 -0.4528  0.2230
 5668TIP3    H138419   4.209   0.013  11.953 -0.2290  0.9146  0.3147
 5668TIP3    H238420   4.137  -0.012  11.822  2.0546 -3.8661 -0.1260
 5669TIP3   OH238421   3.663   6.380   2.655  0.0224  0.2094 -0.1005
 5669TIP3    H138422   3.738   6.434   2.679  0.2493 -1.1435  2.4736
 5669TIP3    H238423   3.650   6.396   2.561  3.8787  0.0506 -0.7518
 5670TIP3   OH238424   2.371   3.326  16.777 -0.2587 -0.1548 -0.8234
 5670TIP3    H138425   2.305   3.383  16.816 -0.0522  0.4645 -1.3670
 5670TIP3    H238426   2.415   3.381  16.712  0.2300 -0.8098 -1.0540
 5671TIP3   OH238427   0.226   1.188  13.905  0.3012  0.2094 -0.0408
 5671TIP3    H138428   0.160   1.125  13.878  0.9072 -0.8251  0.8520
 5671TIP3    H238429   0.228   1.253  13.834 -3.6331  1.8236  1.1964
 5672TIP3   OH238430   0.143   0.614  16.154  0.0677 -0.0745  0.2357
 5672TIP3    H138431   0.191   0.539  16.118 -0.4779 -0.2049 -0.2332
 5672TIP3    H238432   0.161   0.686  16.093  0.6233  0.1862  0.7059
 5673TIP3   OH238433   3.401   4.611  11.459  0.0373 -0.1087 -0.1985
 5673TIP3    H138434   3.357   4.692  11.488  0.4907 -0.4347  1.4516
 5673TIP3    H238435   3.494   4.629  11.472  0.1300 -0.9369  0.2758
 5674TIP3   OH238436   6.380   1.852   4.528  0.0468  0.4492  0.5609
 5674TIP3    H138437   6.389   1.861   4.623 -1.3596  0.9264  0.6562
 5674TIP3    H238438   6.286   1.846   4.513  0.2185  1.1349 -0.8828
 5675TIP3   OH238439   6.643   1.077   3.281  0.3611  0.2054  0.0009
 5675TIP3    H138440   6.723   1.094   3.330  0.3987 -0.3641  0.1355
 5675TIP3    H238441   6.598   1.010   3.332 -0.5295  1.0162  0.3039
 5676TIP3   OH238442   4.669   0.931   2.000  0.7377 -1.0096  0.9253
 5676TIP3    H138443   4.581   0.903   1.974  1.2964 -0.3812 -1.8194
 5676TIP3    H238444   4.726   0.860   1.972  1.5371  0.3685 -1.0710
 5677TIP3   OH238445   4.485   2.298   1.020 -0.0492 -0.6298 -0.1289
 5677TIP3    H138446   4.446   2.225   1.069 -0.3141  0.9427  2.0361
 5677TIP3    H238447   4.427   2.310   0.944 -1.2995 -1.1607  0.7362
 5678TIP3   OH238448   0.822   0.051   3.922  0.1388 -0.0764 -0.7063
 5678TIP3    H138449   0.770   0.119   3.965 -1.2082 -0.8324 -1.0904
 5678TIP3    H238450   0.777  -0.031   3.943  1.0462 -0.7325 -1.2495
 5679TIP3   OH238451   5.717   6.767   4.423  0.3324  0.4420 -0.2651
 5679TIP3    H138452   5.671   6.851   4.413  0.5125  0.6937  0.9691
 5679TIP3    H238453   5.730   6.757   4.518  0.2079 -1.0383 -0.3848
 5680TIP3   OH238454   0.925   5.904   4.364 -0.2065  0.4649  0.0291
 5680TIP3    H138455   0.976   5.986   4.358  0.6970  0.0077  1.1996
 5680TIP3    H238456   0.896   5.901   4.455  0.4755 -0.9298  0.2064
 5681TIP3   OH238457   6.677   0.204   3.822  0.5426 -0.0682 -0.5295
 5681TIP3    H138458   6.692   0.114   3.792  1.7540 -0.6953  1.8645
 5681TIP3    H238459   6.723   0.210   3.905  0.2045  2.6938 -0.4845
 5682TIP3   OH238460   4.670   3.204  17.215  0.3456  0.4585 -0.1519
 5682TIP3    H138461   4.751   3.163  17.185 -0.1933  0.4569 -1.6148
 5682TIP3    H238462   4.617   3.214  17.136 -0.5840  1.5950  0.6028
 5683TIP3   OH238463   1.651   4.594   1.747 -0.5326  0.0870 -0.0283
 5683TIP3    H138464   1.741   4.607   1.719 -0.1615 -1.5607  0.3554
 5683TIP3    H238465   1.641   4.651   1.823 -0.0622  0.8424 -0.5214
 5684TIP3   OH238466   0.944   6.350  12.043 -0.0297 -0.3335 -0.3667
 5684TIP3    H138467   0.988   6.327  11.962 -0.8657 -1.1128 -0.6215
 5684TIP3    H238468   0.878   6.414  12.018 -0.3172 -0.6056 -0.3216
 5685TIP3   OH238469   4.530   3.203  11.508  0.3771 -0.0711  0.2465
 5685TIP3    H138470   4.605   3.255  11.479  0.3357  1.1949  2.3335
 5685TIP3    H238471   4.454   3.255  11.482  0.2413 -0.5733 -0.3912
 5686TIP3   OH238472   4.942   1.472  15.736 -0.5521  0.0453  0.4416
 5686TIP3    H138473   5.027   1.440  15.765 -0.8250 -0.8191  0.2947
 5686TIP3    H238474   4.920   1.541  15.799  1.3899  2.0314 -0.9898
 5687TIP3   OH238475   3.176   6.059   3.632 -0.0429 -0.1337  0.0167
 5687TIP3    H138476   3.215   6.134   3.676  0.6174 -1.9291  2.5495
 5687TIP3    H238477   3.101   6.035   3.686 -0.2077 -1.3612 -0.7299
 5688TIP3   OH238478   3.191   3.882  11.298  0.1687  0.0163 -0.6705
 5688TIP3    H138479   3.175   3.862  11.206  2.8881  0.2383 -1.2403
 5688TIP3    H238480   3.249   3.812  11.328 -0.9507 -0.2427  0.9809
 5689TIP3   OH238481   2.908   4.095  12.492  0.4104  0.1966 -0.4407
 5689TIP3    H138482   2.882   4.049  12.412 -2.5121  0.5498  0.2245
 5689TIP3    H238483   2.921   4.186  12.465 -2.0023  0.6127 -0.3019
 5690TIP3   OH238484   6.581   0.237   4.608 -0.5711 -0.1622 -0.5962
 5690TIP3    H138485   6.498   0.190   4.597 -0.5924 -0.4499  0.6668
 5690TIP3    H238486   6.643   0.170   4.636 -0.3158  0.3530  0.0790
 5691TIP3   OH238487   0.077   1.592   1.875  0.3983  0.3222 -0.3091
 5691TIP3    H138488   0.001   1.559   1.924 -0.0315  0.6102 -0.7805
 5691TIP3    H238489   0.143   1.523   1.884  0.4328  0.5028  0.9334
 5692TIP3   OH238490   0.673   1.259   3.702 -0.5695 -0.2652  0.1575
 5692TIP3    H138491   0.693   1.200   3.775  0.0625  0.5824  0.6711
 5692TIP3    H238492   0.641   1.339   3.743  2.6373  1.3382 -0.3325
 5693TIP3   OH238493   1.956   3.869   0.089 -0.2961  0.1094 -0.5563
 5693TIP3    H138494   1.977   3.844  -0.001  0.2832  0.4056 -0.5089
 5693TIP3    H238495   1.929   3.961   0.083  0.6339  0.4085 -0.3108
 5694TIP3   OH238496   3.390   2.313  15.227  0.3800 -0.3539  0.6085
 5694TIP3    H138497   3.460   2.252  15.205  2.0248  1.6779  0.0187
 5694TIP3    H238498   3.423   2.363  15.302 -1.3643 -0.8603  1.7669
 5695TIP3   OH238499   3.367   4.165   2.039 -0.0273 -0.3062  0.1942
 5695TIP3    H138500   3.414   4.233   2.087 -0.7502  0.4774 -0.1828
 5695TIP3    H238501   3.434   4.102   2.015  0.7118  0.4248  0.2971
 5696TIP3   OH238502   1.260   2.540   5.922 -1.0389  0.4606  0.2276
 5696TIP3    H138503   1.350   2.552   5.952 -0.5220  0.6740 -1.3572
 5696TIP3    H238504   1.269   2.502   5.835 -2.4325  2.3749 -0.7912
 5697TIP3   OH238505   4.558   3.927   0.379  0.1388  0.4132  0.2328
 5697TIP3    H138506   4.538   4.019   0.394  0.8596  0.8881 -1.5963
 5697TIP3    H238507   4.606   3.926   0.296 -0.0845 -1.6308  0.1019
 5698TIP3   OH238508   6.610   1.802  12.316  0.0644  0.5108  0.0473
 5698TIP3    H138509   6.652   1.826  12.399 -0.5143 -0.8844  0.7539
 5698TIP3    H238510   6.601   1.706  12.321 -1.1175  0.5600 -1.0847
 5699TIP3   OH238511   2.427   5.427   0.722  0.5519 -0.1268 -0.1182
 5699TIP3    H138512   2.366   5.423   0.649 -0.3944  0.8985  0.6110
 5699TIP3    H238513   2.402   5.505   0.771 -1.0890 -2.6406  3.2580
 5700TIP3   OH238514   4.741   4.481   1.790  0.4532  0.3625  0.2507
 5700TIP3    H138515   4.746   4.414   1.858 -0.6602  0.3694  0.3484
 5700TIP3    H238516   4.660   4.528   1.809  0.0986  0.3238 -1.1128
 5701TIP3   OH238517   5.459   5.941  15.252  0.4121  0.1337 -0.0239
 5701TIP3    H138518   5.464   6.026  15.296  0.6665 -0.4833  1.1630
 5701TIP3    H238519   5.396   5.891  15.304  1.4417 -0.9374  0.2225
 5702TIP3   OH238520   5.159   0.280   2.386 -0.2216  0.1205 -0.1741
 5702TIP3    H138521   5.197   0.230   2.458  1.7501  1.6517 -0.0868
 5702TIP3    H238522   5.179   0.228   2.308 -1.2520 -0.9223  0.2494
 5703TIP3   OH238523   2.474   1.438  11.116  0.1181 -1.1846  0.3044
 5703TIP3    H138524   2.569   1.433  11.125  0.2428  0.4950  0.0603
 5703TIP3    H238525   2.454   1.531  11.119 -1.4403 -1.4694 -0.5034
 5704TIP3   OH238526   0.936   6.073  17.230  0.4077  0.1855  0.4546
 5704TIP3    H138527   0.854   6.085  17.183 -0.1709 -1.2486  1.0708
 5704TIP3    H238528   0.935   6.143  17.296 -0.8603 -0.4823  1.1770
 5705TIP3   OH238529   3.348   3.324   2.995  0.3099  0.0072  0.2518
 5705TIP3    H138530   3.361   3.361   2.908  1.4917 -1.1040 -0.0676
 5705TIP3    H238531   3.291   3.248   2.980 -0.1115  0.2623  0.5553
 5706TIP3   OH238532   2.324   3.856  11.166 -0.4222 -0.5436 -0.7097
 5706TIP3    H138533   2.363   3.816  11.088  1.8296 -0.5518  0.3996
 5706TIP3    H238534   2.336   3.791  11.235  1.0026  0.9685  0.5165
 5707TIP3   OH238535   4.785   1.059   2.214 -0.1882 -0.0180  0.5040
 5707TIP3    H138536   4.722   1.127   2.240 -1.3381 -0.7937 -0.1735
 5707TIP3    H238537   4.741   1.013   2.143  1.7444  0.3043 -0.9358
 5708TIP3   OH238538   3.640   2.012  12.916  0.2217 -0.4013  0.0048
 5708TIP3    H138539   3.716   1.955  12.914  2.0670  1.9482  0.1439
 5708TIP3    H238540   3.578   1.973  12.854  1.9954 -1.7494 -0.9420
 5709TIP3   OH238541   3.668   4.389   5.893 -0.3399  0.1947  0.0634
 5709TIP3    H138542   3.614   4.361   5.966 -1.4401 -1.0643 -1.2158
 5709TIP3    H238543   3.606   4.420   5.827  0.6406  1.4739 -0.2931
 5710TIP3   OH238544   3.650   0.902   2.043  0.3326 -0.0285 -0.5154
 5710TIP3    H138545   3.639   0.992   2.074  1.2922 -0.1713  0.2448
 5710TIP3    H238546   3.733   0.873   2.081 -0.4240 -1.5607  0.0155
 5711TIP3   OH238547   4.089   6.184   1.457 -0.3251  0.4287 -0.0605
 5711TIP3    H138548   4.048   6.245   1.518 -1.1525 -1.6186  1.5089
 5711TIP3    H238549   4.168   6.155   1.502 -1.2071 -1.4872  0.3473
 5712TIP3   OH238550   2.739   3.836  17.178  0.1166 -0.0506  0.0802
 5712TIP3    H138551   2.831   3.822  17.200  0.1428 -1.4152 -0.8599
 5712TIP3    H238552   2.691   3.786  17.244  0.0411  0.4007  0.3742
 5713TIP3   OH238553   6.752   5.440  12.499  0.1392  0.4392 -0.5821
 5713TIP3    H138554   6.847   5.433  12.509  0.0922  0.0087 -0.4023
 5713TIP3    H238555   6.723   5.350  12.484 -0.1654  0.6645 -1.3338
 5714TIP3   OH238556   0.562   6.639   4.908  0.2023 -0.7826 -0.4619
 5714TIP3    H138557   0.532   6.574   4.971  0.8966 -1.3634 -0.7269
 5714TIP3    H238558   0.654   6.617   4.893  0.9540  1.3381  0.8058
 5715TIP3   OH238559   1.755   2.552  13.131 -0.2023  0.3695  0.1220
 5715TIP3    H138560   1.815   2.487  13.166  1.3923  0.4929 -2.2415
 5715TIP3    H238561   1.734   2.520  13.043 -0.6752  2.1963 -0.4591
 5716TIP3   OH238562   5.498   2.023   4.594  0.2847  0.0828  0.4896
 5716TIP3    H138563   5.585   2.054   4.569  0.6390  0.3310  1.9871
 5716TIP3    H238564   5.497   2.029   4.690 -0.6033 -1.9821  0.6381
 5717TIP3   OH238565   1.547   1.227   1.917 -0.1982  0.5657 -0.0988
 5717TIP3    H138566   1.621   1.181   1.876 -0.7631  0.0272 -0.5171
 5717TIP3    H238567   1.584   1.311   1.945 -0.0612  1.4328 -2.7289
 5718TIP3   OH238568   1.983   0.434  15.015  0.3511  0.0626 -0.1715
 5718TIP3    H138569   1.901   0.480  15.030  0.8632  1.1994 -0.7536
 5718TIP3    H238570   2.049   0.485  15.062  1.3639  1.5293 -3.0219
 5719TIP3   OH238571   3.328   6.479   5.513  0.3444  0.2921 -0.9056
 5719TIP3    H138572   3.393   6.536   5.472  3.4174 -0.8429  2.1950
 5719TIP3    H238573   3.297   6.528   5.589  0.5979 -0.8225 -0.0729
 5720TIP3   OH238574   3.822   4.434   6.370  0.1935 -0.4256  0.7169
 5720TIP3    H138575   3.805   4.384   6.290  0.9028 -0.6471  0.7014
 5720TIP3    H238576   3.910   4.470   6.357  0.0785  0.0173  1.1481
 5721TIP3   OH238577   5.000   5.675  13.023 -0.0098 -0.4303  0.2105
 5721TIP3    H138578   4.928   5.733  13.047  0.6100  0.5088 -0.1670
 5721TIP3    H238579   4.961   5.588  13.019 -1.3984  0.2391 -1.2097
 5722TIP3   OH238580   0.118   6.049   1.361 -0.5862  0.2206  0.6572
 5722TIP3    H138581   0.066   5.982   1.404 -1.3673  1.0755  1.0684
 5722TIP3    H238582   0.168   6.090   1.433 -1.1629  1.0067  0.6152
 5723TIP3   OH238583   6.505   1.876  12.624  0.0199  0.0249  0.4128
 5723TIP3    H138584   6.542   1.792  12.650  1.2512  0.6159  0.6366
 5723TIP3    H238585   6.411   1.863  12.624  0.1287 -0.8106  2.3033
 5724TIP3   OH238586   0.042   3.883  12.165  0.8528  0.0307 -0.2183
 5724TIP3    H138587  -0.005   3.932  12.233  1.6110 -1.2652  1.2571
 5724TIP3    H238588   0.135   3.898  12.185  1.0926  0.5392 -1.6417
 5725TIP3   OH238589   0.745   0.992  13.855 -0.6107  0.1718  0.2222
 5725TIP3    H138590   0.827   1.010  13.808 -0.5037 -0.5214  0.1418
 5725TIP3    H238591   0.722   0.902  13.830 -0.9260  0.0472  0.9469
 5726TIP3   OH238592   5.762   0.754   4.588 -0.6090 -0.1811 -0.2795
 5726TIP3    H138593   5.788   0.704   4.511  0.5404 -0.2662  0.1492
 5726TIP3    H238594   5.791   0.843   4.570  0.0516 -0.2886  0.2299
 5727TIP3   OH238595   5.110   1.346   4.058  0.3292 -0.2777  0.3000
 5727TIP3    H138596   5.141   1.430   4.094 -1.9006  0.8412 -0.2670
 5727TIP3    H238597   5.025   1.332   4.101  1.1712 -2.8397  1.2193
 5728TIP3   OH238598   0.419   6.167  13.992  0.0165 -0.4879 -0.1268
 5728TIP3    H138599   0.420   6.199  14.082 -0.1678  0.9671 -0.6220
 5728TIP3    H238600   0.458   6.238  13.941  0.6148 -1.5193 -1.1307
 5729TIP3   OH238601   6.369   4.644  13.937 -0.5689  0.1043  0.0064
 5729TIP3    H138602   6.404   4.579  13.997 -0.9290 -0.2396 -0.1525
 5729TIP3    H238603   6.276   4.623  13.930 -0.3410 -0.4781 -1.4358
 5730TIP3   OH238604   6.433   0.434  15.545 -0.3752 -0.1384  0.4351
 5730TIP3    H138605   6.467   0.371  15.609  0.1378  0.7722  1.0711
 5730TIP3    H238606   6.511   0.477  15.510 -0.8370  2.2495  2.2002
 5731TIP3   OH238607   2.741   3.505  11.861 -0.0297 -0.1010  0.0932
 5731TIP3    H138608   2.736   3.410  11.875 -0.1076  0.1443  1.8576
 5731TIP3    H238609   2.651   3.532  11.846 -0.3063  0.0050  1.8551
 5732TIP3   OH238610   0.040   4.730  12.894 -0.0150  0.0585 -0.2005
 5732TIP3    H138611   0.105   4.786  12.850  0.7185  0.9381  1.9336
 5732TIP3    H238612   0.091   4.659  12.933 -0.5612 -0.3121 -0.1562
 5733TIP3   OH238613   2.786   0.399   5.774  0.6158  0.1091  0.4447
 5733TIP3    H138614   2.827   0.470   5.823 -0.4727  0.5755  0.6996
 5733TIP3    H238615   2.849   0.327   5.779  2.0349  1.2669 -0.4082
 5734TIP3   OH238616   5.907   1.664   5.116 -0.0584  0.2438 -0.0987
 5734TIP3    H138617   5.918   1.587   5.061  0.0482 -0.8868  1.4647
 5734TIP3    H238618   5.869   1.630   5.197  1.1168  1.6540  1.0706
 5735TIP3   OH238619   4.623   1.909   2.432  0.2792 -0.1326  0.1197
 5735TIP3    H138620   4.561   1.897   2.360  0.8261  1.5376 -0.6515
 5735TIP3    H238621   4.666   1.825   2.441  2.6370  0.5598 -3.7909
 5736TIP3   OH238622   4.834   4.936  13.746  1.0234  0.1226 -0.4369
 5736TIP3    H138623   4.779   4.938  13.667  0.7215  2.9741 -0.1840
 5736TIP3    H238624   4.875   4.850  13.743  0.3194 -0.1807 -3.2351
 5737TIP3   OH238625   2.713   3.871  14.658  0.1416  0.0880  0.1957
 5737TIP3    H138626   2.689   3.831  14.575  2.1375 -1.2738  0.2524
 5737TIP3    H238627   2.704   3.801  14.723 -1.0672  1.0496  1.0962
 5738TIP3   OH238628   4.212   5.716   0.273 -0.0643 -0.1281  0.0301
 5738TIP3    H138629   4.125   5.678   0.262  0.6216 -1.6584 -0.1854
 5738TIP3    H238630   4.232   5.707   0.366  0.0703 -0.2312 -0.0082
 5739TIP3   OH238631   0.921   5.342   0.149  0.1968  0.0305  0.0136
 5739TIP3    H138632   0.830   5.311   0.155  0.5207 -0.8739  0.2406
 5739TIP3    H238633   0.955   5.299   0.071 -0.7795  3.5081 -2.4735
 5740TIP3   OH238634   1.075   3.815   3.837  0.1323  0.3723  0.6121
 5740TIP3    H138635   1.148   3.773   3.790 -1.6808 -1.8855 -0.3270
 5740TIP3    H238636   1.095   3.801   3.930  0.9012 -0.2468  0.3606
 5741TIP3   OH238637   3.750   3.685  16.023  0.1603 -0.5167 -0.5942
 5741TIP3    H138638   3.716   3.595  16.027 -0.2079 -0.4062 -1.1609
 5741TIP3    H238639   3.843   3.675  16.004  0.4580 -0.8261  0.9379
 5742TIP3   OH238640   1.745   3.854  13.830  0.3344 -0.3584  0.6123
 5742TIP3    H138641   1.826   3.875  13.783 -0.5358  3.6992  0.7604
 5742TIP3    H238642   1.685   3.925  13.806 -2.4306 -2.0825  2.2942
 5743TIP3   OH238643   0.863   4.945   4.224  0.2872 -0.4550  0.2859
 5743TIP3    H138644   0.790   4.996   4.189  0.3169  0.0004  0.8780
 5743TIP3    H238645   0.824   4.893   4.295  0.2811 -1.1653 -0.2277
 5744TIP3   OH238646   4.699   2.518  14.585 -0.1098 -0.1174 -0.0215
 5744TIP3    H138647   4.774   2.497  14.528  1.2388  1.6725  1.0398
 5744TIP3    H238648   4.715   2.468  14.664 -0.6455 -0.6320 -0.2407
 5745TIP3   OH238649   1.501   0.533  16.087 -0.6141  0.5574  0.3275
 5745TIP3    H138650   1.522   0.606  16.146  2.3332 -0.4849  0.6820
 5745TIP3    H238651   1.496   0.457  16.145  2.2403 -0.4708 -0.6814
 5746TIP3   OH238652   3.764   3.435  13.699 -0.1506 -0.4034 -0.1717
 5746TIP3    H138653   3.698   3.469  13.638  0.5988  3.2600  0.9637
 5746TIP3    H238654   3.847   3.443  13.652 -0.0093 -1.1233 -0.0537
 5747TIP3   OH238655   4.049   2.049   2.564 -0.0469 -0.6095  0.4143
 5747TIP3    H138656   4.038   1.956   2.541 -0.1057 -0.1720 -1.4316
 5747TIP3    H238657   4.131   2.074   2.522 -0.7680  0.5310 -0.3502
 5748TIP3   OH238658   6.564   0.795   5.552  0.1172  0.1787 -0.2494
 5748TIP3    H138659   6.577   0.880   5.510 -0.4116  0.2672 -0.2382
 5748TIP3    H238660   6.590   0.808   5.643  0.1799  0.2847 -0.2820
 5749TIP3   OH238661   4.991   1.706  16.853 -0.7152 -0.1919  0.1406
 5749TIP3    H138662   4.903   1.700  16.889 -0.6483  0.1245  0.3578
 5749TIP3    H238663   5.017   1.797  16.866 -0.5124 -0.1840 -0.2931
 5750TIP3   OH238664   6.064   1.553  12.442 -0.2877  0.0876 -0.3982
 5750TIP3    H138665   6.019   1.555  12.527  2.2747 -0.0008  1.0116
 5750TIP3    H238666   6.027   1.627  12.394 -0.5443  1.2350  1.4766
 5751TIP3   OH238667   3.215   1.958  12.801 -0.0411 -0.2350 -0.0315
 5751TIP3    H138668   3.150   2.024  12.824  0.9811  0.9249 -0.4365
 5751TIP3    H238669   3.202   1.888  12.865  0.2158  1.2572  1.6958
 5752TIP3   OH238670   3.459   1.857   4.949  0.3185 -0.4872 -0.1028
 5752TIP3    H138671   3.406   1.851   4.870  0.4590  1.4232 -0.3688
 5752TIP3    H238672   3.409   1.809   5.015 -1.2826  0.4598 -0.6008
 5753TIP3   OH238673   2.355   1.669  15.371  0.0900  0.6521 -0.3145
 5753TIP3    H138674   2.444   1.690  15.398  0.4101  1.3247 -1.8278
 5753TIP3    H238675   2.362   1.645  15.279 -1.5251  2.3559 -0.9190
 5754TIP3   OH238676   5.464   1.350   4.401  0.2181 -0.0824 -0.4403
 5754TIP3    H138677   5.443   1.338   4.309 -1.0867  0.7237 -0.2738
 5754TIP3    H238678   5.388   1.315   4.448  1.1715 -1.1272  0.3559
 5755TIP3   OH238679   4.968   3.047   4.819 -0.0300 -0.1246  0.1322
 5755TIP3    H138680   4.934   3.104   4.750 -1.4367  1.5539  2.1581
 5755TIP3    H238681   5.004   3.107   4.885 -1.9921 -1.5012  2.5446
 5756TIP3   OH238682   0.582   1.492   3.514  0.1286 -0.3000 -0.3296
 5756TIP3    H138683   0.492   1.482   3.485 -0.2068 -0.1957  0.6657
 5756TIP3    H238684   0.608   1.405   3.545  0.0451 -0.1006  0.3020
 5757TIP3   OH238685   2.891   0.828   5.489 -0.1649 -0.2177 -0.0973
 5757TIP3    H138686   2.895   0.887   5.564  1.6320 -0.5859  0.1235
 5757TIP3    H238687   2.848   0.750   5.522 -0.6535  0.1674  0.1768
 5758TIP3   OH238688   5.961   0.134   3.156  0.6641 -0.0552 -0.4345
 5758TIP3    H138689   5.967   0.223   3.191  0.4802 -0.9896  2.0261
 5758TIP3    H238690   5.913   0.144   3.073  0.5982  2.1154 -0.1612
 5759TIP3   OH238691   4.605   2.890  17.029 -0.0605  0.1217 -0.5936
 5759TIP3    H138692   4.600   2.806  16.984  0.3300  0.2866 -0.9553
 5759TIP3    H238693   4.682   2.882  17.086  0.8314  0.7292 -1.6881
 5760TIP3   OH238694   5.415   1.250  15.709  0.5287  0.2139  0.0957
 5760TIP3    H138695   5.323   1.278  15.706  0.5578  0.5298  1.5683
 5760TIP3    H238696   5.414   1.160  15.678 -0.1043  0.5943 -1.0290
 5761TIP3   OH238697   4.257   1.826   2.009  0.3418  0.2697 -0.0425
 5761TIP3    H138698   4.266   1.761   2.078  2.8798 -0.1081 -0.6863
 5761TIP3    H238699   4.214   1.900   2.052  0.0286 -0.7275  1.4074
 5762TIP3   OH238700   4.524   5.631  15.807  0.0914  0.3937  0.5609
 5762TIP3    H138701   4.447   5.596  15.761 -0.2059 -0.0084  1.3572
 5762TIP3    H238702   4.546   5.564  15.872  1.5408  0.2006 -0.1128
 5763TIP3   OH238703   1.867   3.156  14.362 -0.3901  0.0562  0.5928
 5763TIP3    H138704   1.797   3.194  14.415  1.3649  0.9123  2.3334
 5763TIP3    H238705   1.848   3.062  14.362 -2.2751  0.4240 -0.0658
 5764TIP3   OH238706   5.779   1.979   2.014 -0.2693  0.0283 -0.4303
 5764TIP3    H138707   5.789   1.974   2.109  1.0025 -1.3596 -0.6198
 5764TIP3    H238708   5.715   1.912   1.993 -0.0281 -0.1449 -0.6193
 5765TIP3   OH238709   3.804   0.503  11.806  0.8934  0.2462  0.3556
 5765TIP3    H138710   3.801   0.410  11.783  1.6868  0.1543  0.6112
 5765TIP3    H238711   3.718   0.537  11.780  1.0593 -0.2774 -0.9007
 5766TIP3   OH238712   4.649   2.950  16.335 -0.0676 -0.1959 -0.9983
 5766TIP3    H138713   4.667   3.029  16.385 -1.9403 -0.2986 -0.1089
 5766TIP3    H238714   4.562   2.965  16.296 -1.2621 -2.4825  0.6277
 5767TIP3   OH238715   1.637   2.402  16.158  0.3431 -0.0316 -0.5807
 5767TIP3    H138716   1.725   2.372  16.183  0.2006 -0.5381 -0.6867
 5767TIP3    H238717   1.645   2.423  16.064  1.0332  2.4316 -0.0184
 5768TIP3   OH238718   6.227   6.259   3.476 -0.5114  0.2545 -0.2055
 5768TIP3    H138719   6.241   6.169   3.507  1.6744  0.4526 -0.5242
 5768TIP3    H238720   6.269   6.313   3.543  1.7746  0.8130 -2.0178
 5769TIP3   OH238721   3.802   1.300   6.176 -0.0536  0.0926  0.2305
 5769TIP3    H138722   3.856   1.230   6.138  0.1679  0.4310 -0.0912
 5769TIP3    H238723   3.754   1.258   6.247 -0.2229 -0.4779 -0.2137
 5770TIP3   OH238724   0.792   5.819  15.413  0.2213 -0.1551 -0.5208
 5770TIP3    H138725   0.821   5.768  15.338 -0.2194 -1.2879  0.0615
 5770TIP3    H238726   0.851   5.794  15.484  2.1883  2.7035 -1.0396
 5771TIP3   OH238727   3.423   6.618  15.639 -0.6059 -0.2180 -0.0127
 5771TIP3    H138728   3.498   6.567  15.669 -0.8605 -0.7333 -0.2383
 5771TIP3    H238729   3.460   6.702  15.613 -0.1985 -0.2445  0.4728
 5772TIP3   OH238730   2.812   0.233  16.633 -0.2214  0.4161 -0.0557
 5772TIP3    H138731   2.837   0.272  16.717  0.4248  1.0614 -0.5381
 5772TIP3    H238732   2.785   0.144  16.655 -0.5006  0.7275  0.8942
 5773TIP3   OH238733   3.728   1.885  13.829  0.4182 -0.4529  0.5819
 5773TIP3    H138734   3.753   1.795  13.805  1.5222 -0.0286  0.1246
 5773TIP3    H238735   3.768   1.940  13.762 -1.1764  0.3114  0.2349
 5774TIP3   OH238736   2.943   0.194  12.371  0.0852  0.4860  0.3373
 5774TIP3    H138737   2.895   0.157  12.297  0.5619  0.1279  0.2083
 5774TIP3    H238738   2.921   0.137  12.444  0.1436  0.4516  0.3276
 5775TIP3   OH238739   2.130   6.674  13.280 -0.6517  0.1799 -0.2823
 5775TIP3    H138740   2.206   6.702  13.229 -0.6944 -1.6009 -1.3807
 5775TIP3    H238741   2.067   6.746  13.271  0.5303  1.2567 -0.1341
 5776TIP3   OH238742   5.540   0.081  12.190 -0.3215  0.1194  0.1686
 5776TIP3    H138743   5.616   0.086  12.133  0.0393  1.8481  0.7774
 5776TIP3    H238744   5.550   0.154  12.251 -4.0945  2.4340 -1.7803
 5777TIP3   OH238745   1.493   2.623   6.032  0.3629  0.3707 -0.4294
 5777TIP3    H138746   1.485   2.595   6.123 -0.7622  0.1550 -0.5804
 5777TIP3    H238747   1.572   2.677   6.030  0.5125  0.2038  0.6293
 5778TIP3   OH238748   5.483   3.926  14.832 -0.2608 -0.1051 -0.0070
 5778TIP3    H138749   5.437   3.915  14.748  1.8847 -0.9363 -1.1173
 5778TIP3    H238750   5.492   4.021  14.842  0.0062 -0.0229 -1.0084
 5779TIP3   OH238751   1.422   2.920   5.317 -0.0470  0.5355 -0.2100
 5779TIP3    H138752   1.483   2.990   5.296 -0.5930  0.4952 -2.0321
 5779TIP3    H238753   1.392   2.888   5.232 -2.4475  0.4199  0.6355
 5780TIP3   OH238754   6.279   3.411  15.919  0.3899  0.2502  0.4824
 5780TIP3    H138755   6.267   3.338  15.980 -0.5743  0.2899  0.3389
 5780TIP3    H238756   6.198   3.415  15.869  0.8309  0.7828 -0.2085
 5781TIP3   OH238757   3.434   1.849   1.393  0.8457 -0.4300 -0.1864
 5781TIP3    H138758   3.369   1.780   1.384  1.3241 -0.9438  0.2538
 5781TIP3    H238759   3.383   1.930   1.398  0.2714 -0.7749 -0.3986
 5782TIP3   OH238760   5.969   1.894   3.343  0.0647 -0.6404 -0.6274
 5782TIP3    H138761   5.877   1.868   3.334  0.2487 -1.5173 -0.0574
 5782TIP3    H238762   6.013   1.816   3.377  1.0318 -0.2414 -0.9411
 5783TIP3   OH238763   4.473   2.418  10.659  0.5422 -0.1848 -0.0819
 5783TIP3    H138764   4.440   2.452  10.575 -0.2874 -2.0742 -0.5525
 5783TIP3    H238765   4.397   2.421  10.717  0.5861 -0.7259  0.0112
 5784TIP3   OH238766   1.635   1.052  11.813 -0.2446  0.7777  0.1105
 5784TIP3    H138767   1.541   1.038  11.805 -0.2772  1.5475 -0.9944
 5784TIP3    H238768   1.675   0.978  11.768 -0.3286  0.7131  0.1438
 5785TIP3   OH238769   1.951   6.364  12.087 -0.0309  0.0610 -0.3256
 5785TIP3    H138770   1.915   6.294  12.033  0.0063 -0.3713  0.2077
 5785TIP3    H238771   1.964   6.437  12.027 -3.3129  0.7734 -0.2858
 5786TIP3   OH238772   4.606   1.442  14.235 -0.0994  0.0814 -0.0990
 5786TIP3    H138773   4.515   1.447  14.261  0.1714 -0.9754  1.0770
 5786TIP3    H238774   4.646   1.382  14.298  1.6124  1.2767 -0.0161
 5787TIP3   OH238775   2.763   5.926   2.040 -0.1178  0.5504  0.0060
 5787TIP3    H138776   2.717   5.879   1.970  0.6862 -0.7813  0.3497
 5787TIP3    H238777   2.855   5.925   2.013  0.0828  0.7837  0.6719
 5788TIP3   OH238778   3.261   4.743   0.186  0.4626 -0.2268  0.1698
 5788TIP3    H138779   3.312   4.757   0.107  0.4800  0.1687  0.2475
 5788TIP3    H238780   3.181   4.700   0.157 -0.4907  1.8362 -0.3604
 5789TIP3   OH238781   6.598   4.040   2.520 -0.3509  0.0274 -0.5835
 5789TIP3    H138782   6.601   4.096   2.443 -0.7827  1.1451  0.2028
 5789TIP3    H238783   6.688   4.006   2.529  0.2479  1.6624 -0.2788
 5790TIP3   OH238784   4.890   3.393   2.219 -0.3521  0.2656  0.0746
 5790TIP3    H138785   4.970   3.439   2.192  0.3775 -0.4231  1.0413
 5790TIP3    H238786   4.830   3.464   2.244 -0.3107  0.8158 -1.3621
 5791TIP3   OH238787   0.986   2.362   6.755 -0.3839  0.3596  0.1268
 5791TIP3    H138788   1.048   2.429   6.727 -0.6790  0.2194 -0.8736
 5791TIP3    H238789   0.978   2.304   6.679  1.1994 -1.7923  1.5142
 5792TIP3   OH238790   6.224   3.653   5.071 -0.0989 -0.8654 -0.5661
 5792TIP3    H138791   6.204   3.657   5.164 -2.1968  1.3738 -1.0695
 5792TIP3    H238792   6.316   3.626   5.068 -0.2401 -1.8360  2.0962
 5793TIP3   OH238793   0.569   0.524  12.395  0.6358 -0.5600 -0.3812
 5793TIP3    H138794   0.505   0.530  12.324 -1.5790  0.5241  1.6180
 5793TIP3    H238795   0.651   0.502  12.352 -0.7990 -0.6380 -3.1878
 5794TIP3   OH238796   0.913   2.409   5.733 -0.2532 -0.1013  0.3669
 5794TIP3    H138797   0.981   2.341   5.728  0.7617  1.0114 -1.6530
 5794TIP3    H238798   0.948   2.482   5.683 -2.6307  0.7861 -0.0926
 5795TIP3   OH238799   6.731   1.387   0.741  0.2102 -0.2530  0.0640
 5795TIP3    H138800   6.727   1.457   0.806 -1.3333  0.3812 -0.6827
 5795TIP3    H238801   6.764   1.312   0.789 -1.1000  0.1535  1.6601
 5796TIP3   OH238802   2.383   6.779   5.951  0.0633  0.4645 -0.0693
 5796TIP3    H138803   2.353   6.735   6.031  0.3682  1.4324  0.5895
 5796TIP3    H238804   2.365   6.872   5.967  4.6928  1.3087  0.9890
 5797TIP3   OH238805   4.650   3.552   3.083  0.6545 -0.0682 -0.1963
 5797TIP3    H138806   4.684   3.627   3.132 -1.4199  0.9861 -0.3446
 5797TIP3    H238807   4.633   3.486   3.150 -1.6727  1.1797  0.5016
 5798TIP3   OH238808   1.137   1.124  11.225 -0.7228 -0.1409  0.1958
 5798TIP3    H138809   1.044   1.129  11.246 -0.9541  0.6592 -0.9289
 5798TIP3    H238810   1.180   1.103  11.307 -1.7246  1.3824  1.1442
 5799TIP3   OH238811   0.383   2.298  13.917 -0.1601  0.2523  0.2256
 5799TIP3    H138812   0.356   2.309  14.008 -1.4636  0.6484 -0.1904
 5799TIP3    H238813   0.444   2.370  13.902  0.9265 -0.4598  1.0858
 5800TIP3   OH238814   5.433   6.716   2.106  0.6562  0.9573  0.3508
 5800TIP3    H138815   5.503   6.775   2.080 -0.0975  0.4958 -2.8701
 5800TIP3    H238816   5.353   6.759   2.076  0.0199 -1.1539 -1.0458
 5801TIP3   OH238817   5.593   4.728   3.003 -0.4403  0.7512 -0.2761
 5801TIP3    H138818   5.604   4.643   2.961 -2.0259  0.0120  0.7623
 5801TIP3    H238819   5.537   4.778   2.944  1.6822  1.6254 -1.6022
 5802TIP3   OH238820   4.849   2.000   1.654 -0.1170 -0.1726 -0.3882
 5802TIP3    H138821   4.756   1.982   1.640 -0.3546 -0.3728  1.2974
 5802TIP3    H238822   4.890   1.978   1.571 -1.2170 -2.8647 -0.2846
 5803TIP3   OH238823   0.774   2.659   6.023  0.6187 -0.2729  0.0553
 5803TIP3    H138824   0.792   2.702   6.107  0.0134 -1.5590  0.8554
 5803TIP3    H238825   0.680   2.671   6.010  0.5958 -0.6376 -0.1225
 5804TIP3   OH238826   5.427   1.604   1.892 -0.6456 -0.2251 -0.4058
 5804TIP3    H138827   5.418   1.610   1.987 -0.1971  0.1985 -0.3856
 5804TIP3    H238828   5.366   1.670   1.859  0.7600  1.1533 -0.3355
 5805TIP3   OH238829   0.086   5.461  16.213  0.1636 -0.1691  0.0915
 5805TIP3    H138830   0.061   5.551  16.232  0.4301 -0.4639  1.9282
 5805TIP3    H238831   0.015   5.428  16.157 -0.3998  0.8882  0.1622
 5806TIP3   OH238832   2.819   3.332   0.825 -0.0069 -0.1066 -0.3586
 5806TIP3    H138833   2.776   3.272   0.886 -1.0432  2.0094  1.0611
 5806TIP3    H238834   2.747   3.372   0.776  0.3644  2.3306  0.9723
 5807TIP3   OH238835   4.405   5.318   5.843  0.6477 -0.3587  0.0193
 5807TIP3    H138836   4.433   5.348   5.756 -0.3415  0.8134  0.0939
 5807TIP3    H238837   4.482   5.274   5.879  1.1397 -0.6701 -1.3647
 5808TIP3   OH238838   1.984   5.296  14.614 -0.5420 -0.0072 -1.2574
 5808TIP3    H138839   1.905   5.268  14.659 -0.3294  2.3642  0.6754
 5808TIP3    H238840   1.954   5.329  14.530 -1.7590  1.8610 -0.1162
 5809TIP3   OH238841   0.086   0.823   3.241 -0.4531 -0.1542  0.4425
 5809TIP3    H138842   0.072   0.910   3.280  0.3399 -0.7786  2.2006
 5809TIP3    H238843   0.075   0.762   3.315 -0.7889 -1.5292 -0.7253
 5810TIP3   OH238844   5.521   1.328   4.952  0.1795  0.5805  0.2663
 5810TIP3    H138845   5.483   1.268   5.016  0.0225  0.4283  0.0307
 5810TIP3    H238846   5.537   1.408   5.001 -1.8169  1.1489  0.0223
 5811TIP3   OH238847   1.239   5.074  12.850  0.3130 -0.2072  0.3209
 5811TIP3    H138848   1.179   5.020  12.902  0.2349  0.5450  1.0278
 5811TIP3    H238849   1.184   5.146  12.817  0.2060 -1.0503 -1.3899
 5812TIP3   OH238850   1.209   1.303  13.116  0.1641  0.1490 -0.4110
 5812TIP3    H138851   1.160   1.375  13.077 -0.2935 -2.1485 -4.3239
 5812TIP3    H238852   1.300   1.319  13.090  0.3213  0.1715  0.1339
 5813TIP3   OH238853   4.270   1.042  12.149 -0.0871  0.1971 -0.5919
 5813TIP3    H138854   4.291   0.962  12.199 -1.0603  0.0587 -0.4057
 5813TIP3    H238855   4.179   1.031  12.122  0.0045  0.9115 -1.2080
 5814TIP3   OH238856   0.565   4.862   5.179 -0.4960  0.3897  0.4867
 5814TIP3    H138857   0.607   4.923   5.241  0.9802 -1.1852  1.0655
 5814TIP3    H238858   0.479   4.847   5.216 -0.0093  0.3057  1.6112
 5815TIP3   OH238859   4.355   4.881   4.119 -0.3827 -0.0442  0.5718
 5815TIP3    H138860   4.389   4.971   4.119 -0.9955  0.1946  2.3977
 5815TIP3    H238861   4.425   4.829   4.079  0.7335  0.9668  1.1759
 5816TIP3   OH238862   0.673   5.544   6.153  0.1801  0.4450  0.2302
 5816TIP3    H138863   0.587   5.515   6.184 -0.1615  2.4655  1.2500
 5816TIP3    H238864   0.700   5.611   6.216  2.7988 -0.6009  0.2880
 5817TIP3   OH238865   1.748   6.148  14.470 -0.2087  0.0096 -0.0969
 5817TIP3    H138866   1.826   6.156  14.416  0.0078 -1.1116  0.0478
 5817TIP3    H238867   1.686   6.098  14.417 -0.8218  0.8379 -0.1866
 5818TIP3   OH238868   2.170   5.626  12.437 -0.3499 -0.3554  0.1966
 5818TIP3    H138869   2.079   5.609  12.412 -0.4593  0.8629 -0.2997
 5818TIP3    H238870   2.163   5.666  12.524 -0.3273  0.2824 -0.0960
 5819TIP3   OH238871   0.395   2.171   5.327  0.4715  0.4361  0.5366
 5819TIP3    H138872   0.464   2.142   5.267 -0.9973  0.4906 -1.2105
 5819TIP3    H238873   0.418   2.261   5.347 -0.0170  1.0191 -1.4308
 5820TIP3   OH238874   1.007   4.852  15.820  0.2732  0.3528 -0.1685
 5820TIP3    H138875   1.035   4.814  15.904  1.8653 -0.6771 -1.1438
 5820TIP3    H238876   0.911   4.847  15.823  0.1711  2.5525  2.6063
 5821TIP3   OH238877   2.134   5.601   6.444 -0.0265  0.3514  0.5236
 5821TIP3    H138878   2.205   5.545   6.412 -0.2365  1.1421 -1.4111
 5821TIP3    H238879   2.109   5.562   6.527  2.5682 -0.0306  1.1834
 5822TIP3   OH238880   6.097   5.837   2.781 -0.7857  0.6899  0.2153
 5822TIP3    H138881   6.131   5.926   2.791  0.0899  0.2644  1.0577
 5822TIP3    H238882   6.002   5.846   2.791 -0.6202  1.3997  1.2033
 5823TIP3   OH238883   3.746   2.791  15.779  0.1495 -0.3568  0.4762
 5823TIP3    H138884   3.683   2.721  15.760 -0.2805  0.1622 -0.0004
 5823TIP3    H238885   3.830   2.745  15.787 -0.1738 -0.9632  0.4525
 5824TIP3   OH238886   4.227   1.051   3.586 -0.1626  0.4630  0.2489
 5824TIP3    H138887   4.195   1.033   3.675 -1.0808  0.4183 -0.0845
 5824TIP3    H238888   4.156   1.021   3.529  0.3462  0.6713 -0.4916
 5825TIP3   OH238889   3.683   4.998  11.377 -0.0818  0.4200  0.1669
 5825TIP3    H138890   3.691   5.089  11.405  4.2672 -0.5718  2.7856
 5825TIP3    H238891   3.718   4.997  11.288 -0.0128  1.2947  0.1814
 5826TIP3   OH238892   2.651   3.427   3.231 -0.7468  0.2182  0.0612
 5826TIP3    H138893   2.561   3.394   3.240 -0.4534 -0.3042  1.1652
 5826TIP3    H238894   2.697   3.360   3.181 -0.5743 -0.2502  0.8514
 5827TIP3   OH238895   1.630   1.853  15.167 -0.2476 -0.4522  0.4525
 5827TIP3    H138896   1.594   1.898  15.090 -0.6603 -0.8145  0.4297
 5827TIP3    H238897   1.664   1.771  15.133 -0.4276 -0.6117  0.6536
 5828TIP3   OH238898   2.733   4.380   1.196 -0.4471 -1.0641  0.8733
 5828TIP3    H138899   2.809   4.339   1.155  0.0663  2.5824 -2.0495
 5828TIP3    H238900   2.768   4.458   1.238 -2.5812  0.8702 -0.8415
 5829TIP3   OH238901   2.164   1.029  16.935 -0.2968 -0.4749  0.1702
 5829TIP3    H138902   2.253   1.033  16.969  0.5581  0.4827 -2.0623
 5829TIP3    H238903   2.108   1.035  17.012  1.5568 -0.3907  1.5382
 5830TIP3   OH238904   5.272   6.738  14.797  0.0634 -0.0419  0.2285
 5830TIP3    H138905   5.297   6.796  14.725 -1.4436 -0.2746 -0.5024
 5830TIP3    H238906   5.180   6.759  14.813 -0.5312 -2.2933 -0.1259
 5831TIP3   OH238907   4.047   0.424  16.031  0.6119  0.2753 -0.3960
 5831TIP3    H138908   4.054   0.342  16.079  0.0219 -0.5964 -1.7519
 5831TIP3    H238909   4.079   0.491  16.092  0.6685 -0.8951  0.8818
 5832TIP3   OH238910   2.578   5.896  15.737  0.2681  0.3197  0.3258
 5832TIP3    H138911   2.531   5.972  15.770 -0.3863 -0.1737  0.5301
 5832TIP3    H238912   2.520   5.822  15.755  1.3510 -0.3603  1.0669
 5833TIP3   OH238913   4.918   2.852  11.178 -0.1155 -0.6668 -0.1329
 5833TIP3    H138914   4.851   2.833  11.112  0.1353 -1.8719 -0.0532
 5833TIP3    H238915   4.874   2.906  11.243 -0.4201  0.3713 -1.1790
 5834TIP3   OH238916   6.140   5.070  15.376 -0.7109  0.1945  0.3170
 5834TIP3    H138917   6.227   5.035  15.395 -0.5857 -0.1031 -0.7495
 5834TIP3    H238918   6.081   4.995  15.387 -0.4331 -0.4216 -2.0412
 5835TIP3   OH238919   5.734   5.160   4.320  0.2366  0.0413  0.3385
 5835TIP3    H138920   5.752   5.137   4.411  0.0355  0.9374  0.6080
 5835TIP3    H238921   5.820   5.154   4.277  0.0776 -1.8637  0.2457
 5836TIP3   OH238922   3.918   4.706   2.064 -0.0707  0.4168 -0.0341
 5836TIP3    H138923   4.001   4.750   2.046  0.4909 -0.2069  1.0379
 5836TIP3    H238924   3.865   4.723   1.986  2.0706 -1.6536 -2.0191
 5837TIP3   OH238925   5.012   4.017   5.796 -0.2698  0.1107 -0.3446
 5837TIP3    H138926   4.982   4.099   5.836  2.0205  0.5854  0.4401
 5837TIP3    H238927   5.085   3.989   5.851 -2.2629 -3.5298  0.5857
 5838TIP3   OH238928   1.854   6.133  14.165 -0.0171  0.1153 -0.0187
 5838TIP3    H138929   1.906   6.169  14.093 -0.6621 -1.6883 -1.4184
 5838TIP3    H238930   1.897   6.051  14.187 -2.3222 -1.4924 -1.3134
 5839TIP3   OH238931   2.454   1.004  16.441  0.5196  0.1657  0.6968
 5839TIP3    H138932   2.468   1.082  16.495  0.6376  0.6508 -0.0239
 5839TIP3    H238933   2.387   1.031  16.378  1.7961  0.2357 -0.6581
 5840TIP3   OH238934   1.859   5.817   3.875 -0.6436 -0.1826 -0.3294
 5840TIP3    H138935   1.788   5.771   3.918 -1.4989  1.2347 -0.1657
 5840TIP3    H238936   1.937   5.767   3.895 -0.8722  0.8871  3.5952
 5841TIP3   OH238937   6.557   6.583   2.036 -0.6033 -0.3304  0.5687
 5841TIP3    H138938   6.520   6.496   2.018 -0.7343  0.0887 -1.2508
 5841TIP3    H238939   6.639   6.564   2.082 -0.4950 -1.4468 -0.0390
 5842TIP3   OH238940   2.476   1.312   5.666 -0.0026 -0.6697  0.2523
 5842TIP3    H138941   2.537   1.268   5.726  0.1603 -0.5188  0.1986
 5842TIP3    H238942   2.430   1.241   5.622 -0.3714 -0.7829  0.8098
 5843TIP3   OH238943   3.157   6.355   2.871  0.1447  0.6690 -0.4521
 5843TIP3    H138944   3.192   6.270   2.898  1.2648  1.5918  1.0739
 5843TIP3    H238945   3.233   6.405   2.841 -0.3656  1.4618 -0.4472
 5844TIP3   OH238946   5.766   1.189   1.485 -0.5022  0.3814 -0.9371
 5844TIP3    H138947   5.697   1.153   1.430 -1.2973  0.1611  0.1843
 5844TIP3    H238948   5.824   1.236   1.424 -0.7173 -0.8308 -2.0965
 5845TIP3   OH238949   1.174   3.222   4.477 -0.0796 -0.0498 -0.3417
 5845TIP3    H138950   1.200   3.174   4.398 -0.2787  1.0250 -1.0794
 5845TIP3    H238951   1.091   3.264   4.453 -0.2041  0.1806  0.4791
 5846TIP3   OH238952   2.425   0.635   1.100  0.5976 -0.2188 -0.6706
 5846TIP3    H138953   2.362   0.564   1.109  0.1144  0.4601  1.5830
 5846TIP3    H238954   2.484   0.625   1.175  0.4779  1.7544 -0.2695
 5847TIP3   OH238955   2.717   1.394  15.610  0.8585  0.2863 -0.0679
 5847TIP3    H138956   2.747   1.473  15.566  1.1858 -0.4908 -1.2766
 5847TIP3    H238957   2.666   1.425  15.685 -0.3106  1.6663 -1.4004
 5848TIP3   OH238958   6.530   6.700   6.194 -0.1393 -0.2631  0.2737
 5848TIP3    H138959   6.479   6.627   6.158 -2.6928  2.0424 -0.9735
 5848TIP3    H238960   6.503   6.705   6.285 -1.2389  0.1426 -0.0612
 5849TIP3   OH238961   5.621   2.117  13.836  0.5459  0.3205  0.0973
 5849TIP3    H138962   5.705   2.095  13.875  0.0390 -0.4178  0.7940
 5849TIP3    H238963   5.557   2.071  13.891 -0.4361  2.4251  0.7759
 5850TIP3   OH238964   0.732   4.088  14.872 -0.1063 -0.4219 -0.3252
 5850TIP3    H138965   0.760   4.005  14.832  0.1686 -0.5393  0.0987
 5850TIP3    H238966   0.803   4.149  14.852 -0.5439 -0.1545 -1.0648
 5851TIP3   OH238967   6.395   6.611   4.920  0.0480 -0.0261  0.2034
 5851TIP3    H138968   6.375   6.705   4.918 -0.7333 -0.1536  1.5609
 5851TIP3    H238969   6.447   6.596   4.841  0.0441  1.5192 -0.1074
 5852TIP3   OH238970   5.150   3.716  15.230  0.2211 -0.3646  0.1314
 5852TIP3    H138971   5.216   3.730  15.163 -0.7244  0.0428 -0.7275
 5852TIP3    H238972   5.167   3.785  15.295  0.7308 -0.3568 -0.0105
 5853TIP3   OH238973   2.856   3.525  17.029  0.1527  0.1021  0.5577
 5853TIP3    H138974   2.936   3.481  17.057  0.1580  0.0255  0.4215
 5853TIP3    H238975   2.886   3.600  16.978  0.1242 -0.1378  0.1949
 5854TIP3   OH238976   1.557   5.711  12.123  0.1913  0.2628  0.2403
 5854TIP3    H138977   1.642   5.745  12.095  0.4379  1.1437  1.9716
 5854TIP3    H238978   1.545   5.631  12.072  1.5258  0.7498 -0.8651
 5855TIP3   OH238979   2.025   3.439  12.683  0.2368 -0.4736  0.3425
 5855TIP3    H138980   2.081   3.516  12.676  0.4041 -0.7199 -1.2832
 5855TIP3    H238981   1.984   3.431  12.597 -1.5452 -0.8772  1.2011
 5856TIP3   OH238982   4.772   6.493   6.071 -0.6262 -0.1776  0.9522
 5856TIP3    H138983   4.719   6.465   6.145  0.9405  0.1499  2.2368
 5856TIP3    H238984   4.862   6.480   6.101  0.0273  0.8960 -0.5342
 5857TIP3   OH238985   4.013   1.445  15.203  0.4505 -0.1292  0.4449
 5857TIP3    H138986   3.985   1.396  15.125 -0.5189  2.3737 -0.8222
 5857TIP3    H238987   3.975   1.397  15.276 -0.5849 -1.1952 -0.7555
 5858TIP3   OH238988   4.998   4.262  16.310  0.1004  0.2636 -0.1702
 5858TIP3    H138989   5.003   4.242  16.217  0.7688 -2.8325  0.4528
 5858TIP3    H238990   4.939   4.196  16.346  2.1948 -0.4972  2.0324
 5859TIP3   OH238991   1.393   3.289  15.442  0.3543 -0.1955 -0.3817
 5859TIP3    H138992   1.440   3.213  15.476  3.8224  1.7096 -0.7775
 5859TIP3    H238993   1.440   3.365  15.477 -1.1997  1.8072 -2.4561
 5860TIP3   OH238994   3.035   0.819  13.976 -0.0042  0.1348 -0.1198
 5860TIP3    H138995   3.019   0.824  14.070 -1.3956 -0.8950 -0.2965
 5860TIP3    H238996   2.949   0.824  13.936  0.7789  4.1997 -1.5393
 5861TIP3   OH238997   1.845   1.175   4.542 -0.5595  0.3714 -0.1555
 5861TIP3    H138998   1.840   1.268   4.564 -0.1603  0.7250 -1.5192
 5861TIP3    H238999   1.764   1.157   4.494  0.2982  0.5227 -1.7032
 5862TIP3   OH239000   4.511   6.215   1.576  0.1810 -0.4870  0.1530
 5862TIP3    H139001   4.466   6.147   1.626  2.8488 -2.1055  0.4150
 5862TIP3    H239002   4.573   6.168   1.521  1.8596  1.7147  0.0915
 5863TIP3   OH239003   2.213   1.654  15.625  0.2437  0.3642  0.3129
 5863TIP3    H139004   2.278   1.662  15.556  0.2407  1.6917  0.4550
 5863TIP3    H239005   2.207   1.742  15.663 -2.4630  0.5611 -0.4756
 5864TIP3   OH239006   2.477   4.906   2.361  0.4949  0.0443  0.2289
 5864TIP3    H139007   2.542   4.861   2.306  0.0677  0.6321 -0.7821
 5864TIP3    H239008   2.524   4.929   2.441  0.9003 -1.5991  0.4718
 5865TIP3   OH239009   0.452   5.219  13.911  0.3942 -0.0907 -1.0714
 5865TIP3    H139010   0.504   5.182  13.983 -0.6874 -0.4191 -0.4474
 5865TIP3    H239011   0.457   5.314  13.924  1.5011 -0.0839 -1.4915
 5866TIP3   OH239012   4.131   6.609   2.758  0.5354  0.5523  0.1284
 5866TIP3    H139013   4.185   6.682   2.727 -0.0713  0.2101 -1.7977
 5866TIP3    H239014   4.166   6.589   2.845  2.8620  1.0084 -0.6521
 5867TIP3   OH239015   1.650   4.884   5.240  0.6801  0.7236 -0.1430
 5867TIP3    H139016   1.727   4.828   5.231  2.0060  2.1722  1.8181
 5867TIP3    H239017   1.583   4.828   5.277  1.2623 -0.1490 -0.3891
 5868TIP3   OH239018   2.681   2.059  16.498  0.6268 -0.1264  0.4059
 5868TIP3    H139019   2.765   2.104  16.511  0.6249  0.0403 -0.1853
 5868TIP3    H239020   2.689   2.017  16.413 -0.1427  0.4389  0.0452
 5869TIP3   OH239021   3.149   2.981  11.130 -0.2056 -0.6348  0.5038
 5869TIP3    H139022   3.221   3.044  11.141 -1.0533 -0.0152  2.8079
 5869TIP3    H239023   3.193   2.896  11.122  0.8674  0.0110 -0.6455
 5870TIP3   OH239024   6.452   4.243  15.167 -0.8464  0.1087  0.3732
 5870TIP3    H139025   6.543   4.235  15.139 -1.0514  3.2421 -1.5007
 5870TIP3    H239026   6.403   4.189  15.105 -0.2323 -2.2613  1.8991
 5871TIP3   OH239027   4.757   0.211  17.001  0.0852 -0.1212  0.1986
 5871TIP3    H139028   4.835   0.264  17.017 -0.2238 -0.7449  4.1533
 5871TIP3    H239029   4.785   0.121  17.016 -1.0936 -0.4447  0.5332
 5872TIP3   OH239030   2.317   4.344  11.029  0.0664 -0.0847  0.6542
 5872TIP3    H139031   2.308   4.305  10.942 -3.8731  1.6949  0.1546
 5872TIP3    H239032   2.275   4.281  11.088  1.4387 -0.5908  1.1316
 5873TIP3   OH239033   2.690   0.434  11.068 -0.3582 -0.1669 -0.5180
 5873TIP3    H139034   2.746   0.449  10.992  0.3110 -0.1739 -0.0259
 5873TIP3    H239035   2.601   0.437  11.033 -0.0964  1.0644 -1.0907
 5874TIP3   OH239036   4.207   1.341  12.932  0.0498 -0.2254 -0.1614
 5874TIP3    H139037   4.129   1.395  12.913 -0.7306 -2.5281 -4.0017
 5874TIP3    H239038   4.171   1.258  12.964  0.9608 -0.8697 -0.8087
 5875TIP3   OH239039   4.800   1.466   4.243 -0.3311 -0.1509  0.7953
 5875TIP3    H139040   4.831   1.375   4.242  2.3628  0.7194 -0.0809
 5875TIP3    H239041   4.841   1.504   4.321  2.8388  1.6303 -1.6069
 5876TIP3   OH239042   4.970   4.093  13.650  0.1128  0.4314  0.3542
 5876TIP3    H139043   4.930   4.163  13.599  2.1735 -0.2336 -2.3014
 5876TIP3    H239044   5.053   4.131  13.680 -0.1712  0.1292  1.5473
 5877TIP3   OH239045   0.758   3.947   1.397 -0.0421  0.3464 -0.7460
 5877TIP3    H139046   0.788   3.891   1.469  1.7016 -0.5087 -2.0825
 5877TIP3    H239047   0.782   4.036   1.423 -0.1425  0.1347  0.0713
 5878TIP3   OH239048   2.921   2.465   6.318 -0.0555 -0.2326 -0.2336
 5878TIP3    H139049   2.850   2.493   6.376 -0.0608 -0.7744  0.0226
 5878TIP3    H239050   2.961   2.391   6.364  1.8424  1.2083  0.4954
 5879TIP3   OH239051   1.083   2.950  17.141 -0.5520 -0.0667 -0.2214
 5879TIP3    H139052   1.151   3.006  17.105 -0.2733 -0.5706 -0.4980
 5879TIP3    H239053   1.030   2.925  17.065 -0.3704 -0.5825 -0.1846
 5880TIP3   OH239054   2.966   1.319   3.995 -0.1044 -0.0351  0.2329
 5880TIP3    H139055   2.879   1.308   4.034 -0.6138  1.4509 -0.4216
 5880TIP3    H239056   3.004   1.232   3.996 -1.0460 -0.4623  1.8396
 5881TIP3   OH239057   6.186   0.373   1.860  0.6003  0.1820  0.0131
 5881TIP3    H139058   6.168   0.387   1.767 -0.6054 -1.7218 -0.0677
 5881TIP3    H239059   6.109   0.326   1.892  1.4624 -0.0751  1.7513
 5882TIP3   OH239060   2.827   3.923   0.711  0.0837  0.2047  0.3440
 5882TIP3    H139061   2.920   3.906   0.701  0.5768  1.4584  2.5399
 5882TIP3    H239062   2.808   3.903   0.803 -1.5206  1.2694  0.2702
 5883TIP3   OH239063   1.223   1.024  13.050 -0.4663 -0.2090  0.1126
 5883TIP3    H139064   1.231   1.111  13.089  1.8028  0.3935 -1.5859
 5883TIP3    H239065   1.260   1.034  12.962 -0.8975 -2.7118 -0.3840
 5884TIP3   OH239066   1.018   6.044   1.162 -0.6393 -0.0418 -0.5300
 5884TIP3    H139067   0.932   6.009   1.187  0.4666 -0.5667  2.7336
 5884TIP3    H239068   1.034   6.008   1.075 -1.4906 -4.1665  0.9103
 5885TIP3   OH239069   6.307   1.492  12.891  0.0177 -1.1092  0.0890
 5885TIP3    H139070   6.361   1.413  12.880 -0.4498 -1.7320  1.9791
 5885TIP3    H239071   6.346   1.536  12.967  0.1766  0.4211 -0.8524
 5886TIP3   OH239072   3.945   1.753  16.487  0.9590  0.2108 -0.2186
 5886TIP3    H139073   3.889   1.821  16.523 -1.7872 -1.1390 -1.8437
 5886TIP3    H239074   3.944   1.683  16.553  0.1264 -0.1249 -0.5889
 5887TIP3   OH239075   4.087   5.278  11.825  0.9686 -0.0508 -0.7715
 5887TIP3    H139076   4.092   5.272  11.730  1.1215 -0.9433 -0.7117
 5887TIP3    H239077   4.038   5.359  11.842 -0.7919 -0.9033 -1.6349
 5888TIP3   OH239078   2.453   2.895  15.494  0.0793  0.5557 -0.0891
 5888TIP3    H139079   2.367   2.854  15.485 -0.0016  0.8698 -0.8038
 5888TIP3    H239080   2.435   2.989  15.492  0.3390  0.6331  0.7774
 5889TIP3   OH239081   2.423   4.009  11.644 -0.7926 -0.4381 -0.3200
 5889TIP3    H139082   2.330   4.028  11.657 -0.8361 -0.8070 -0.1127
 5889TIP3    H239083   2.424   3.929  11.593 -0.5998  0.1259 -1.2152
 5890TIP3   OH239084   1.857   4.637  11.774 -0.0704 -0.5893  0.4771
 5890TIP3    H139085   1.922   4.622  11.842 -0.3181 -1.0031  0.6269
 5890TIP3    H239086   1.900   4.695  11.711 -0.3907  1.1514  1.8075
 5891TIP3   OH239087   3.575   0.762   2.956 -0.5805  0.4307 -0.1814
 5891TIP3    H139088   3.624   0.695   3.003  0.8860  1.3222 -0.4196
 5891TIP3    H239089   3.485   0.753   2.988 -0.5629 -2.0992 -0.7090
 5892TIP3   OH239090   5.144   2.632   4.691 -0.2315  0.6655  0.2480
 5892TIP3    H139091   5.074   2.671   4.639 -0.3843  1.6804  1.1829
 5892TIP3    H239092   5.125   2.538   4.691 -0.1174  0.6317 -1.6485
 5893TIP3   OH239093   3.430   2.635   1.400  0.0333  0.6097 -0.8776
 5893TIP3    H139094   3.398   2.546   1.388 -0.2873  0.9125 -2.3775
 5893TIP3    H239095   3.521   2.633   1.370 -0.2739  1.0032 -1.8546
 5894TIP3   OH239096   1.874   0.331   3.805  0.4366  0.8369 -0.6084
 5894TIP3    H139097   1.938   0.400   3.822  0.5846  1.5517 -3.7747
 5894TIP3    H239098   1.926   0.251   3.803  0.9115  1.1463 -0.9319
 5895TIP3   OH239099   6.564   4.673   1.950 -0.0731 -0.0310 -0.2464
 5895TIP3    H139100   6.642   4.618   1.952  0.5952  0.8851 -0.3851
 5895TIP3    H239101   6.572   4.727   2.029  0.6504  1.6733 -1.4517
 5896TIP3   OH239102   2.336   3.423   5.582 -0.1058  0.0282  0.0106
 5896TIP3    H139103   2.327   3.333   5.611 -0.0075  0.0557  0.1264
 5896TIP3    H239104   2.357   3.472   5.662 -3.2729  0.6421  0.5184
 5897TIP3   OH239105   0.252   0.940  13.375  0.0786  0.6603  0.2499
 5897TIP3    H139106   0.250   1.032  13.399 -1.4000  0.8956 -0.7009
 5897TIP3    H239107   0.218   0.938  13.285  0.5156 -0.7579  0.0999
 5898TIP3   OH239108   4.149   5.390   3.935  0.4588  0.3358 -0.0268
 5898TIP3    H139109   4.150   5.452   3.862  0.1669  0.0304 -0.2925
 5898TIP3    H239110   4.064   5.347   3.929  1.1540 -1.0002 -0.6314
 5899TIP3   OH239111   5.089   1.202  14.314 -0.8855  0.1098  0.2494
 5899TIP3    H139112   5.163   1.154  14.278 -0.5867 -0.3831  1.4894
 5899TIP3    H239113   5.124   1.288  14.335 -1.0125  0.3342 -0.4545
 5900TIP3   OH239114   0.250   2.077  16.376  0.5828 -0.0211  0.1775
 5900TIP3    H139115   0.324   2.082  16.437  1.3136 -1.4339 -0.5635
 5900TIP3    H239116   0.243   1.984  16.355  0.5804  0.4840 -2.1716
 5901TIP3   OH239117   6.646   1.152   4.270 -0.6990  0.7967 -0.2397
 5901TIP3    H139118   6.696   1.072   4.289 -0.2970  1.1035 -0.0109
 5901TIP3    H239119   6.554   1.125   4.282 -0.5268  0.5810  0.6590
 5902TIP3   OH239120   0.506   4.875  14.262  0.2843 -0.4208 -0.0077
 5902TIP3    H139121   0.583   4.926  14.285 -0.3039  0.3594  0.2450
 5902TIP3    H239122   0.438   4.904  14.323  0.0253 -1.7376  0.3598
 5903TIP3   OH239123   4.651   3.262   0.810  0.1925  0.2154  0.7692
 5903TIP3    H139124   4.684   3.178   0.842 -0.2117 -0.9885 -1.8423
 5903TIP3    H239125   4.561   3.244   0.783  0.0636  1.5110  0.2916
 5904TIP3   OH239126   4.724   3.498  15.762 -0.6344  0.3003 -0.2927
 5904TIP3    H139127   4.816   3.498  15.789 -1.3496  2.7345  2.4757
 5904TIP3    H239128   4.690   3.413  15.791  0.1284  0.4424  1.0556
 5905TIP3   OH239129   4.283   6.272   2.206  0.3228 -0.0055  0.3497
 5905TIP3    H139130   4.248   6.275   2.295  1.3585 -2.0831  0.8493
 5905TIP3    H239131   4.234   6.340   2.159 -2.8471 -1.3848  1.5321
 5906TIP3   OH239132   2.734   1.899  14.507 -0.8700  0.2391  0.2006
 5906TIP3    H139133   2.793   1.825  14.491 -1.2638 -0.3895  1.5668
 5906TIP3    H239134   2.768   1.970  14.452  1.0139 -0.1874  0.7915
 5907TIP3   OH239135   2.728   6.638   1.432  0.2908 -0.6455  0.3702
 5907TIP3    H139136   2.671   6.660   1.358 -1.5547  1.8013  2.4441
 5907TIP3    H239137   2.804   6.694   1.421 -1.2382  1.8172  1.7599
 5908TIP3   OH239138   2.179   0.577  10.339 -0.0683 -0.2546  0.4061
 5908TIP3    H139139   2.087   0.604  10.346 -0.2077 -1.1681  2.2774
 5908TIP3    H239140   2.225   0.635  10.400  0.8227  1.0828 -1.4813
 5909TIP3   OH239141   1.516   2.696   4.827 -0.6671 -0.0299  0.3031
 5909TIP3    H139142   1.538   2.638   4.900  0.4206 -1.0418 -0.8063
 5909TIP3    H239143   1.505   2.637   4.752  1.0836  1.2297 -0.9953
 5910TIP3   OH239144   0.342   2.502   4.949 -0.2436  0.0307 -0.4367
 5910TIP3    H139145   0.424   2.456   4.959  0.7004  1.3138 -2.0226
 5910TIP3    H239146   0.337   2.559   5.026  0.3305 -0.0797 -0.3156
 5911TIP3   OH239147   2.269   1.088  12.347  0.2546  0.0566  0.0351
 5911TIP3    H139148   2.272   1.009  12.401  1.6314 -1.1055 -1.7076
 5911TIP3    H239149   2.350   1.087  12.298 -0.5319  1.6232 -1.3498
 5912TIP3   OH239150   4.922   5.966  14.146  0.1973 -0.5243 -0.2911
 5912TIP3    H139151   4.974   5.949  14.225  0.0307  0.9437  0.1599
 5912TIP3    H239152   4.961   6.046  14.109 -2.4735  1.2805  0.7036
 5913TIP3   OH239153   0.651   6.410   1.455  0.3689 -0.2335 -0.1223
 5913TIP3    H139154   0.568   6.437   1.494  0.9853 -0.2221  1.1991
 5913TIP3    H239155   0.627   6.381   1.367 -1.2257 -1.4074  0.6749
 5914TIP3   OH239156   6.231   3.712  12.411  0.5977 -0.1831 -0.4193
 5914TIP3    H139157   6.155   3.730  12.465  0.8099  0.3924 -0.3158
 5914TIP3    H239158   6.296   3.676  12.472 -0.3553 -2.8200 -0.8799
 5915TIP3   OH239159   2.531   5.423  13.395 -0.0661 -0.1016 -0.1905
 5915TIP3    H139160   2.542   5.430  13.490 -3.6418  0.8078  0.2106
 5915TIP3    H239161   2.570   5.339  13.372 -0.7179 -1.1282  2.3522
 5916TIP3   OH239162   3.752   6.082   0.320  0.0266 -0.0619 -0.2702
 5916TIP3    H139163   3.708   6.166   0.335 -0.6266 -0.3936 -0.3197
 5916TIP3    H239164   3.805   6.069   0.399  0.3331  0.5184 -0.3759
 5917TIP3   OH239165   6.284   4.774   4.537 -0.2508  0.2950 -0.4370
 5917TIP3    H139166   6.250   4.697   4.583  0.0082  0.3045 -0.2337
 5917TIP3    H239167   6.378   4.770   4.549 -0.3605  1.5185  0.9045
 5918TIP3   OH239168   2.368   6.065   5.100 -0.1511 -0.0005 -0.3732
 5918TIP3    H139169   2.451   6.065   5.147  1.0789 -1.6952 -2.4818
 5918TIP3    H239170   2.361   5.978   5.062 -1.9039  0.7692 -1.9245
 5919TIP3   OH239171   4.075   0.099  13.633 -0.5000  0.1964  0.4131
 5919TIP3    H139172   4.160   0.057  13.648  0.3511  1.8207  0.3392
 5919TIP3    H239173   4.013   0.048  13.685  0.2402 -1.9682 -0.7633
 5920TIP3   OH239174   3.882   0.045   4.523 -0.1423 -0.3432  0.5176
 5920TIP3    H139175   3.879  -0.034   4.577  1.3623  1.0246  2.6800
 5920TIP3    H239176   3.790   0.069   4.511 -0.5587 -1.6453  1.0252
 5921TIP3   OH239177   3.470   3.950   1.823 -0.7317  0.2812  0.7024
 5921TIP3    H139178   3.453   3.959   1.729 -1.3401 -1.6060  0.6119
 5921TIP3    H239179   3.384   3.962   1.864 -0.8451 -1.0568  0.8581
 5922TIP3   OH239180   4.708   1.340   2.505 -0.3914 -0.3172  0.0618
 5922TIP3    H139181   4.748   1.259   2.472  0.7488  0.4862 -0.5382
 5922TIP3    H239182   4.645   1.364   2.437  0.5686  0.2793 -0.6242
 5923TIP3   OH239183   3.142   0.702   1.049 -0.2103 -0.2872 -0.3699
 5923TIP3    H139184   3.174   0.717   0.960  1.5403  0.3388  0.3298
 5923TIP3    H239185   3.100   0.784   1.074 -1.2412 -0.6741 -0.8420
 5924TIP3   OH239186   6.282   6.043   2.855  0.2226  0.5081 -0.2667
 5924TIP3    H139187   6.360   6.076   2.809  0.1266  0.3625 -0.5388
 5924TIP3    H239188   6.290   6.077   2.944  0.6283  0.4485 -0.2788
 5925TIP3   OH239189   1.699   0.004  13.371 -0.5391 -0.4344 -0.0252
 5925TIP3    H139190   1.624  -0.050  13.393 -0.7401 -0.3391 -0.4641
 5925TIP3    H239191   1.737  -0.038  13.293  0.1764 -0.7881  0.5058
 5926TIP3   OH239192   0.999   2.270   3.750  0.2808  0.5341 -0.8636
 5926TIP3    H139193   1.088   2.266   3.717  0.4973 -0.3461 -0.1977
 5926TIP3    H239194   0.944   2.264   3.672  0.8026  1.9441 -1.3483
 5927TIP3   OH239195   2.886   1.208   3.752  0.0299 -0.4544  0.1538
 5927TIP3    H139196   2.884   1.281   3.813  0.1979 -1.0282  0.8611
 5927TIP3    H239197   2.952   1.232   3.687 -0.1256  0.1495  0.2240
 5928TIP3   OH239198   2.357   0.543  13.937 -0.7245 -0.5796 -0.4531
 5928TIP3    H139199   2.406   0.465  13.965 -2.3221 -1.1114  1.0257
 5928TIP3    H239200   2.328   0.523  13.848 -1.7299 -2.0322  0.1665
 5929TIP3   OH239201   5.648   1.524   4.543  0.8072  1.0075 -0.0484
 5929TIP3    H139202   5.591   1.481   4.480 -1.3251  1.6475  1.3864
 5929TIP3    H239203   5.717   1.563   4.490 -0.0457  0.1526 -1.8256
 5930TIP3   OH239204   4.779   1.703   2.954 -0.3668 -0.2888  0.2449
 5930TIP3    H139205   4.787   1.680   3.046 -0.7410 -0.3669  0.2588
 5930TIP3    H239206   4.813   1.792   2.948 -1.9702  0.3739  0.7713
 5931TIP3   OH239207   4.031   4.251   0.677  0.1885  0.1280 -0.0911
 5931TIP3    H139208   4.110   4.197   0.670 -0.4776 -0.8636 -0.0465
 5931TIP3    H239209   4.031   4.281   0.768  2.0581  2.5465 -0.8326
 5932TIP3   OH239210   0.612   6.031  14.512  0.4345 -0.2526 -0.1060
 5932TIP3    H139211   0.693   5.995  14.549 -0.1884 -1.3789  0.1949
 5932TIP3    H239212   0.639   6.112  14.471  1.7304 -0.6222 -0.0223
 5933TIP3   OH239213   4.625   2.728   5.101  0.3695  0.0163  0.0898
 5933TIP3    H139214   4.638   2.715   5.007 -3.6338  2.9467 -1.0150
 5933TIP3    H239215   4.597   2.642   5.134  0.1629 -0.6204 -1.7097
 5934TIP3   OH239216   1.892   1.521  16.535  0.6216  0.1460  0.5621
 5934TIP3    H139217   1.970   1.569  16.509  1.0224 -0.0652  1.3385
 5934TIP3    H239218   1.888   1.447  16.474  0.6084  0.5658  0.0512
 5935TIP3   OH239219   3.804   1.962  14.558  0.3267 -0.1840  0.0132
 5935TIP3    H139220   3.857   2.034  14.522  0.6674  0.3491  1.5263
 5935TIP3    H239221   3.822   1.888  14.501  2.4146  0.1008  0.2424
 5936TIP3   OH239222   5.300   6.010   1.283 -0.5233  0.3044  0.5525
 5936TIP3    H139223   5.327   6.034   1.194  0.1018 -0.6059  0.4947
 5936TIP3    H239224   5.382   5.996   1.330 -0.8554 -2.7885  0.3072
 5937TIP3   OH239225   2.294   4.199   3.861  0.7337  0.4114 -0.0532
 5937TIP3    H139226   2.365   4.170   3.918  0.5270  0.4710  0.2347
 5937TIP3    H239227   2.229   4.237   3.920 -0.4549 -1.4807 -0.0828
 5938TIP3   OH239228   4.562   1.659   5.305  0.3886 -0.2728  0.6060
 5938TIP3    H139229   4.596   1.575   5.336 -1.1442 -0.8013  0.8899
 5938TIP3    H239230   4.500   1.635   5.236  0.2644  0.6497  0.4004
 5939TIP3   OH239231   4.707   0.144   4.791 -0.7681  0.5242  0.0579
 5939TIP3    H139232   4.616   0.168   4.802 -0.5145  0.4713  2.4268
 5939TIP3    H239233   4.738   0.122   4.879  1.7422  1.3172 -0.5692
 5940TIP3   OH239234   4.152   0.703   6.189 -0.2871  0.5536  0.0690
 5940TIP3    H139235   4.153   0.622   6.138  0.6216 -0.1881  1.2519
 5940TIP3    H239236   4.208   0.763   6.139  0.4987 -0.1307  0.1279
 5941TIP3   OH239237   4.114   4.398  16.862 -0.0581  0.2457  0.0636
 5941TIP3    H139238   4.072   4.336  16.923 -0.1443  1.5054  1.3211
 5941TIP3    H239239   4.107   4.356  16.777  0.5869 -1.8417  1.0043
 5942TIP3   OH239240   2.262   5.613   2.487 -0.2216  0.6673  0.1109
 5942TIP3    H139241   2.247   5.704   2.509 -0.5161  0.5731  0.3055
 5942TIP3    H239242   2.294   5.573   2.567 -4.5115 -0.4259  1.4321
 5943TIP3   OH239243   0.835   0.957   2.855 -0.7782  0.4206 -0.0958
 5943TIP3    H139244   0.844   1.043   2.815 -2.3662  0.5288 -0.2506
 5943TIP3    H239245   0.754   0.921   2.818 -0.7488 -0.6547  0.8491
 5944TIP3   OH239246   5.198   3.547   4.053 -0.0851  0.1125 -0.2189
 5944TIP3    H139247   5.143   3.624   4.068  0.7731  0.4721  1.1672
 5944TIP3    H239248   5.150   3.474   4.091 -0.6382  0.0432 -1.0334
 5945TIP3   OH239249   0.216   4.954  13.006  0.2097 -0.0175  0.3954
 5945TIP3    H139250   0.224   5.043  13.039 -0.2048 -0.5644  2.0118
 5945TIP3    H239251   0.304   4.933  12.973  0.2686  1.0302 -0.1377
 5946TIP3   OH239252   3.338   1.854  13.899  0.2514  0.1046  0.2354
 5946TIP3    H139253   3.407   1.912  13.867 -0.6338  1.4932  0.8152
 5946TIP3    H239254   3.341   1.778  13.840  1.2255  0.8644 -0.7083
 5947TIP3   OH239255   2.993   0.465   1.004 -0.2428  0.0359  0.5837
 5947TIP3    H139256   3.055   0.537   1.016 -1.9201  1.6946 -0.5600
 5947TIP3    H239257   3.020   0.400   1.069  2.0579  1.1430  0.8013
 5948TIP3   OH239258   4.952   0.199  11.225 -0.4117 -0.3959  0.3949
 5948TIP3    H139259   4.920   0.216  11.136  0.0350  0.4889  0.3923
 5948TIP3    H239260   5.009   0.274  11.244  1.0659 -1.5780  0.6814
 5949TIP3   OH239261   2.426   4.847  16.600  0.0206 -0.4622  0.1218
 5949TIP3    H139262   2.390   4.884  16.520  0.3547 -1.3214 -0.4263
 5949TIP3    H239263   2.510   4.891  16.612  2.6854 -4.2758 -3.0758
 5950TIP3   OH239264   0.727   3.655  14.156 -0.5397  0.2843 -0.1491
 5950TIP3    H139265   0.711   3.734  14.207  0.4523  1.5092 -1.6595
 5950TIP3    H239266   0.640   3.625  14.129 -1.0189  0.0282  1.6146
 5951TIP3   OH239267   2.852   4.377  15.556 -0.3383  0.1981  0.6413
 5951TIP3    H139268   2.932   4.338  15.591  0.0538 -0.7034 -1.2275
 5951TIP3    H239269   2.824   4.317  15.487 -0.7780  2.2326 -1.0048
 5952TIP3   OH239270   6.311   1.774  15.931 -0.0591 -0.3565  0.1353
 5952TIP3    H139271   6.243   1.840  15.945  1.6423  1.7267 -1.1816
 5952TIP3    H239272   6.363   1.775  16.011  0.1660  0.1275 -0.0195
 5953TIP3   OH239273   5.094   2.992   3.130 -0.2166 -0.2084 -0.9435
 5953TIP3    H139274   5.162   3.034   3.183 -1.4968  1.4400 -0.5783
 5953TIP3    H239275   5.052   2.930   3.189  1.5179 -1.8909 -1.4161
 5954TIP3   OH239276   5.621   4.830   1.790  0.0523  0.2837  0.0978
 5954TIP3    H139277   5.648   4.810   1.880 -3.8375 -0.6269  1.1726
 5954TIP3    H239278   5.639   4.923   1.779  0.9088  0.3233  1.7056
 5955TIP3   OH239279   0.085   0.321   3.383 -0.1241  0.4427  0.1918
 5955TIP3    H139280   0.103   0.308   3.290 -0.7026  1.1597 -0.0239
 5955TIP3    H239281  -0.005   0.290   3.395  0.4524 -1.0319  0.8185
 5956TIP3   OH239282   3.660   1.486   1.147 -0.0307  0.2066  0.0232
 5956TIP3    H139283   3.671   1.549   1.075  2.1684 -1.8038 -1.4715
 5956TIP3    H239284   3.605   1.418   1.109  0.0852 -0.2407  0.6673
 5957TIP3   OH239285   2.774   2.269   4.073  0.3958  0.1452 -0.1818
 5957TIP3    H139286   2.863   2.245   4.049  0.2261 -0.4228 -0.2714
 5957TIP3    H239287   2.775   2.364   4.083  0.9815  0.1473 -0.2930
 5958TIP3   OH239288   3.749   5.790  16.042 -0.4064 -0.4037 -0.2600
 5958TIP3    H139289   3.658   5.786  16.013 -1.7092 -1.2882  3.6709
 5958TIP3    H239290   3.754   5.869  16.094  1.4464  0.2755 -1.4133
 5959TIP3   OH239291   6.054   3.617  12.775 -0.3441 -0.5746  0.5069
 5959TIP3    H139292   6.133   3.663  12.803  0.8559 -1.8263 -0.7053
 5959TIP3    H239293   6.018   3.580  12.855  1.4693 -1.7280  0.8216
 5960TIP3   OH239294   0.531   1.738  13.927  0.6136  0.5456 -0.3199
 5960TIP3    H139295   0.467   1.775  13.988  0.6979 -1.1003  0.7981
 5960TIP3    H239296   0.580   1.814  13.896 -2.3987  1.9602 -1.8506
 5961TIP3   OH239297   3.933   5.316  15.483  0.1013  0.3820 -0.3806
 5961TIP3    H139298   3.840   5.334  15.498 -0.3785 -1.3623 -1.1498
 5961TIP3    H239299   3.934   5.237  15.429  2.1090 -1.0497  1.6826
 5962TIP3   OH239300   5.165   5.931  13.704 -0.3328  0.1306 -0.0426
 5962TIP3    H139301   5.166   5.974  13.619 -0.1648  0.0349 -0.0908
 5962TIP3    H239302   5.073   5.913  13.722 -0.2970 -0.6746 -0.6253
 5963TIP3   OH239303   2.620   3.795   2.857 -0.2692  0.4091 -0.8336
 5963TIP3    H139304   2.644   3.709   2.823  3.9791  0.2614  2.2006
 5963TIP3    H239305   2.546   3.777   2.915 -0.1168 -1.0234 -1.0601
 5964TIP3   OH239306   4.939   1.307  10.279  0.6347 -0.1832 -0.7830
 5964TIP3    H139307   4.888   1.352  10.211 -0.2641  0.0705  0.0540
 5964TIP3    H239308   4.933   1.214  10.256  0.9039 -0.0413 -1.4372
 5965TIP3   OH239309   1.876   0.363  13.406 -0.1719  0.0670  0.6371
 5965TIP3    H139310   1.957   0.400  13.370 -0.8572  0.4103 -0.5598
 5965TIP3    H239311   1.905   0.315  13.484  1.1012  0.7218  0.5871
 5966TIP3   OH239312   4.333   0.364  16.335 -0.3844  0.3602  0.8472
 5966TIP3    H139313   4.426   0.377  16.349 -0.2590 -1.2349  1.6221
 5966TIP3    H239314   4.300   0.331  16.419 -1.7059  1.2169  0.6906
 5967TIP3   OH239315   5.024   1.042   5.186 -0.0503  0.1356 -0.4360
 5967TIP3    H139316   5.107   0.996   5.188 -0.3567 -0.6690 -3.6933
 5967TIP3    H239317   4.970   0.993   5.124 -2.4411  1.4962  0.4753
 5968TIP3   OH239318   5.308   1.239   3.013 -0.5910 -0.3169  0.2636
 5968TIP3    H139319   5.272   1.318   2.973  1.4262  0.5399  0.0689
 5968TIP3    H239320   5.267   1.235   3.099 -0.0025  1.5050  0.6566
 5969TIP3   OH239321   6.184   5.873   1.152  0.0713 -0.5609 -0.0040
 5969TIP3    H139322   6.095   5.892   1.122  0.1700 -0.1142 -0.0123
 5969TIP3    H239323   6.175   5.792   1.203 -0.8373  0.9952  2.3906
 5970TIP3   OH239324   1.463   0.561  11.304  0.1686  0.1210 -0.0106
 5970TIP3    H139325   1.373   0.558  11.270  1.0230  0.3406 -2.4085
 5970TIP3    H239326   1.517   0.528  11.231  1.8977 -1.4072  1.9115
 5971TIP3   OH239327   2.912   1.555   3.250  0.2041  0.2176  0.9004
 5971TIP3    H139328   2.958   1.628   3.209 -0.0846  0.3213  0.7582
 5971TIP3    H239329   2.819   1.574   3.236  0.0940  0.4329  1.9188
 5972TIP3   OH239330   5.326   3.622  14.078 -0.1379  0.3138 -0.5795
 5972TIP3    H139331   5.267   3.626  14.003  1.3770  0.5341 -1.7987
 5972TIP3    H239332   5.374   3.705  14.075  0.5009 -0.0201  0.1496
 5973TIP3   OH239333   0.020   3.303   4.312  0.2565 -0.0576 -0.1451
 5973TIP3    H139334   0.005   3.251   4.391  0.7395  0.1883  0.1111
 5973TIP3    H239335  -0.067   3.337   4.289  0.3570  1.1910  1.2070
 5974TIP3   OH239336   3.288   4.013   3.345  0.5039 -0.3770  0.8722
 5974TIP3    H139337   3.334   3.949   3.400  0.5892 -0.2287  0.9739
 5974TIP3    H239338   3.328   4.097   3.368  2.7438 -0.6784 -1.6969
 5975TIP3   OH239339   5.188   6.565  15.320  0.4461  0.1187 -0.2720
 5975TIP3    H139340   5.223   6.654  15.326  1.0954 -0.2162  1.1652
 5975TIP3    H239341   5.243   6.523  15.254 -0.0548  0.8653 -1.1712
 5976TIP3   OH239342   2.378   5.313   5.415 -0.1509 -0.3481  0.4163
 5976TIP3    H139343   2.378   5.398   5.371  1.3551  1.2069  3.2500
 5976TIP3    H239344   2.438   5.259   5.364 -0.4046  0.5645 -0.8706
 5977TIP3   OH239345   5.750   0.229   1.006 -0.1834  0.1410  0.5026
 5977TIP3    H139346   5.708   0.220   0.920 -0.8183  2.2483  0.5815
 5977TIP3    H239347   5.679   0.243   1.067  0.0851 -3.3214  1.7546
 5978TIP3   OH239348   3.347   1.862  11.956 -0.3390 -0.2875 -0.5012
 5978TIP3    H139349   3.324   1.770  11.944  0.6785 -0.6516  0.2545
 5978TIP3    H239350   3.336   1.877  12.050  3.0150 -0.6477  0.0109
 5979TIP3   OH239351   5.926   5.418  11.390 -0.0774  0.3463 -0.1249
 5979TIP3    H139352   5.908   5.510  11.369  2.0092  0.7214 -0.3927
 5979TIP3    H239353   5.874   5.401  11.468  0.0939  1.9942  0.3734
 5980TIP3   OH239354   0.197   4.074  13.140  0.4113  0.4288  0.2118
 5980TIP3    H139355   0.268   4.137  13.132  2.0994 -1.5148 -0.6050
 5980TIP3    H239356   0.118   4.124  13.121  1.5689  2.5951  0.9966
 5981TIP3   OH239357   1.168   1.760  14.715 -0.1150  0.2769  0.4637
 5981TIP3    H139358   1.117   1.740  14.793 -1.6695  2.9497  0.1839
 5981TIP3    H239359   1.255   1.725  14.734 -1.3900 -2.2842  1.8881
 5982TIP3   OH239360   3.423   1.599   0.802  0.0481 -0.2913 -0.3519
 5982TIP3    H139361   3.373   1.651   0.865  1.0367 -1.1618  1.1620
 5982TIP3    H239362   3.514   1.612   0.826  0.3854 -1.5005 -0.9289
 5983TIP3   OH239363   3.900   4.489   0.789 -0.0360 -0.2547 -0.3023
 5983TIP3    H139364   3.937   4.446   0.711 -1.4478 -0.8739 -0.6430
 5983TIP3    H239365   3.922   4.581   0.777 -0.8507 -0.2255 -1.8237
 5984TIP3   OH239366   2.116   2.089  12.991  0.1964  0.3416  0.2226
 5984TIP3    H139367   2.193   2.033  13.007  0.7757  1.1793  0.3794
 5984TIP3    H239368   2.152   2.175  12.972 -0.7210  0.8781  0.8446
 5985TIP3   OH239369   1.606   4.995   1.447  0.2566 -0.3990 -0.0267
 5985TIP3    H139370   1.608   5.088   1.424  3.2289 -0.7092 -1.2176
 5985TIP3    H239371   1.526   4.963   1.407 -0.8479  1.6426  0.4431
 5986TIP3   OH239372   0.262   1.931   3.600  0.1239 -0.1491 -0.4124
 5986TIP3    H139373   0.303   1.959   3.682 -1.7211 -1.3881  0.9723
 5986TIP3    H239374   0.335   1.898   3.547  1.4484  1.4276  0.3831
 5987TIP3   OH239375   3.422   6.006   1.964  0.0956 -0.5683  0.1878
 5987TIP3    H139376   3.413   5.911   1.967  0.2418 -0.5533  1.0052
 5987TIP3    H239377   3.477   6.028   2.039  1.6309 -0.0205 -1.0613
 5988TIP3   OH239378   1.070   2.752  15.113  0.6095 -0.5717  1.4320
 5988TIP3    H139379   0.983   2.738  15.152  0.2236  1.7108  1.4558
 5988TIP3    H239380   1.131   2.742  15.185  0.4488 -2.8886  1.2804
 5989TIP3   OH239381   3.490   2.198  16.705  0.2436  0.0760  0.5310
 5989TIP3    H139382   3.429   2.129  16.678  0.2969  0.7159 -1.2986
 5989TIP3    H239383   3.535   2.161  16.782  0.1443 -1.8566 -0.3038
 5990TIP3   OH239384   2.729   2.581   3.079 -0.6643 -0.3160  0.2019
 5990TIP3    H139385   2.736   2.655   3.019 -0.6970 -0.3430  0.1644
 5990TIP3    H239386   2.654   2.531   3.047  0.7700 -1.6433 -1.1691
 5991TIP3   OH239387   5.912   1.517  13.207 -0.1769  0.1919 -0.2839
 5991TIP3    H139388   5.880   1.525  13.297 -0.8069  0.2519 -0.5165
 5991TIP3    H239389   5.860   1.580  13.157 -1.1927 -1.2594 -1.0684
 5992TIP3   OH239390   6.434   4.288   0.612  0.1468 -0.1732 -0.7388
 5992TIP3    H139391   6.406   4.220   0.550 -1.3456 -1.1610  0.9588
 5992TIP3    H239392   6.423   4.247   0.698  1.0716  1.5781  0.2275
 5993TIP3   OH239393   3.926   4.338  16.375 -0.1680  0.0158  0.0562
 5993TIP3    H139394   3.976   4.416  16.352 -1.8452  1.5027  1.3248
 5993TIP3    H239395   3.900   4.301  16.291  1.0270  0.5396 -0.5629
 5994TIP3   OH239396   1.591   3.701  11.736 -0.2723  0.0858  0.3646
 5994TIP3    H139397   1.626   3.784  11.703  0.6076  0.2872  1.7660
 5994TIP3    H239398   1.503   3.723  11.768 -0.6478  0.1411 -0.6781
 5995TIP3   OH239399   0.482   1.920   6.339 -0.7560 -0.4331 -0.2537
 5995TIP3    H139400   0.393   1.919   6.374 -0.5860 -0.7127  0.1763
 5995TIP3    H239401   0.534   1.871   6.403 -0.1783  0.2426 -0.2003
 5996TIP3   OH239402   3.537   1.832   4.239 -0.7590  0.5863 -0.1608
 5996TIP3    H139403   3.454   1.880   4.233 -0.3738  1.4030  0.8143
 5996TIP3    H239404   3.521   1.764   4.304 -0.7233  0.6046 -0.1334
 5997TIP3   OH239405   1.357   4.706   6.475  0.1801 -0.1026  0.1757
 5997TIP3    H139406   1.449   4.682   6.479 -0.0163 -0.7376  1.1678
 5997TIP3    H239407   1.331   4.688   6.385  1.2818  1.0641 -0.3917
 5998TIP3   OH239408   3.355   0.335   4.083 -0.2123 -0.0169 -0.0718
 5998TIP3    H139409   3.294   0.407   4.068  0.4087  0.6949  0.7706
 5998TIP3    H239410   3.431   0.356   4.028 -0.5451 -0.6927 -0.8056
 5999TIP3   OH239411   1.044   1.494  11.240 -0.5596 -0.2458  0.1428
 5999TIP3    H139412   1.063   1.577  11.198  1.5410 -0.6243  0.3135
 5999TIP3    H239413   1.037   1.514  11.334  1.1872 -0.4500  0.3268
 6000TIP3   OH239414   2.032   2.147  10.595 -0.5931  0.0113 -0.5447
 6000TIP3    H139415   1.994   2.114  10.514  0.6636  1.6707 -1.8514
 6000TIP3    H239416   2.072   2.071  10.637 -2.1029 -1.0447 -0.9637
 6001TIP3   OH239417   5.081   4.519   3.015 -0.1266  0.3783 -0.4704
 6001TIP3    H139418   5.116   4.447   2.964  0.9629  1.6691 -1.6064
 6001TIP3    H239419   5.158   4.558   3.057 -0.8928 -0.0830  1.4154
 6002TIP3   OH239420   3.826   1.125  10.529 -0.1127 -0.1071 -0.1935
 6002TIP3    H139421   3.758   1.109  10.594 -0.5022  1.9788 -0.0625
 6002TIP3    H239422   3.896   1.064  10.552 -2.1989 -2.8205 -0.7742
 6003TIP3   OH239423   4.671   4.124   6.015 -0.6651 -0.3209  0.1092
 6003TIP3    H139424   4.603   4.184   6.045  0.0668  0.6878 -0.2236
 6003TIP3    H239425   4.719   4.100   6.095 -1.0382 -0.5689  0.2603
 6004TIP3   OH239426   6.712   3.796  16.443  0.4238 -0.1846 -0.4468
 6004TIP3    H139427   6.638   3.821  16.499 -0.4193  0.3183 -1.7719
 6004TIP3    H239428   6.747   3.717  16.484 -0.7307 -0.3283  0.2887
 6005TIP3   OH239429   3.345   5.111  14.168  0.4512 -0.5060 -0.0108
 6005TIP3    H139430   3.251   5.099  14.178  0.4739 -1.4823 -0.9139
 6005TIP3    H239431   3.383   5.060  14.239  0.3206 -0.3530  0.1724
 6006TIP3   OH239432   5.980   3.394  16.757 -0.4515 -0.5289  0.3436
 6006TIP3    H139433   5.895   3.397  16.712 -0.4854  0.7242  0.4734
 6006TIP3    H239434   6.043   3.375  16.688 -0.5100  1.3439 -0.2509
 6007TIP3   OH239435   6.531   3.155  14.273 -0.1317 -0.2514 -0.6982
 6007TIP3    H139436   6.476   3.135  14.349 -1.0237  0.9603 -1.0013
 6007TIP3    H239437   6.599   3.088  14.274 -1.5606 -1.7362 -0.2519
 6008TIP3   OH239438   6.726   0.969  15.863 -0.3341  0.1322 -0.4995
 6008TIP3    H139439   6.738   1.062  15.881  0.4762  0.0679 -0.7045
 6008TIP3    H239440   6.658   0.942  15.925 -1.1476  1.0275 -0.9781
 6009TIP3   OH239441   0.691   0.586  15.413  0.0849  0.2006 -0.0894
 6009TIP3    H139442   0.620   0.646  15.435  0.5916  0.8473 -0.1925
 6009TIP3    H239443   0.696   0.589  15.318 -0.2251 -0.4029 -0.1280
 6010TIP3   OH239444   5.668   3.122   6.055 -0.5640 -0.3721 -0.1252
 6010TIP3    H139445   5.677   3.035   6.094 -0.8462  0.3360  1.5489
 6010TIP3    H239446   5.658   3.181   6.129  0.2033  1.1779 -1.2167
 6011TIP3   OH239447   4.730   3.528   1.994 -0.2078  0.4453 -0.2350
 6011TIP3    H139448   4.731   3.556   2.085 -0.4186  1.7489 -0.6249
 6011TIP3    H239449   4.677   3.594   1.949  0.4926  0.2030 -1.4287
 6012TIP3   OH239450   5.307   2.626  10.445  0.4634 -0.0303  0.0398
 6012TIP3    H139451   5.222   2.592  10.418  0.0852  0.7866  0.1743
 6012TIP3    H239452   5.310   2.613  10.540  1.5261 -2.3176 -0.2785
 6013TIP3   OH239453   3.933   6.287  16.274 -0.5022 -0.0987  0.3636
 6013TIP3    H139454   3.933   6.257  16.365 -0.9957  1.0111  0.7379
 6013TIP3    H239455   4.019   6.261  16.240  0.6181  1.5737  1.8566
 6014TIP3   OH239456   2.347   1.936  15.618 -0.2617  0.2802 -0.7676
 6014TIP3    H139457   2.425   1.932  15.562 -0.7941 -0.5331 -1.4704
 6014TIP3    H239458   2.381   1.948  15.706  0.6003  1.4444 -1.2415
 6015TIP3   OH239459   3.023   5.731  15.429  0.0368  0.1832 -0.1467
 6015TIP3    H139460   2.969   5.761  15.503 -2.5468  1.5830 -2.5227
 6015TIP3    H239461   3.037   5.638  15.446 -3.0267 -0.1875  0.6284
 6016TIP3   OH239462   0.328   1.481   2.148  0.0720  0.3850 -0.5155
 6016TIP3    H139463   0.338   1.467   2.243 -1.1413 -2.6614 -0.7762
 6016TIP3    H239464   0.338   1.576   2.137 -0.2682  0.8709  2.7175
 6017TIP3   OH239465   4.423   4.774  10.868 -0.1528  0.0049 -0.0947
 6017TIP3    H139466   4.444   4.814  10.784 -0.5121  1.2247  0.3899
 6017TIP3    H239467   4.446   4.682  10.857  1.8440  0.5790 -0.8053
 6018TIP3   OH239468   3.819   3.560  15.103  0.4942 -0.5778 -0.2827
 6018TIP3    H139469   3.798   3.652  15.087 -0.7005 -0.9667 -0.9786
 6018TIP3    H239470   3.888   3.539  15.040  2.0485  0.3245  1.0821
 6019TIP3   OH239471   3.647   1.972   0.765 -0.2798 -0.6582 -0.0072
 6019TIP3    H139472   3.613   1.986   0.854 -1.1238  0.5190 -0.5091
 6019TIP3    H239473   3.576   1.925   0.720 -0.9409  1.1036 -0.8249
 6020TIP3   OH239474   1.330   5.234   2.637 -0.0192  0.4804 -0.1181
 6020TIP3    H139475   1.384   5.312   2.649  0.3315  0.3327 -0.7261
 6020TIP3    H239476   1.245   5.258   2.674 -0.2807  1.5763 -1.3763
 6021TIP3   OH239477   6.126   4.703  10.684 -0.7805 -0.3629  0.0308
 6021TIP3    H139478   6.182   4.775  10.654 -1.7234 -0.7314 -2.7215
 6021TIP3    H239479   6.181   4.655  10.746  0.9597  0.9260 -0.4586
 6022TIP3   OH239480   4.053   1.267   5.701 -0.4254 -0.4332 -0.3183
 6022TIP3    H139481   4.111   1.310   5.765 -1.4210  2.2516 -1.1369
 6022TIP3    H239482   4.038   1.180   5.737  0.4838  0.4009  2.2094
 6023TIP3   OH239483   3.953   1.632   1.587 -0.1791 -0.3659 -0.1860
 6023TIP3    H139484   3.907   1.562   1.634 -1.4719  1.3151  1.1219
 6023TIP3    H239485   4.005   1.675   1.655 -0.8391  1.0871 -0.5835
 6024TIP3   OH239486   1.611   1.027  14.377 -0.1423 -0.7477 -0.2212
 6024TIP3    H139487   1.618   0.968  14.452 -0.4884  0.0498  0.4414
 6024TIP3    H239488   1.519   1.056  14.378  0.1698  0.2515 -0.2108
 6025TIP3   OH239489   5.248   2.030   3.623  0.0042  0.0104  0.7004
 6025TIP3    H139490   5.301   1.951   3.634  1.4108  0.9742  0.9751
 6025TIP3    H239491   5.312   2.102   3.620 -1.1357  0.9833 -1.3534
 6026TIP3   OH239492   2.014   4.992  15.648 -0.4126  0.5002 -0.2426
 6026TIP3    H139493   2.034   5.084  15.636 -0.1734  0.6984  1.5217
 6026TIP3    H239494   2.093   4.946  15.621 -0.4847  0.8165 -0.9911
 6027TIP3   OH239495   4.884   6.209   2.433 -0.3941 -0.3244 -0.1803
 6027TIP3    H139496   4.806   6.158   2.411  0.0622 -0.6807 -1.0168
 6027TIP3    H239497   4.953   6.144   2.441  0.1487  0.1346 -1.0394
 6028TIP3   OH239498   4.331   5.979   2.495  0.1821 -0.1952  0.1434
 6028TIP3    H139499   4.397   6.006   2.559 -0.6686 -0.5878  1.1937
 6028TIP3    H239500   4.302   5.893   2.524 -2.1237  0.7435  0.7778
 6029TIP3   OH239501   5.690   4.105  12.145  0.4142 -0.2538 -0.3331
 6029TIP3    H139502   5.657   4.101  12.235  0.8389 -1.0138 -0.2110
 6029TIP3    H239503   5.611   4.119  12.091  0.1327 -0.0406  0.1294
 6030TIP3   OH239504   4.597   4.445  11.270  0.3891  0.4155 -0.3848
 6030TIP3    H139505   4.502   4.435  11.273  0.4862  0.0586  2.2336
 6030TIP3    H239506   4.615   4.469  11.179 -2.1440  0.0120 -1.0360
 6031TIP3   OH239507   5.731   5.100   0.086 -0.6933 -0.1896  0.0484
 6031TIP3    H139508   5.805   5.068   0.139 -1.0399  0.0911  0.7089
 6031TIP3    H239509   5.768   5.113  -0.001  0.0633  0.0167  0.3919
 6032TIP3   OH239510   0.838   6.266   5.256  0.3525  0.0298  0.1860
 6032TIP3    H139511   0.801   6.178   5.249 -0.2214  0.2725  0.1108
 6032TIP3    H239512   0.867   6.273   5.347 -0.5884  0.1422  0.4829
 6033TIP3   OH239513   4.579   6.098  15.305  0.2600  0.5100  0.0844
 6033TIP3    H139514   4.560   6.041  15.231 -1.2618  0.6306  0.3646
 6033TIP3    H239515   4.507   6.161  15.306  1.0789  1.4588  0.7424
 6034TIP3   OH239516   4.225   0.940   2.461  0.0102 -0.0261  0.2062
 6034TIP3    H139517   4.151   0.881   2.453  0.7779 -1.2053  1.5639
 6034TIP3    H239518   4.189   1.020   2.500 -0.3700 -1.0111  1.9331
 6035TIP3   OH239519   3.825   5.737  14.779 -0.3236 -0.3545 -0.2027
 6035TIP3    H139520   3.764   5.711  14.848  0.3946 -0.5583  0.3696
 6035TIP3    H239521   3.806   5.829  14.763 -0.3901 -0.2609  0.3941
 6036TIP3   OH239522   0.184   5.567  16.937  0.2191  0.0595  0.1788
 6036TIP3    H139523   0.224   5.502  16.995 -1.6197  0.5847  2.1038
 6036TIP3    H239524   0.253   5.589  16.874  1.8652 -1.4418  1.4122
 6037TIP3   OH239525   3.183   6.054   0.257 -0.0348 -0.1206 -0.3159
 6037TIP3    H139526   3.163   6.075   0.166  1.8835 -2.6119 -1.3836
 6037TIP3    H239527   3.255   6.113   0.280 -1.8061  1.8776  0.2828
 6038TIP3   OH239528   1.504   5.971  13.161 -0.2697  0.1797  0.1102
 6038TIP3    H139529   1.587   5.999  13.199 -0.9706 -0.2339  1.9577
 6038TIP3    H239530   1.437   6.003  13.221 -1.3434 -1.3205 -0.2535
 6039TIP3   OH239531   5.100   6.347  12.630 -0.1898 -0.4072  0.2854
 6039TIP3    H139532   5.183   6.298  12.631 -1.3569 -2.4385  1.6130
 6039TIP3    H239533   5.069   6.339  12.540  1.5451  1.2372 -0.4742
 6040TIP3   OH239534   1.184   3.945   4.639  0.7735  0.7378 -0.8850
 6040TIP3    H139535   1.233   4.010   4.588 -1.3387  0.8546 -2.8260
 6040TIP3    H239536   1.094   3.977   4.638  0.2898 -0.5187  0.9427
 6041TIP3   OH239537   3.765   4.014  11.734  0.6131 -0.4100  0.3435
 6041TIP3    H139538   3.782   3.985  11.824 -1.1369 -0.0214  0.8160
 6041TIP3    H239539   3.806   4.100  11.728 -1.6651  0.8419  1.6979
 6042TIP3   OH239540   6.137   5.189  15.916 -0.3272 -0.1868 -0.2916
 6042TIP3    H139541   6.179   5.272  15.938  1.2894 -1.0760  0.0002
 6042TIP3    H239542   6.143   5.183  15.820  0.4533 -0.4444 -0.2247
 6043TIP3   OH239543   2.611   1.114  11.714 -0.0093  0.2239  0.5745
 6043TIP3    H139544   2.693   1.072  11.690 -0.8570 -0.7816 -0.6265
 6043TIP3    H239545   2.622   1.206  11.690  0.4617 -0.0741 -0.3546
 6044TIP3   OH239546   0.554   6.300  13.341  0.0138  0.1595 -0.2512
 6044TIP3    H139547   0.515   6.259  13.264  1.0646  0.4890 -0.9646
 6044TIP3    H239548   0.648   6.298  13.325  0.1595  1.6765  0.2969
 6045TIP3   OH239549   2.721   5.139   0.836 -0.2217 -0.1539  0.3526
 6045TIP3    H139550   2.682   5.138   0.748  0.0666  1.1327  0.2072
 6045TIP3    H239551   2.688   5.220   0.876  0.9810  0.1020  0.8313
 6046TIP3   OH239552   5.514   5.788   4.481 -0.2005 -0.2806  0.5998
 6046TIP3    H139553   5.513   5.805   4.575  0.8909 -0.8331  0.7091
 6046TIP3    H239554   5.590   5.732   4.467 -2.2782 -3.0382 -0.1319
 6047TIP3   OH239555   4.242   2.353   1.805 -0.8944  0.0691 -0.7034
 6047TIP3    H139556   4.229   2.447   1.791 -0.5538  0.2958  0.4370
 6047TIP3    H239557   4.335   2.339   1.788 -0.1429  0.6169  2.5911
 6048TIP3   OH239558   4.623   6.068   1.387  0.0063 -0.0355  1.0067
 6048TIP3    H139559   4.682   6.023   1.327  0.5257 -0.3571  1.7484
 6048TIP3    H239560   4.537   6.063   1.345  0.7759  1.7577 -0.7839
 6049TIP3   OH239561   3.349   6.124   3.422 -0.4646  0.1503  0.2756
 6049TIP3    H139562   3.423   6.144   3.479 -2.1748  2.8626  1.6432
 6049TIP3    H239563   3.281   6.091   3.481 -1.4911  0.8836 -0.4767
 6050TIP3   OH239564   0.205   4.255   0.341  0.1848 -0.0722  0.0689
 6050TIP3    H139565   0.217   4.323   0.275 -0.2601 -1.4892 -1.5012
 6050TIP3    H239566   0.110   4.242   0.346  0.3162 -1.2916 -0.4001
 6051TIP3   OH239567   2.487   3.953   3.957  0.3570 -0.1509 -0.4493
 6051TIP3    H139568   2.411   3.895   3.964 -0.5092  1.2506  2.6170
 6051TIP3    H239569   2.538   3.934   4.036  1.6384  1.0842 -0.9595
 6052TIP3   OH239570   3.566   0.889   6.334 -0.6655 -0.3237 -0.0566
 6052TIP3    H139571   3.637   0.845   6.382 -1.2963  0.1354  1.3299
 6052TIP3    H239572   3.487   0.867   6.384 -1.5525 -1.0435 -1.7321
 6053TIP3   OH239573   6.738   2.482   1.933  0.0268 -0.0003 -0.0058
 6053TIP3    H139574   6.795   2.405   1.922 -0.4184 -0.3974  0.4591
 6053TIP3    H239575   6.700   2.471   2.020  0.3150  0.9863  0.2419
 6054TIP3   OH239576   5.549   4.023  11.226  0.8954  0.1173  0.2277
 6054TIP3    H139577   5.486   4.025  11.298  0.1395  1.8075 -0.4603
 6054TIP3    H239578   5.546   3.932  11.195  0.3079 -0.3231  1.5063
 6055TIP3   OH239579   1.167   2.321   4.743  0.4840  0.0938 -0.0777
 6055TIP3    H139580   1.144   2.394   4.686  1.3265 -1.0817 -1.9683
 6055TIP3    H239581   1.087   2.269   4.749 -0.0478  1.0155  1.0800
 6056TIP3   OH239582   6.379   6.352  16.222 -0.1155 -0.1272 -0.3634
 6056TIP3    H139583   6.450   6.303  16.264 -0.2992  1.0355  1.3252
 6056TIP3    H239584   6.415   6.377  16.136  1.8465  1.2181  0.8198
 6057TIP3   OH239585   2.929   0.320   2.629  0.2264 -0.5996  0.0022
 6057TIP3    H139586   2.891   0.243   2.672  1.8246 -0.6175  1.4129
 6057TIP3    H239587   2.955   0.378   2.701 -0.5204  1.0751 -1.0257
 6058TIP3   OH239588   4.776   0.306   6.278 -0.0192 -0.3600 -0.4697
 6058TIP3    H139589   4.730   0.369   6.333  0.4420  0.9110 -1.5155
 6058TIP3    H239590   4.851   0.278   6.330 -1.9716 -2.5439  1.3028
 6059TIP3   OH239591   6.687   2.080  13.101 -0.6958 -0.6875  0.5513
 6059TIP3    H139592   6.622   2.129  13.152  0.6794  1.8932 -0.0857
 6059TIP3    H239593   6.703   2.135  13.024  1.0397 -2.0763 -0.1084
 6060TIP3   OH239594   2.911   2.302   1.328 -0.8455  0.7464 -0.2513
 6060TIP3    H139595   2.894   2.394   1.347  1.3990  1.2032 -0.3983
 6060TIP3    H239596   2.962   2.271   1.402 -0.2236  0.0460 -0.9664
 6061TIP3   OH239597   5.242   1.361   1.169  0.1450  0.1398 -0.1608
 6061TIP3    H139598   5.151   1.338   1.190  0.8814 -1.2614  1.5834
 6061TIP3    H239599   5.269   1.419   1.240  0.9700 -0.3584 -0.0656
 6062TIP3   OH239600   0.437   6.698   1.504 -0.3931 -0.0747  0.2213
 6062TIP3    H139601   0.347   6.712   1.475 -0.4680 -1.9369 -0.5008
 6062TIP3    H239602   0.491   6.743   1.439 -0.8107  1.8786  1.1855
 6063TIP3   OH239603   6.294   0.926  15.618  0.0377  0.0990 -0.0522
 6063TIP3    H139604   6.251   1.004  15.654  0.2311  0.7315 -1.1562
 6063TIP3    H239605   6.387   0.940  15.635  0.2714  1.0505 -1.9560
 6064TIP3   OH239606   2.918   4.586  14.229 -0.0300  0.0237 -0.2956
 6064TIP3    H139607   2.988   4.549  14.284 -1.3003 -0.6765  0.8901
 6064TIP3    H239608   2.841   4.587  14.286 -1.3215 -0.4474 -1.9951
 6065TIP3   OH239609   5.204   0.451   4.980  0.9921 -0.2840  0.2022
 6065TIP3    H139610   5.282   0.477   5.028  0.4695  2.1746 -0.1823
 6065TIP3    H239611   5.216   0.488   4.892 -0.7542  0.5000  0.2640
 6066TIP3   OH239612   3.512   1.604   5.640 -0.0690 -0.5106  0.9336
 6066TIP3    H139613   3.492   1.569   5.727  0.8541 -1.8043  0.6534
 6066TIP3    H239614   3.608   1.609   5.638 -0.1218  0.3472  0.2997
 6067TIP3   OH239615   2.845   0.262  11.213  0.0575 -0.0261  0.6553
 6067TIP3    H139616   2.791   0.329  11.171  0.9982  1.6372  2.0105
 6067TIP3    H239617   2.898   0.226  11.141 -0.3588  0.8007 -0.0807
 6068TIP3   OH239618   5.558   0.821   5.239  0.0261  0.3940  0.1833
 6068TIP3    H139619   5.562   0.876   5.317  0.5463  0.4092  0.1487
 6068TIP3    H239620   5.522   0.738   5.270  1.4628 -0.0471  0.7031
 6069TIP3   OH239621   5.203   1.701   2.935  0.2034 -0.0359  0.0017
 6069TIP3    H139622   5.260   1.748   2.875 -2.9603  1.4617 -1.9548
 6069TIP3    H239623   5.174   1.624   2.886  0.9531 -1.1018  1.1865
 6070TIP3   OH239624   6.097   3.027  12.715 -0.3898 -0.3084 -0.1807
 6070TIP3    H139625   6.075   3.119  12.705  0.1026 -0.2005 -0.2617
 6070TIP3    H239626   6.044   2.997  12.789  1.6655  0.7766  1.7900
 6071TIP3   OH239627   5.904   2.025   3.750 -0.2240 -0.0058 -0.0362
 6071TIP3    H139628   5.976   1.971   3.781  0.0012 -0.2753 -1.0063
 6071TIP3    H239629   5.826   1.985   3.790  0.1879  0.5492  1.3593
 6072TIP3   OH239630   6.429   0.360   2.187 -0.2319  0.3231 -0.0432
 6072TIP3    H139631   6.383   0.307   2.251 -0.4484  0.6601  0.0826
 6072TIP3    H239632   6.498   0.404   2.237  1.3225 -1.4813 -0.5352
 6073TIP3   OH239633   0.609   4.635   3.186  0.2272  0.1084 -0.0255
 6073TIP3    H139634   0.634   4.599   3.101 -2.0085  1.5505 -1.3472
 6073TIP3    H239635   0.607   4.729   3.173 -3.3561  0.2023  0.6348
 6074TIP3   OH239636   6.094   2.416  13.442 -0.6339 -0.5988  0.0062
 6074TIP3    H139637   6.144   2.384  13.367 -1.6141 -0.8488 -0.5502
 6074TIP3    H239638   6.018   2.357  13.447  0.1352 -1.4595  2.0404
 6075TIP3   OH239639   3.509   1.969   1.721 -0.0738  0.3668 -0.5288
 6075TIP3    H139640   3.546   1.988   1.807 -1.4950 -1.8866  0.6200
 6075TIP3    H239641   3.579   1.988   1.659  1.4016  0.7055  1.2242
 6076TIP3   OH239642   5.751   3.467   6.217  0.0869 -0.2412 -0.3540
 6076TIP3    H139643   5.722   3.379   6.240  1.1984 -0.2877  0.9382
 6076TIP3    H239644   5.808   3.493   6.289  0.0382  1.4062 -0.8934
 6077TIP3   OH239645   5.066   2.045   3.168 -0.3206 -0.1346  0.2891
 6077TIP3    H139646   5.073   1.972   3.230  1.4064 -0.2372  0.0074
 6077TIP3    H239647   5.072   2.123   3.222 -1.4432 -0.2066  0.5180
 6078TIP3   OH239648   2.831   5.857   5.034 -0.0648  0.2197 -0.0874
 6078TIP3    H139649   2.784   5.867   5.116  0.9427  0.2109  0.5050
 6078TIP3    H239650   2.820   5.941   4.990  0.1386  0.5359  0.4619
 6079TIP3   OH239651   0.177   4.948   4.360  0.3312 -0.1133 -0.8670
 6079TIP3    H139652   0.269   4.962   4.337  0.4272  2.0681  0.7415
 6079TIP3    H239653   0.180   4.913   4.449 -0.4227  0.8040 -0.4762
 6080TIP3   OH239654   3.201   3.018  10.767 -0.3645 -0.3077  0.6214
 6080TIP3    H139655   3.232   2.928  10.768 -0.3574 -0.3337 -0.5007
 6080TIP3    H239656   3.267   3.067  10.815 -0.1664 -0.8409  0.8978
 6081TIP3   OH239657   6.030   4.798  17.232  0.6559  0.1521 -0.0941
 6081TIP3    H139658   6.049   4.771  17.142  0.1473 -1.5770  0.3037
 6081TIP3    H239659   6.116   4.799  17.274  0.7488 -0.2834 -0.2691
 6082TIP3   OH239660   6.467   5.585   1.308  0.3051 -0.2682 -0.0450
 6082TIP3    H139661   6.491   5.669   1.270  0.1404 -0.0635  0.3015
 6082TIP3    H239662   6.528   5.574   1.381  0.8696 -0.8368 -0.5971
 6083TIP3   OH239663   2.367   3.832  16.371  0.6998  0.2959  0.3294
 6083TIP3    H139664   2.401   3.903  16.425 -0.0134 -0.5793  1.9610
 6083TIP3    H239665   2.407   3.846  16.285  2.6855  1.1177  1.3520
 6084TIP3   OH239666   2.943   1.902  15.889  0.2410  0.0448 -0.1018
 6084TIP3    H139667   2.896   1.842  15.948  0.7527 -2.1087 -1.8210
 6084TIP3    H239668   2.964   1.977  15.944 -1.2976 -0.9019  1.8710
 6085TIP3   OH239669   2.719   0.488  13.889  0.1578 -0.6652  0.1583
 6085TIP3    H139670   2.652   0.421  13.902 -2.7617  1.8794 -1.1346
 6085TIP3    H239671   2.717   0.540  13.970  1.4929 -1.3614  0.6397
 6086TIP3   OH239672   5.130   3.778  12.170 -0.5458  0.6774  0.0383
 6086TIP3    H139673   5.147   3.703  12.228 -2.5635  0.6543  0.6694
 6086TIP3    H239674   5.046   3.757  12.128 -0.6956  2.1734 -0.4424
 6087TIP3   OH239675   4.368   3.095  16.260 -0.4178 -0.1995  0.3507
 6087TIP3    H139676   4.278   3.082  16.290 -0.2707  0.0195  0.9078
 6087TIP3    H239677   4.380   3.190  16.259 -0.1786 -0.2277  0.3309
 6088TIP3   OH239678   3.514   3.048   2.181  0.3551  0.2128  0.3735
 6088TIP3    H139679   3.557   2.963   2.194  1.9969  1.0943  0.9288
 6088TIP3    H239680   3.428   3.027   2.145  0.3626 -1.7294  1.4609
 6089TIP3   OH239681   6.126   0.095  12.092 -0.2750  0.3038 -0.2815
 6089TIP3    H139682   6.103   0.171  12.146  0.9569 -0.0511  0.7839
 6089TIP3    H239683   6.131   0.022  12.154  1.3204 -0.0781 -0.8219
 6090TIP3   OH239684   4.682   0.073   5.071 -0.1572 -0.4900 -0.5723
 6090TIP3    H139685   4.704   0.163   5.095 -0.6960 -0.3395 -0.6297
 6090TIP3    H239686   4.586   0.069   5.077 -0.0841 -1.2688  0.1611
 6091TIP3   OH239687   3.916   0.197  12.569 -0.3282 -0.4550 -0.3450
 6091TIP3    H139688   3.952   0.285  12.585  0.2009 -1.1215  2.2910
 6091TIP3    H239689   3.991   0.146  12.539 -0.0363 -0.6799  0.7431
 6092TIP3   OH239690   2.997   1.502  15.264  0.2666  0.4081  0.0342
 6092TIP3    H139691   3.018   1.409  15.268 -1.2883  0.0320 -0.3449
 6092TIP3    H239692   2.992   1.523  15.171  0.4208  0.8326  0.1163
 6093TIP3   OH239693   0.053   0.548  12.641 -0.3584 -0.4156 -0.2615
 6093TIP3    H139694  -0.039   0.521  12.640 -0.2026 -0.9853  0.5714
 6093TIP3    H239695   0.101   0.469  12.665  0.3371 -0.0773 -0.5330
 6094TIP3   OH239696   3.236   6.681  14.826 -0.6194  0.1771 -0.4135
 6094TIP3    H139697   3.299   6.712  14.892 -0.6102  0.8464 -0.7347
 6094TIP3    H239698   3.215   6.759  14.775 -0.7608 -0.3075 -1.0937
 6095TIP3   OH239699   0.881   4.307   6.502 -0.4107  0.0684 -0.5808
 6095TIP3    H139700   0.936   4.242   6.458  0.3885 -0.7770  1.6031
 6095TIP3    H239701   0.943   4.368   6.542 -1.1291  0.9725 -0.8207
 6096TIP3   OH239702   2.596   6.533   2.776  0.1686  0.4244  0.0803
 6096TIP3    H139703   2.515   6.580   2.793  1.3774  2.2483  1.0378
 6096TIP3    H239704   2.620   6.557   2.686 -0.2325  0.0648 -0.1218
 6097TIP3   OH239705   5.993   0.672  16.747 -0.2878 -0.5121  0.4448
 6097TIP3    H139706   5.964   0.581  16.734 -0.5043 -0.5785  1.3740
 6097TIP3    H239707   6.020   0.676  16.838 -2.5323  0.9552  1.0979
 6098TIP3   OH239708   5.597   0.234  12.412 -0.6952  0.1467  0.0809
 6098TIP3    H139709   5.545   0.314  12.405 -0.4554  0.1164 -2.6432
 6098TIP3    H239710   5.688   0.264  12.414 -0.6315 -0.0234 -0.2302
 6099TIP3   OH239711   5.831   0.239   2.916  0.5074  0.3263  0.0000
 6099TIP3    H139712   5.805   0.258   2.826 -2.1991  3.2796  1.2800
 6099TIP3    H239713   5.748   0.230   2.964  1.8764 -2.2019  2.0351
 6100TIP3   OH239714   2.133   2.583   1.127  0.2888  0.1933 -0.2626
 6100TIP3    H139715   2.040   2.562   1.136 -0.0224  1.2308 -0.9626
 6100TIP3    H239716   2.170   2.564   1.213 -0.4723 -0.7002 -0.1219
 6101TIP3   OH239717   1.551   6.265  12.247 -0.1261  0.4600  0.0376
 6101TIP3    H139718   1.641   6.275  12.278 -0.2074 -0.1181  0.4597
 6101TIP3    H239719   1.542   6.331  12.178  0.7322  0.2851 -0.2478
 6102TIP3   OH239720   1.962   0.096  11.640 -0.0072 -0.2439  0.0197
 6102TIP3    H139721   2.053   0.117  11.663  0.0592 -0.6375  0.1267
 6102TIP3    H239722   1.922   0.180  11.618  0.9117 -0.2948 -1.9359
 6103TIP3   OH239723   0.045   4.399   5.718 -0.2679 -0.4777  0.3352
 6103TIP3    H139724  -0.040   4.416   5.678 -1.0145 -0.2429  1.9844
 6103TIP3    H239725   0.029   4.404   5.812  1.2612 -1.9276  0.7019
 6104TIP3   OH239726   3.919   2.215  12.341  0.6209  0.1156 -0.7890
 6104TIP3    H139727   3.931   2.301  12.382 -0.6859 -0.3361  0.6056
 6104TIP3    H239728   3.842   2.226  12.285 -0.3066 -0.4437  0.3423
 6105TIP3   OH239729   4.594   1.589  14.725 -0.3501 -0.7589  0.2916
 6105TIP3    H139730   4.626   1.616  14.639 -0.8110  0.1409  0.3992
 6105TIP3    H239731   4.529   1.521  14.706 -0.1635 -0.8431 -0.0508
 6106TIP3   OH239732   3.210   3.014   4.507 -0.7164 -0.6710 -0.1350
 6106TIP3    H139733   3.246   2.926   4.503 -0.4844 -0.6113  0.6907
 6106TIP3    H239734   3.192   3.029   4.600 -0.8136  0.1289 -0.2792
 6107TIP3   OH239735   2.653   2.128  13.466 -0.3443  0.2097 -0.1233
 6107TIP3    H139736   2.720   2.135  13.398 -0.5305 -1.0644 -0.4617
 6107TIP3    H239737   2.690   2.067  13.530 -0.5354  0.7149  0.4731
 6108TIP3   OH239738   2.918   5.940  11.472  0.3772  0.5714  0.0251
 6108TIP3    H139739   2.831   5.973  11.494 -0.1986 -0.3360 -0.8810
 6108TIP3    H239740   2.917   5.849  11.499  1.2920  0.7477  0.6647
 6109TIP3   OH239741   4.131   0.286  16.503  0.3464 -0.3920 -1.2022
 6109TIP3    H139742   4.098   0.250  16.585  1.4630 -1.0662 -1.0389
 6109TIP3    H239743   4.087   0.371  16.494  2.5492  1.1279  1.6825
 6110TIP3   OH239744   1.715   2.912   5.885  0.2230  0.1376  0.3930
 6110TIP3    H139745   1.782   2.975   5.858 -0.0416  1.1945  2.1035
 6110TIP3    H239746   1.760   2.855   5.948 -0.1381  0.0170  0.5421
 6111TIP3   OH239747   5.498   1.322   2.555  0.6412 -0.1277  0.2431
 6111TIP3    H139748   5.442   1.352   2.483  0.6049 -0.5770  0.0832
 6111TIP3    H239749   5.442   1.324   2.632 -0.2436 -2.5976 -0.2675
 6112TIP3   OH239750   3.193   0.758   4.104  0.1480 -0.1815  0.4273
 6112TIP3    H139751   3.113   0.762   4.156 -0.7772  0.0968 -0.9751
 6112TIP3    H239752   3.198   0.843   4.060 -0.2351 -1.1490 -1.5550
 6113TIP3   OH239753   2.070   4.842   1.695 -0.0762 -0.2730 -0.6138
 6113TIP3    H139754   2.076   4.863   1.602 -0.9049 -0.6960 -0.7627
 6113TIP3    H239755   1.998   4.897   1.728 -1.2058 -1.6815 -0.6741
 6114TIP3   OH239756   3.523   2.709  11.095 -0.3110  0.1807 -0.1519
 6114TIP3    H139757   3.563   2.795  11.104 -1.0853  0.3923  1.4314
 6114TIP3    H239758   3.528   2.689  11.001  0.1337  1.8128 -0.4769
 6115TIP3   OH239759   3.920   4.096  17.204 -0.3567 -0.0756  0.3272
 6115TIP3    H139760   3.918   4.152  17.126 -1.4987 -0.9325 -0.2796
 6115TIP3    H239761   3.827   4.081  17.225 -0.1249 -3.0322 -0.4863
 6116TIP3   OH239762   3.325   6.060  12.435  0.3312 -0.5333  0.2808
 6116TIP3    H139763   3.349   5.975  12.398  0.7306 -0.6175  0.7286
 6116TIP3    H239764   3.345   6.052  12.529 -0.9080 -0.4117  0.5597
 6117TIP3   OH239765   3.559   0.434   0.775 -0.1118 -0.5891 -0.2545
 6117TIP3    H139766   3.532   0.506   0.833 -0.0052  0.8189 -1.9274
 6117TIP3    H239767   3.494   0.433   0.706  1.3786 -0.3371 -1.6882
 6118TIP3   OH239768   3.315   4.579   3.450 -1.0217  0.1010 -0.7748
 6118TIP3    H139769   3.245   4.614   3.396 -1.0258  2.6153  0.7809
 6118TIP3    H239770   3.392   4.632   3.428 -0.4731 -0.3408  0.0287
 6119TIP3   OH239771   3.824   3.463   0.617 -0.4814 -0.3923  0.1036
 6119TIP3    H139772   3.823   3.413   0.699 -0.2172 -1.5468 -0.5938
 6119TIP3    H239773   3.733   3.490   0.605 -0.3884  0.4250  1.1660
 6120TIP3   OH239774   0.181   1.914  11.403  0.0580  0.4065 -0.2064
 6120TIP3    H139775   0.211   1.913  11.312  0.6870 -3.0474 -0.0252
 6120TIP3    H239776   0.193   1.823  11.433  1.0239  1.7304  3.7014
 6121TIP3   OH239777   6.775   5.229   5.682  0.2581 -0.6596  0.2784
 6121TIP3    H139778   6.763   5.140   5.714 -0.3288 -2.1879 -3.9387
 6121TIP3    H239779   6.820   5.219   5.598 -0.4663  2.9686 -0.6420
 6122TIP3   OH239780   6.208   4.097   0.724 -0.7837  0.0609  0.2077
 6122TIP3    H139781   6.296   4.070   0.700 -0.8963 -0.7047  0.6198
 6122TIP3    H239782   6.193   4.055   0.809 -0.6422  2.1296  1.2933
 6123TIP3   OH239783   5.874   5.462   5.323 -0.4205 -0.5181 -0.2481
 6123TIP3    H139784   5.789   5.423   5.344 -0.3128  0.5056  2.2858
 6123TIP3    H239785   5.938   5.406   5.367  0.0427  0.0515 -0.1813
 6124TIP3   OH239786   0.465   2.891  16.510 -0.6699  0.4229 -0.3194
 6124TIP3    H139787   0.452   2.830  16.583  1.5539  0.9738  0.5733
 6124TIP3    H239788   0.415   2.853  16.438 -1.0991 -1.2938  0.8472
 6125TIP3   OH239789   3.393   2.934   4.923 -0.0396 -0.3199  0.1341
 6125TIP3    H139790   3.477   2.972   4.896  0.2131 -1.4430 -0.6630
 6125TIP3    H239791   3.397   2.933   5.019  0.5729  0.2670  0.1197
 6126TIP3   OH239792   4.635   0.474   1.813 -0.3883 -0.9711 -0.1030
 6126TIP3    H139793   4.572   0.533   1.773  2.5656  2.0657 -0.5233
 6126TIP3    H239794   4.653   0.409   1.746 -0.5204  0.1457 -1.2355
 6127TIP3   OH239795   0.650   2.696  12.031 -0.1062 -0.3258 -0.0688
 6127TIP3    H139796   0.575   2.678  12.088 -0.7002  0.9016 -0.4573
 6127TIP3    H239797   0.725   2.664  12.081 -0.9210 -2.1452  0.0704
 6128TIP3   OH239798   1.295   1.688  13.620  0.2349 -0.0986  0.4661
 6128TIP3    H139799   1.348   1.608  13.617  0.2118 -0.1185  0.6156
 6128TIP3    H239800   1.356   1.756  13.646 -0.0028 -0.2714  1.4655
 6129TIP3   OH239801   5.871   6.652  12.250 -0.8102 -0.1136  0.4991
 6129TIP3    H139802   5.843   6.562  12.268 -0.1270 -0.8808 -1.9556
 6129TIP3    H239803   5.967   6.649  12.255 -0.7718  0.3957  0.1526
 6130TIP3   OH239804   1.948   0.448  14.287 -0.4429  0.1493  0.3922
 6130TIP3    H139805   1.964   0.358  14.258 -0.8284 -0.2512  1.3886
 6130TIP3    H239806   1.917   0.494  14.209 -1.2732 -0.8600  0.1237
 6131TIP3   OH239807   2.662   0.966   2.331  0.6302 -0.3822 -0.1735
 6131TIP3    H139808   2.721   1.038   2.312  0.8723 -0.0428  1.7598
 6131TIP3    H239809   2.609   0.956   2.252  0.7830  1.7441 -0.5572
 6132TIP3   OH239810   5.612   3.818  10.804 -0.1531  0.2664  0.3695
 6132TIP3    H139811   5.617   3.747  10.868  0.2198 -0.5107 -0.5217
 6132TIP3    H239812   5.518   3.838  10.798 -0.0823  1.2720  2.1558
 6133TIP3   OH239813   5.342   0.005  16.893  0.2276  0.2007  0.3756
 6133TIP3    H139814   5.408   0.071  16.875  0.4806  0.1099  0.9612
 6133TIP3    H239815   5.368  -0.033  16.977 -0.1028 -0.4094  0.2040
 6134TIP3   OH239816   0.622   6.290   1.212 -0.2934  0.3235  0.8077
 6134TIP3    H139817   0.711   6.301   1.178  0.1472 -1.0639  1.4559
 6134TIP3    H239818   0.593   6.206   1.175 -0.5498 -0.2296  2.2241
 6135TIP3   OH239819   3.812   3.412   0.134  0.6244 -0.6248  0.5784
 6135TIP3    H139820   3.754   3.356   0.185 -0.1662 -1.8886 -1.6212
 6135TIP3    H239821   3.873   3.351   0.091  1.7556  0.4642  0.6062
 6136TIP3   OH239822   0.107   3.925   2.350  0.0938 -0.0413 -0.8002
 6136TIP3    H139823   0.198   3.898   2.348  0.3033  0.4379  1.0089
 6136TIP3    H239824   0.066   3.867   2.414 -0.1200  1.8278  0.8214
 6137TIP3   OH239825   3.217   5.198  14.896 -0.0501  0.0164  0.0635
 6137TIP3    H139826   3.268   5.267  14.855 -0.3097 -1.3044 -2.5722
 6137TIP3    H239827   3.145   5.243  14.940  0.8136  1.5343 -0.0487
 6138TIP3   OH239828   4.378   3.067   5.312  0.2795 -0.0931  0.6385
 6138TIP3    H139829   4.440   3.007   5.353  0.6973  0.3190  0.6087
 6138TIP3    H239830   4.301   3.013   5.293  0.4628 -0.5054  1.0676
 6139TIP3   OH239831   2.473   6.774   4.024  0.5941  0.1305 -0.7110
 6139TIP3    H139832   2.417   6.837   4.070 -0.8780 -1.9355  0.3723
 6139TIP3    H239833   2.420   6.695   4.015  3.1081 -1.6907 -0.2051
 6140TIP3   OH239834   0.033   3.615  13.733  0.2209  0.6024 -0.5025
 6140TIP3    H139835   0.011   3.526  13.705  1.4083  0.8545 -2.3156
 6140TIP3    H239836  -0.035   3.670  13.694  0.6375  0.7097 -1.0833
 6141TIP3   OH239837   2.361   2.293   5.732 -0.0806  0.2739 -0.2776
 6141TIP3    H139838   2.417   2.363   5.764  1.2687 -0.5245 -0.8279
 6141TIP3    H239839   2.280   2.336   5.708  0.9384  1.7478 -1.1568
 6142TIP3   OH239840   0.412   2.307  15.689 -0.2501  0.0085  0.0963
 6142TIP3    H139841   0.326   2.303  15.648 -0.3837  0.2215  0.3519
 6142TIP3    H239842   0.394   2.299  15.783 -0.1187  1.4408  0.2541
 6143TIP3   OH239843   4.014   6.270   1.130 -0.2250  0.1499  0.1043
 6143TIP3    H139844   4.079   6.244   1.195 -0.1633 -0.2904 -0.1295
 6143TIP3    H239845   3.987   6.358   1.156  2.0361  1.2218 -1.0179
 6144TIP3   OH239846   1.385   6.226   6.211 -0.0549  0.0500 -0.2534
 6144TIP3    H139847   1.394   6.151   6.269  1.1030  0.7735  0.5161
 6144TIP3    H239848   1.450   6.212   6.143  0.5002  0.6058  0.1621
 6145TIP3   OH239849   4.796   1.015   2.823  0.1610  0.2068  0.2469
 6145TIP3    H139850   4.775   0.971   2.905 -0.8221  3.3229  1.7734
 6145TIP3    H239851   4.715   1.010   2.772 -0.0466  0.5133  0.5447
 6146TIP3   OH239852   1.206   0.289   5.838  0.3852  0.0081  0.2912
 6146TIP3    H139853   1.111   0.293   5.849  0.3165  1.1422 -0.6184
 6146TIP3    H239854   1.237   0.376   5.863  1.2481 -0.5447  1.1430
 6147TIP3   OH239855   4.972   2.514   6.119 -0.4651 -0.2882 -0.4168
 6147TIP3    H139856   4.939   2.575   6.053  0.2191  1.1071  0.5304
 6147TIP3    H239857   4.937   2.546   6.202  1.8035  0.2086  0.3842
 6148TIP3   OH239858   4.308   1.312   5.415  0.1042  0.7188  0.1620
 6148TIP3    H139859   4.364   1.284   5.487 -1.7916 -1.1082  0.9812
 6148TIP3    H239860   4.251   1.379   5.453 -1.0306 -0.3877  0.4532
 6149TIP3   OH239861   1.308   4.511   6.245 -0.5937  0.3020  0.0041
 6149TIP3    H139862   1.285   4.455   6.171 -0.2069  1.1378 -0.7625
 6149TIP3    H239863   1.384   4.469   6.285 -1.0689 -0.3825  0.1852
 6150TIP3   OH239864   5.333   3.523   5.774  0.5418 -0.3533 -0.2781
 6150TIP3    H139865   5.305   3.601   5.726 -0.5715 -1.3947 -1.3731
 6150TIP3    H239866   5.428   3.522   5.765  0.5700  0.9284 -0.1652
 6151TIP3   OH239867   1.437   5.262  12.027  0.4572  0.0938  0.0396
 6151TIP3    H139868   1.474   5.275  12.114 -1.0734  1.2109  0.5400
 6151TIP3    H239869   1.425   5.350  11.992  0.0951 -0.3125 -0.8911
 6152TIP3   OH239870   2.821   1.167  15.777 -0.2450  0.6545 -0.2806
 6152TIP3    H139871   2.782   1.253  15.789 -0.5008  0.3000  1.5122
 6152TIP3    H239872   2.782   1.113  15.846  2.7043  0.0585  0.9881
 6153TIP3   OH239873   1.868   4.127  13.975  0.3976  0.3111 -0.8148
 6153TIP3    H139874   1.901   4.172  14.054  1.1205  0.8197 -1.3971
 6153TIP3    H239875   1.944   4.078  13.943 -0.6344 -2.0794  0.3383
 6154TIP3   OH239876   5.808   3.572  14.267  0.0505  0.1103 -0.0511
 6154TIP3    H139877   5.861   3.603  14.194  1.0489 -1.2436  0.0822
 6154TIP3    H239878   5.726   3.544  14.226 -0.6789  2.4497 -0.2254
 6155TIP3   OH239879   4.218   3.434  11.898  0.0078  0.3729  0.1524
 6155TIP3    H139880   4.164   3.356  11.888 -1.1581  1.3311 -1.2556
 6155TIP3    H239881   4.307   3.404  11.882 -0.5553 -0.4559 -1.5791
 6156TIP3   OH239882   1.373   4.530   4.987  0.0910  0.3432  0.3495
 6156TIP3    H139883   1.404   4.550   5.076 -1.4682 -1.4067  1.3307
 6156TIP3    H239884   1.452   4.532   4.933  0.9268  2.3426  1.5995
 6157TIP3   OH239885   5.693   2.788  11.310 -0.5385  1.1565 -0.2405
 6157TIP3    H139886   5.712   2.695  11.307 -0.6312  1.0550  1.8895
 6157TIP3    H239887   5.598   2.792  11.320 -0.3845  1.4408  1.1762
 6158TIP3   OH239888   1.601   2.145  17.046  0.1421  1.0611 -0.1968
 6158TIP3    H139889   1.626   2.074  16.988  0.0753  1.9202 -1.2888
 6158TIP3    H239890   1.509   2.163  17.025 -0.0998  0.8794  0.6891
 6159TIP3   OH239891   5.077   2.007  11.594  1.0760  0.3854  0.2630
 6159TIP3    H139892   5.013   2.065  11.551 -0.4022  0.1691  2.1228
 6159TIP3    H239893   5.107   1.949  11.524  0.1995  1.3372 -0.9259
 6160TIP3   OH239894   2.933   3.932   4.392  0.2967  0.2197 -0.7049
 6160TIP3    H139895   2.864   3.955   4.455  1.1440 -0.4081  0.4859
 6160TIP3    H239896   2.970   4.016   4.366 -0.6374  0.5361 -1.0217
 6161TIP3   OH239897   2.272   2.485   2.494  0.6986 -0.1655 -0.5963
 6161TIP3    H139898   2.227   2.465   2.412 -0.7360 -3.6877  0.9605
 6161TIP3    H239899   2.341   2.419   2.501  0.8434  0.1300  0.9839
 6162TIP3   OH239900   0.489   1.769   4.183  0.4373  0.3443  0.1652
 6162TIP3    H139901   0.528   1.695   4.229  1.1075  1.8899  2.1317
 6162TIP3    H239902   0.473   1.736   4.094 -0.2219 -2.4709  1.2568
 6163TIP3   OH239903   1.819   0.397   1.751 -0.3453  0.0988  0.1442
 6163TIP3    H139904   1.738   0.445   1.736  0.0373  0.9162  0.7178
 6163TIP3    H239905   1.797   0.306   1.730 -0.7868  0.6711 -1.9676
 6164TIP3   OH239906   4.678   2.173   5.475 -0.6670 -0.3898 -0.3590
 6164TIP3    H139907   4.590   2.195   5.445  0.2429 -0.2411 -3.0704
 6164TIP3    H239908   4.693   2.084   5.443  0.7463  0.1763 -1.3391
 6165TIP3   OH239909   2.706   5.978   0.411 -0.1206  0.0901  0.3839
 6165TIP3    H139910   2.772   5.911   0.428 -1.4472 -2.1380 -2.6199
 6165TIP3    H239911   2.640   5.964   0.480  1.1084  0.4089  1.6447
 6166TIP3   OH239912   6.494   1.459  14.444 -0.3993  0.3620 -0.0676
 6166TIP3    H139913   6.483   1.554  14.444  0.1483  0.4800  2.6397
 6166TIP3    H239914   6.407   1.424  14.460 -0.7987  0.3356 -2.1696
 6167TIP3   OH239915   2.143   1.912   1.461 -0.2350 -0.2139 -0.3342
 6167TIP3    H139916   2.047   1.916   1.464 -0.2011  0.7450 -0.5169
 6167TIP3    H239917   2.162   1.821   1.438 -1.1196 -0.2006 -1.1484
 6168TIP3   OH239918   4.211   6.700  14.219 -0.4264 -0.0621  0.3918
 6168TIP3    H139919   4.176   6.723  14.133  0.5285 -0.4561 -0.1064
 6168TIP3    H239920   4.134   6.699  14.277 -0.9167  1.3183 -0.2121
 6169TIP3   OH239921   4.756   3.228  13.033  0.0360  0.2500 -0.2128
 6169TIP3    H139922   4.718   3.288  12.968  0.0509  0.9773  0.4384
 6169TIP3    H239923   4.713   3.251  13.115 -0.3523 -1.0132 -0.0537
 6170TIP3   OH239924   3.663   2.574   0.051  0.2466 -0.0147 -0.1006
 6170TIP3    H139925   3.630   2.484   0.060 -0.3796  0.0708 -1.3711
 6170TIP3    H239926   3.603   2.615  -0.012  0.4917  1.3166  0.5178
 6171TIP3   OH239927   2.096   3.761   4.490 -0.7440  0.1013 -0.1866
 6171TIP3    H139928   2.174   3.814   4.512 -0.9196  1.1776 -2.0799
 6171TIP3    H239929   2.111   3.678   4.535  1.6473  0.1775 -0.7625
 6172TIP3   OH239930   5.722   5.745  16.356  0.2137  0.3357 -0.1835
 6172TIP3    H139931   5.646   5.772  16.305 -0.2375 -1.7343 -0.6731
 6172TIP3    H239932   5.778   5.699  16.294  0.9104  0.0938  0.6079
 6173TIP3   OH239933   1.385   5.434  17.031  0.0861 -0.3363 -0.0344
 6173TIP3    H139934   1.332   5.382  16.970 -1.3920  0.8728  0.2029
 6173TIP3    H239935   1.431   5.368  17.084  0.6539 -1.3991 -1.7963
 6174TIP3   OH239936   1.807   6.176   4.165  0.1391 -0.1514 -0.4126
 6174TIP3    H139937   1.892   6.156   4.204  0.3881 -2.0765 -1.8677
 6174TIP3    H239938   1.828   6.212   4.080 -0.4835  0.0987 -0.4593
 6175TIP3   OH239939   4.670   5.373   0.944  0.9183  0.2698  0.2813
 6175TIP3    H139940   4.609   5.389   1.016  1.6236  0.9160  0.7416
 6175TIP3    H239941   4.749   5.421   0.968  1.1333  0.5539 -0.9663
 6176TIP3   OH239942   0.143   1.986   2.596 -0.3094  0.3813  0.6204
 6176TIP3    H139943   0.086   2.050   2.639  0.9117  1.3575  0.8329
 6176TIP3    H239944   0.169   1.926   2.666  0.0385  0.7660  0.8262
 6177TIP3   OH239945   2.740   3.630   0.325  0.6782 -0.4449 -0.0495
 6177TIP3    H139946   2.817   3.652   0.376  1.5729 -2.0478 -0.6767
 6177TIP3    H239947   2.774   3.606   0.239 -0.6926  0.7607 -0.9585
 6178TIP3   OH239948   1.942   4.697   0.126  0.2767  0.2292  0.0448
 6178TIP3    H139949   1.907   4.723   0.211 -0.5587  0.0519 -0.2366
 6178TIP3    H239950   1.904   4.610   0.110  0.2697  0.3446 -0.5884
 6179TIP3   OH239951   1.528   0.197   0.675  0.0783 -0.8062 -0.1605
 6179TIP3    H139952   1.572   0.259   0.617 -0.1838  0.7203  1.2403
 6179TIP3    H239953   1.454   0.165   0.625  0.1883  0.0555 -0.8741
 6180TIP3   OH239954   1.598   3.223  14.791  0.1580 -0.5795  0.1271
 6180TIP3    H139955   1.511   3.195  14.818  0.4801 -1.3217  0.4040
 6180TIP3    H239956   1.586   3.253  14.701 -0.5678  0.2335  0.4870
 6181TIP3   OH239957   1.823   6.259   3.363 -0.1004 -0.1531  0.2699
 6181TIP3    H139958   1.912   6.257   3.328 -0.2286  1.2533 -0.1719
 6181TIP3    H239959   1.791   6.346   3.340 -1.5673 -0.6315  0.4899
 6182TIP3   OH239960   3.371   5.253  15.441 -0.1566 -0.1017 -0.3472
 6182TIP3    H139961   3.359   5.244  15.346 -0.3225  1.9624 -0.5545
 6182TIP3    H239962   3.283   5.247  15.477 -0.3646  1.3945 -0.5647
 6183TIP3   OH239963   0.914   1.196   5.602  0.3174 -0.3038 -0.0936
 6183TIP3    H139964   0.896   1.108   5.635 -1.2330 -0.4794 -1.3394
 6183TIP3    H239965   0.929   1.184   5.508 -0.5104  0.8354 -0.3884
 6184TIP3   OH239966   4.242   1.805   3.599 -0.0063 -0.1542  0.2130
 6184TIP3    H139967   4.179   1.817   3.528  0.9848  1.2132 -0.4596
 6184TIP3    H239968   4.249   1.891   3.640  1.4580 -0.2956  0.2657
 6185TIP3   OH239969   6.652   2.644   5.310  0.5639  0.6939 -0.0089
 6185TIP3    H139970   6.574   2.625   5.363  0.2085  0.8137 -0.4917
 6185TIP3    H239971   6.680   2.558   5.279  2.3245  0.2864  2.5314
 6186TIP3   OH239972   2.289   6.023   3.329  0.1125  0.3507 -0.2397
 6186TIP3    H139973   2.332   5.978   3.402 -0.9978 -0.2041  0.0993
 6186TIP3    H239974   2.353   6.023   3.259  2.0102  2.8464  1.4170
 6187TIP3   OH239975   0.743   0.444  12.140 -0.1145 -0.0892  0.2743
 6187TIP3    H139976   0.746   0.360  12.093 -0.7573  0.3502 -0.5902
 6187TIP3    H239977   0.834   0.465  12.157 -0.0035 -1.6337  1.7334
 6188TIP3   OH239978   2.578   6.735   5.300  0.5162 -0.5814 -0.0612
 6188TIP3    H139979   2.638   6.690   5.240  0.3450  0.1693 -0.8219
 6188TIP3    H239980   2.633   6.759   5.375  1.0388 -0.4450 -0.4783
 6189TIP3   OH239981   2.678   2.653   6.355 -0.1354 -0.3968 -0.4814
 6189TIP3    H139982   2.584   2.638   6.356 -0.3706  1.0928  1.3140
 6189TIP3    H239983   2.707   2.635   6.444  1.1351  0.0162 -0.7987
 6190TIP3   OH239984   3.167   3.115  12.742  0.4237  0.6932 -0.0901
 6190TIP3    H139985   3.101   3.050  12.719 -0.6541  2.0471 -0.8961
 6190TIP3    H239986   3.250   3.071  12.726 -0.2022 -1.7012  2.7302
 6191TIP3   OH239987   6.189   5.917   4.132  0.1877  0.2176  0.2371
 6191TIP3    H139988   6.168   5.978   4.204 -0.3928  0.2694  0.0305
 6191TIP3    H239989   6.130   5.943   4.061  0.2871 -0.2675 -0.0253
 6192TIP3   OH239990   0.361   0.939   2.793  0.6534  0.2807  1.1612
 6192TIP3    H139991   0.373   1.019   2.742 -0.3509 -0.1765  0.1810
 6192TIP3    H239992   0.269   0.939   2.817  0.3115 -1.2843 -0.0794
 6193TIP3   OH239993   0.652   0.745  14.314  0.1398 -0.4229  0.3107
 6193TIP3    H139994   0.573   0.745  14.259  0.3746  1.1916 -0.0501
 6193TIP3    H239995   0.722   0.771  14.254  0.8069 -1.0064  0.8321
 6194TIP3   OH239996   2.786   4.655   1.023 -0.4783  0.3806 -0.3029
 6194TIP3    H139997   2.767   4.744   0.992  0.2874  0.3673 -0.8497
 6194TIP3    H239998   2.708   4.628   1.070 -0.5526  1.5158  0.2439
 6195TIP3   OH239999   2.994   1.114   1.487 -0.4241 -0.4699  0.2535
 6195TIP3    H140000   2.955   1.127   1.573  0.0970 -1.5395  0.6544
 6195TIP3    H240001   3.062   1.181   1.481  0.2963 -1.1177  1.1293
 6196TIP3   OH240002   6.029   3.144   5.196 -0.0021  0.9311  0.0616
 6196TIP3    H140003   6.122   3.125   5.211 -0.5744 -1.7296  0.5868
 6196TIP3    H240004   6.006   3.208   5.263  0.4276 -1.7351  2.8899
 6197TIP3   OH240005   5.368   3.355   1.208  0.4989 -0.1954  0.2149
 6197TIP3    H140006   5.338   3.376   1.120 -2.7178 -1.2588  0.9569
 6197TIP3    H240007   5.439   3.417   1.226  0.4123  0.7830 -2.6602
 6198TIP3   OH240008   3.959   6.218  13.471  0.7424 -0.0656  0.2743
 6198TIP3    H140009   3.953   6.303  13.427 -0.3245 -1.2664 -2.0071
 6198TIP3    H240010   4.052   6.208  13.492  1.0778  1.1256 -0.5713
 6199TIP3   OH240011   4.015   0.457   4.435  0.1971  0.2239 -0.0288
 6199TIP3    H140012   3.928   0.456   4.473  1.0240 -1.4846  1.9004
 6199TIP3    H240013   4.026   0.368   4.400  0.6507  0.8428 -1.4911
 6200TIP3   OH240014   1.412   3.355   4.685 -0.5945  0.3957 -0.2494
 6200TIP3    H140015   1.407   3.364   4.781 -1.7104 -3.4670  0.1225
 6200TIP3    H240016   1.321   3.339   4.658 -0.1915  0.8693 -1.9107
 6201TIP3   OH240017   1.263   4.735  14.246  0.1071  0.4003 -0.2563
 6201TIP3    H140018   1.177   4.694  14.262 -0.8719  1.4895 -2.5203
 6201TIP3    H240019   1.321   4.661  14.225 -0.8742 -0.1371 -1.1283
 6202TIP3   OH240020   5.865   1.981  11.176 -0.3020 -0.2588 -0.0177
 6202TIP3    H140021   5.890   1.915  11.111  0.1038  0.7080 -0.8454
 6202TIP3    H240022   5.940   2.040  11.180  0.6361 -1.5443  2.9689
 6203TIP3   OH240023   0.832   0.974  11.924  0.6342 -0.4622  0.0600
 6203TIP3    H140024   0.809   0.939  11.838 -0.8027  0.6917 -0.0421
 6203TIP3    H240025   0.751   0.968  11.975  0.7440  1.4120  0.4694
 6204TIP3   OH240026   4.039   3.518   2.320  0.2944  0.0384  0.6756
 6204TIP3    H140027   4.086   3.505   2.238  0.0175  3.5957 -0.1426
 6204TIP3    H240028   4.108   3.521   2.387  1.0078  1.9035 -0.0942
 6205TIP3   OH240029   5.057   2.541   1.873 -0.1086 -0.2264  0.0904
 6205TIP3    H140030   4.992   2.499   1.930  0.5355 -0.3700  0.7334
 6205TIP3    H240031   5.063   2.631   1.906  0.9637 -0.5745  0.8725
 6206TIP3   OH240032   3.405   0.774  13.705  0.5308 -0.0217  0.4603
 6206TIP3    H140033   3.359   0.711  13.650 -0.9260 -2.1055  3.8756
 6206TIP3    H240034   3.359   0.856  13.691 -1.7166 -1.1951  0.7806
 6207TIP3   OH240035   2.772   1.387   1.583  0.0493  0.1687  0.2263
 6207TIP3    H140036   2.850   1.358   1.628  1.3165 -0.3254 -2.1906
 6207TIP3    H240037   2.767   1.481   1.600  0.2288 -0.0870  1.7302
 6208TIP3   OH240038   2.749   1.421  15.111  0.1831 -0.2807  0.1440
 6208TIP3    H140039   2.831   1.453  15.146  0.0486  1.1626 -0.7893
 6208TIP3    H240040   2.763   1.419  15.016 -0.6354 -0.6189  0.0257
 6209TIP3   OH240041   4.234   5.774   2.709 -0.1368 -0.6079 -0.2676
 6209TIP3    H140042   4.314   5.791   2.758 -2.1101  0.7551  2.6645
 6209TIP3    H240043   4.224   5.679   2.711  0.7624 -0.6963  0.3722
 6210TIP3   OH240044   3.278   3.627   2.177 -0.1330  0.1231  0.0869
 6210TIP3    H140045   3.306   3.552   2.125  0.4384 -1.0670  2.0743
 6210TIP3    H240046   3.352   3.645   2.235  0.0326  2.7098 -0.8899
 6211TIP3   OH240047   3.666   2.518   2.719  0.2611 -0.1479  0.6414
 6211TIP3    H140048   3.660   2.596   2.664  2.2691 -0.5027 -0.1000
 6211TIP3    H240049   3.575   2.486   2.725  0.0915 -0.5787 -3.1908
 6212TIP3   OH240050   0.708   2.642   0.339 -0.6594  0.0944  0.2610
 6212TIP3    H140051   0.675   2.706   0.403 -2.4285  0.1391 -0.6563
 6212TIP3    H240052   0.722   2.692   0.259  0.6764 -0.1370  0.3381
 6213TIP3   OH240053   2.655   4.257   3.210  0.3751 -0.2109  0.7082
 6213TIP3    H140054   2.636   4.202   3.134  0.5812  0.8721 -0.1405
 6213TIP3    H240055   2.599   4.221   3.280 -1.7524  0.3746 -0.6408
 6214TIP3   OH240056   3.844   2.487   3.799 -0.0129  0.1239  0.7574
 6214TIP3    H140057   3.848   2.580   3.822  0.5277  0.1311  0.6321
 6214TIP3    H240058   3.924   2.471   3.750 -0.9184 -0.0136 -0.7154
 6215TIP3   OH240059   3.938   4.743  13.220 -0.2865  0.3037 -0.3880
 6215TIP3    H140060   3.987   4.696  13.287  1.1393  1.5090 -0.5556
 6215TIP3    H240061   3.848   4.748  13.254  0.1561 -0.1414  0.8499
 6216TIP3   OH240062   5.402   3.789  16.233  0.0950  0.1830 -0.8293
 6216TIP3    H140063   5.455   3.721  16.275 -0.0218 -0.8193 -2.2577
 6216TIP3    H240064   5.387   3.854  16.302  2.5704  0.1306 -0.2043
 6217TIP3   OH240065   1.952   0.955   1.793 -0.0769 -0.2898 -0.0752
 6217TIP3    H140066   1.893   1.005   1.737  0.5334  0.5908  0.0597
 6217TIP3    H240067   2.004   0.902   1.732  0.5959  0.6769 -0.3573
 6218TIP3   OH240068   2.491   6.182  15.610  0.0877 -0.7416  0.2037
 6218TIP3    H140069   2.557   6.181  15.679 -2.2200 -0.2619  2.5095
 6218TIP3    H240070   2.428   6.248  15.638 -1.4123 -1.2073 -1.9155
 6219TIP3   OH240071   1.513   5.020  13.539 -0.2555 -0.1646 -0.5411
 6219TIP3    H140072   1.575   4.988  13.474 -0.7378 -0.9486 -0.6248
 6219TIP3    H240073   1.536   5.112  13.552  0.9178 -0.4492 -0.5757
 6220TIP3   OH240074   4.059   2.750  11.723  0.2335 -0.2139  0.6690
 6220TIP3    H140075   4.027   2.708  11.643 -1.1164  0.1522  0.9975
 6220TIP3    H240076   4.154   2.750  11.714  0.0561  1.5022 -1.8123
 6221TIP3   OH240077   6.768   2.097  11.440 -0.2116  0.1265  0.2749
 6221TIP3    H140078   6.724   2.069  11.520  1.3551  0.4054  1.2563
 6221TIP3    H240079   6.814   2.019  11.409  2.2346  0.9236  1.7281
 6222TIP3   OH240080   6.518   1.465  13.838 -0.2102  0.2092  0.1957
 6222TIP3    H140081   6.491   1.390  13.890 -1.7120  0.8030  0.3077
 6222TIP3    H240082   6.591   1.503  13.887 -0.4131 -0.3153  0.9154
 6223TIP3   OH240083   1.010   2.671  13.075  0.1156 -0.2047 -0.3228
 6223TIP3    H140084   1.088   2.634  13.034 -0.3891  0.1519 -1.6393
 6223TIP3    H240085   1.036   2.760  13.102  0.3045 -0.2659 -0.3087
 6224TIP3   OH240086   4.222   1.828  15.447  0.0309  0.4121  0.6541
 6224TIP3    H140087   4.264   1.764  15.505 -0.1135  0.1316  0.4485
 6224TIP3    H240088   4.197   1.778  15.369  0.5494  0.8658  0.1915
 6225TIP3   OH240089   3.561   1.710   1.671 -0.7283  0.0587 -0.2770
 6225TIP3    H140090   3.600   1.738   1.588 -1.5848  0.6089 -0.5066
 6225TIP3    H240091   3.542   1.791   1.717  0.9525 -0.2833  1.0404
 6226TIP3   OH240092   4.906   1.905   3.503 -0.0212  0.3376  0.3685
 6226TIP3    H140093   4.936   1.996   3.509 -0.5988  0.5784 -0.3705
 6226TIP3    H240094   4.853   1.902   3.424  1.3219 -1.0222 -0.4993
 6227TIP3   OH240095   1.610   4.079   4.295  0.3813 -0.1043 -0.1847
 6227TIP3    H140096   1.578   3.990   4.312 -0.1800  0.1089 -0.1226
 6227TIP3    H240097   1.701   4.067   4.270 -0.0735 -0.8422 -1.5743
 6228TIP3   OH240098   1.168   5.219  13.952  0.4491 -0.5625  0.1738
 6228TIP3    H140099   1.263   5.216  13.949  0.4941 -0.8169  1.6473
 6228TIP3    H240100   1.145   5.305  13.916  1.2705 -0.1929  0.5332
 6229TIP3   OH240101   6.583   1.561  16.214 -0.5182  0.6543  0.9104
 6229TIP3    H140102   6.607   1.587  16.125 -1.3704 -1.4007  0.0462
 6229TIP3    H240103   6.608   1.635  16.268  3.5613  0.4262 -0.5341
 6230TIP3   OH240104   5.038   4.453  15.073  0.7351 -0.8102 -0.3979
 6230TIP3    H140105   5.025   4.538  15.114  0.7083 -0.5183 -0.9992
 6230TIP3    H240106   5.124   4.460  15.031  0.2034 -0.6483 -1.4815
 6231TIP3   OH240107   2.347   5.577  16.309  0.4801 -0.2390  0.5852
 6231TIP3    H140108   2.349   5.631  16.231 -0.4911 -0.3164  0.5084
 6231TIP3    H240109   2.397   5.499  16.285 -0.3331 -0.5333 -0.1571
 6232TIP3   OH240110   6.786   5.772   1.392 -0.1495  0.2502 -0.1841
 6232TIP3    H140111   6.836   5.705   1.438 -1.6526 -0.9586 -0.2433
 6232TIP3    H240112   6.730   5.811   1.459 -1.6818 -0.8888 -0.7485
 6233TIP3   OH240113   5.681   1.540   3.579 -0.0200  0.3466 -0.4162
 6233TIP3    H140114   5.672   1.633   3.602  2.3969  0.0824  1.8545
 6233TIP3    H240115   5.765   1.514   3.617 -0.6449 -2.7896 -1.0292
 6234TIP3   OH240116   5.047   6.547   3.119  0.3625  0.0518  0.4847
 6234TIP3    H140117   5.136   6.567   3.146 -0.1588  1.4630  1.2287
 6234TIP3    H240118   5.017   6.480   3.180  0.4140  0.6610  1.1888
 6235TIP3   OH240119   1.352   4.879   1.645 -0.3609  0.1937 -0.6385
 6235TIP3    H140120   1.369   4.896   1.738 -0.2576  1.4857 -0.8838
 6235TIP3    H240121   1.383   4.790   1.632  3.7439  1.4655 -0.3979
 6236TIP3   OH240122   0.564   1.337  13.684  0.3953  0.3512  0.1556
 6236TIP3    H140123   0.492   1.332  13.621  0.8042 -0.7686 -0.2331
 6236TIP3    H240124   0.547   1.265  13.745  0.0556  1.3647  1.2793
 6237TIP3   OH240125   6.641   1.190  11.381  0.3843 -0.4917 -0.4741
 6237TIP3    H140126   6.578   1.178  11.310  1.0374 -2.0059 -0.8290
 6237TIP3    H240127   6.726   1.190  11.336  0.7860 -1.1856  0.2907
 6238TIP3   OH240128   5.053   0.180  12.557  0.1078  0.4431  0.2234
 6238TIP3    H140129   5.091   0.094  12.538 -2.9060 -1.0562  0.7204
 6238TIP3    H240130   5.107   0.241  12.508 -0.0045 -2.0962 -3.2155
 6239TIP3   OH240131   3.908   3.143  15.768  0.0775  0.0928 -0.3179
 6239TIP3    H140132   3.826   3.111  15.729 -1.1862  3.3450 -0.4809
 6239TIP3    H240133   3.914   3.234  15.739  2.7088  0.5121  1.4298
 6240TIP3   OH240134   4.445   1.849   3.211 -0.4388 -0.1456 -0.0978
 6240TIP3    H140135   4.467   1.885   3.125  0.2243  0.9531  0.5138
 6240TIP3    H240136   4.518   1.791   3.232 -2.0407 -2.8314 -1.5793
 6241TIP3   OH240137   3.856   6.485  15.591  0.7857 -0.0569 -0.2972
 6241TIP3    H140138   3.912   6.469  15.667  2.0178  0.0655 -1.1601
 6241TIP3    H240139   3.837   6.397  15.557  0.5608 -0.0923 -0.0788
 6242TIP3   OH240140   2.119   6.051  14.459  0.2332  0.3000  0.1017
 6242TIP3    H140141   2.083   6.134  14.429  0.6148  0.7051  0.7456
 6242TIP3    H240142   2.051   6.013  14.514  0.2935  0.4586  0.2838
 6243TIP3   OH240143   0.926   5.230  16.787 -0.4014  0.7060  0.2494
 6243TIP3    H140144   0.840   5.190  16.771  0.1749 -0.5524  0.1719
 6243TIP3    H240145   0.985   5.155  16.792  0.4498  1.4859  1.8527
 6244TIP3   OH240146   0.940   1.706  11.069  0.1591 -0.2659  0.0403
 6244TIP3    H140147   1.022   1.692  11.022 -0.0658  0.9562 -0.7393
 6244TIP3    H240148   0.898   1.779  11.023 -0.5532  0.2770  1.5132
 6245TIP3   OH240149   6.012   3.082  11.634  0.0789  0.1914  0.0233
 6245TIP3    H140150   5.970   3.165  11.611 -0.6493 -0.3547 -0.6237
 6245TIP3    H240151   6.105   3.104  11.642 -0.0171  0.9382 -0.8107
 6246TIP3   OH240152   0.170   5.272   3.583  0.2788 -0.4432 -0.1861
 6246TIP3    H140153   0.112   5.347   3.566  1.4262  0.5370  0.1568
 6246TIP3    H240154   0.135   5.202   3.528 -1.9266 -0.2143  0.8715
 6247TIP3   OH240155   0.790   4.670  15.145 -0.7674  0.5889  0.2832
 6247TIP3    H140156   0.797   4.744  15.083  2.3731 -0.0503 -0.2446
 6247TIP3    H240157   0.718   4.617  15.111 -0.4117  1.3121 -1.7178
 6248TIP3   OH240158   4.676   4.610   5.474 -0.2002 -0.5091  0.0324
 6248TIP3    H140159   4.680   4.674   5.402  1.4898 -1.3111 -0.6199
 6248TIP3    H240160   4.586   4.577   5.471 -0.7750  1.0257 -0.3279
 6249TIP3   OH240161   6.607   4.860  13.022  0.3282  0.5668  0.2751
 6249TIP3    H140162   6.682   4.815  12.983  0.1248  0.7372 -0.3272
 6249TIP3    H240163   6.633   4.952  13.026  0.3849  0.5342  0.6271
 6250TIP3   OH240164   3.240   1.761   5.184  0.1636  0.5011  0.3455
 6250TIP3    H140165   3.185   1.689   5.215 -0.6342  0.8640 -0.2116
 6250TIP3    H240166   3.304   1.773   5.253 -0.6331  0.2609  1.1407
 6251TIP3   OH240167   4.651   1.421   5.424  0.2628 -0.0329 -0.3339
 6251TIP3    H140168   4.731   1.450   5.469 -0.6978  1.3960  0.5104
 6251TIP3    H240169   4.667   1.329   5.404  1.6946 -0.0561  0.7982
 6252TIP3   OH240170   3.133   5.961   3.087  0.1114  0.2456 -0.1910
 6252TIP3    H140171   3.123   5.869   3.111  2.1640 -0.0969 -0.5461
 6252TIP3    H240172   3.139   6.006   3.171 -2.0832  0.2166 -0.0030
 6253TIP3   OH240173   2.161   4.389  16.867  0.1764 -0.8192 -1.1010
 6253TIP3    H140174   2.192   4.454  16.930 -1.0910 -1.9010  0.7235
 6253TIP3    H240175   2.129   4.440  16.793 -0.8315  0.6308  0.3050
 6254TIP3   OH240176   4.188   2.813   4.675 -0.2471  0.3773 -0.1395
 6254TIP3    H140177   4.258   2.793   4.737  0.6110 -0.5230 -1.3613
 6254TIP3    H240178   4.133   2.734   4.674 -0.5226  0.5672 -0.1907
 6255TIP3   OH240179   2.534   1.820  14.673 -0.5698  0.6053 -0.3968
 6255TIP3    H140180   2.616   1.857  14.640 -0.1296  1.4695  1.5883
 6255TIP3    H240181   2.467   1.884  14.647 -0.4389  0.5285 -0.9254
 6256TIP3   OH240182   0.574   5.533  14.441 -0.0961  0.0279  0.1996
 6256TIP3    H140183   0.648   5.592  14.445  0.6468 -0.8881  0.1308
 6256TIP3    H240184   0.517   5.570  14.374  0.4193  0.5931  0.0729
 6257TIP3   OH240185   3.141   3.320  11.325  0.6702  1.2025 -0.5443
 6257TIP3    H140186   3.126   3.226  11.311  1.4276  0.9777  0.1082
 6257TIP3    H240187   3.233   3.333  11.302  1.6914  1.0043  3.1399
 6258TIP3   OH240188   4.492   4.658   3.019  0.8117 -0.4035 -0.8240
 6258TIP3    H140189   4.491   4.739   2.968 -0.7998 -0.1415 -0.4069
 6258TIP3    H240190   4.420   4.606   2.984  0.3240 -0.6466  0.4970
 6259TIP3   OH240191   4.888   5.012   3.864 -0.3325  0.2736  0.6448
 6259TIP3    H140192   4.872   5.014   3.770  1.0140  1.4710  0.4177
 6259TIP3    H240193   4.858   4.926   3.892  0.1537 -0.4543 -1.0388
 6260TIP3   OH240194   4.624   2.314  11.170 -0.2422 -0.1777 -0.0192
 6260TIP3    H140195   4.581   2.324  11.085  0.8988  1.5120 -0.4308
 6260TIP3    H240196   4.616   2.400  11.211 -0.7181 -0.9584  1.5715
 6261TIP3   OH240197   6.178   6.265  10.350  0.0084  0.2071 -0.3431
 6261TIP3    H140198   6.084   6.260  10.339 -0.3610  2.3662  1.3902
 6261TIP3    H240199   6.214   6.234  10.267 -2.1329 -3.1311 -0.1325
 6262TIP3   OH240200   1.148   2.488   3.528  0.2397 -0.4630  0.5097
 6262TIP3    H140201   1.059   2.484   3.562  1.1779 -2.0353  2.8842
 6262TIP3    H240202   1.159   2.406   3.479  0.7750 -0.8531  1.2723
 6263TIP3   OH240203   3.701   1.639   0.865 -0.4981 -0.0339  0.0636
 6263TIP3    H140204   3.779   1.629   0.811  1.2660 -0.3238  2.5968
 6263TIP3    H240205   3.703   1.730   0.893  0.2606 -0.6497  2.0765
 6264TIP3   OH240206   3.797   0.448   0.050 -0.1345  0.2443 -0.1101
 6264TIP3    H140207   3.885   0.472   0.021  0.2260 -0.9767 -0.0371
 6264TIP3    H240208   3.742   0.457  -0.028  0.3978 -0.7531 -0.6069
 6265TIP3   OH240209   5.197   5.137   3.182  0.3482  0.1354 -0.0732
 6265TIP3    H140210   5.275   5.145   3.237 -0.2356 -1.9706  1.1407
 6265TIP3    H240211   5.136   5.202   3.217  0.9635  0.6487  0.0477
 6266TIP3   OH240212   4.681   1.711   0.574  0.0222 -0.2587 -0.1311
 6266TIP3    H140213   4.775   1.692   0.578 -0.0654 -0.9074 -1.1178
 6266TIP3    H240214   4.674   1.802   0.606  0.8175 -0.6618  1.2416
 6267TIP3   OH240215   0.453   4.604  14.221  0.2269 -0.1547  0.3242
 6267TIP3    H140216   0.462   4.686  14.270  0.9532  0.1277 -0.2761
 6267TIP3    H240217   0.420   4.630  14.135  2.3972 -0.2562 -0.5725
 6268TIP3   OH240218   4.954   3.628  13.420 -0.1170  0.3903 -0.4858
 6268TIP3    H140219   4.931   3.654  13.331  1.2631 -1.0291 -1.3022
 6268TIP3    H240220   4.932   3.535  13.424 -0.1461  0.4424  0.6430
 6269TIP3   OH240221   1.466   0.035   3.185 -0.2536 -0.0771 -0.1526
 6269TIP3    H140222   1.510   0.048   3.269 -1.0505 -0.8537  0.3938
 6269TIP3    H240223   1.527   0.071   3.120  0.6184  0.0032  0.7010
 6270TIP3   OH240224   2.490   3.643  11.868 -0.0787  0.2584  0.0211
 6270TIP3    H140225   2.464   3.711  11.930 -0.8190 -1.1022  1.2322
 6270TIP3    H240226   2.414   3.634  11.810 -0.6364 -0.6694  0.8778
 6271TIP3   OH240227   3.455   4.246   4.264 -0.5933 -0.5169 -0.3906
 6271TIP3    H140228   3.475   4.224   4.173 -0.3653  1.0034 -0.7314
 6271TIP3    H240229   3.477   4.339   4.271 -2.4863 -0.1252  0.6845
 6272TIP3   OH240230   6.720   5.778   3.259 -0.6078 -0.1993  0.9435
 6272TIP3    H140231   6.666   5.698   3.260 -3.2714  1.5504  2.2448
 6272TIP3    H240232   6.682   5.832   3.190 -0.3780  0.9805  1.7364
 6273TIP3   OH240233   3.510   1.263  14.010 -0.6206 -0.3193 -0.4454
 6273TIP3    H140234   3.449   1.283  14.082 -1.3142  0.7950 -1.3361
 6273TIP3    H240235   3.540   1.174  14.030 -0.1629  0.2721  1.6805
 6274TIP3   OH240236   0.602   3.320   2.571 -0.2897 -0.0723  0.1048
 6274TIP3    H140237   0.608   3.231   2.606  0.6695 -0.1445 -0.2240
 6274TIP3    H240238   0.678   3.328   2.513 -0.3471  0.9743  0.1651
 6275TIP3   OH240239   6.072   4.135  13.066  0.2305 -0.0338  0.1456
 6275TIP3    H140240   6.133   4.074  13.025 -1.5569 -2.3280  0.8187
 6275TIP3    H240241   6.012   4.159  12.996  1.6284  1.9502 -0.4229
 6276TIP3   OH240242   4.279   5.704   1.154 -0.0257  0.1342  0.0765
 6276TIP3    H140243   4.220   5.658   1.214  0.9447  0.2359  1.1228
 6276TIP3    H240244   4.226   5.720   1.076 -1.1692 -0.3994  0.7309
 6277TIP3   OH240245   0.412   1.669   3.025 -0.1551  0.8547 -0.2153
 6277TIP3    H140246   0.483   1.733   3.027 -0.8599  1.6349 -0.0345
 6277TIP3    H240247   0.332   1.722   3.018 -0.6507 -0.0555 -1.5286
 6278TIP3   OH240248   0.000   1.829   5.116 -0.2268  0.2642 -0.1802
 6278TIP3    H140249  -0.080   1.823   5.168 -0.6041 -0.0919 -0.7913
 6278TIP3    H240250   0.024   1.738   5.100 -0.1821  0.3705 -0.7289
 6279TIP3   OH240251   5.077   3.640  17.132  0.0368  0.1260  0.4695
 6279TIP3    H140252   4.989   3.675  17.151 -0.7886 -0.7452 -1.6248
 6279TIP3    H240253   5.133   3.717  17.126 -0.8626  0.7829  0.4258
 6280TIP3   OH240254   0.729   4.902   2.503  0.6568 -0.0756 -0.1050
 6280TIP3    H140255   0.652   4.892   2.560  0.2603  1.1157 -0.4089
 6280TIP3    H240256   0.755   4.812   2.483 -1.3448 -0.5198 -0.8990
 6281TIP3   OH240257   2.683   1.070  13.178 -0.4905 -0.1323 -0.1683
 6281TIP3    H140258   2.627   1.142  13.148  0.8375  1.3401  0.8031
 6281TIP3    H240259   2.737   1.109  13.247  0.8150 -1.8613 -0.1781
 6282TIP3   OH240260   0.500   0.445  16.243 -0.1468  0.7284 -0.3397
 6282TIP3    H140261   0.511   0.484  16.330 -1.1160 -0.5040  0.3503
 6282TIP3    H240262   0.578   0.472  16.194  0.7791  0.7962  1.1521
 6283TIP3   OH240263   1.878   0.191  15.437 -0.2206  0.4980 -0.1358
 6283TIP3    H140264   1.970   0.186  15.412  0.2815 -0.2581  1.8449
 6283TIP3    H240265   1.847   0.273  15.397  0.7758 -0.2304 -2.4683
 6284TIP3   OH240266   0.025   2.675   2.722  0.0091  0.0132  0.6708
 6284TIP3    H140267  -0.061   2.697   2.685 -0.3163 -1.6569  0.4115
 6284TIP3    H240268   0.042   2.745   2.784 -1.0081  1.0055 -0.1353
 6285TIP3   OH240269   2.476   0.090  11.549 -0.2420  0.2888 -0.1312
 6285TIP3    H140270   2.466   0.176  11.590 -2.6093  0.8568 -1.7203
 6285TIP3    H240271   2.453   0.027  11.618 -1.1872  1.0781  0.2913
 6286TIP3   OH240272   3.176   0.056   5.966 -0.4468 -0.8735  0.5279
 6286TIP3    H140273   3.271   0.067   5.966 -0.4502 -0.8304 -0.1963
 6286TIP3    H240274   3.158   0.001   6.043  0.1264 -0.5913  0.8678
 6287TIP3   OH240275   1.372   3.115   2.615  0.2621  0.0404  0.3591
 6287TIP3    H140276   1.376   3.039   2.673  1.0700  0.0612  0.3333
 6287TIP3    H240277   1.413   3.185   2.665  1.6706 -0.1316 -0.5250
 6288TIP3   OH240278   1.723   5.364  14.123 -0.3578 -0.2661  0.4869
 6288TIP3    H140279   1.706   5.422  14.198  0.1771 -0.2818  0.6244
 6288TIP3    H240280   1.756   5.423  14.055 -1.5831 -0.1417  0.0053
 6289TIP3   OH240281   3.781   5.548  13.005 -0.4292  0.1059  0.3675
 6289TIP3    H140282   3.768   5.535  13.099 -1.9003  0.0332  0.1733
 6289TIP3    H240283   3.838   5.625  13.000  2.0550 -1.6029  1.3440
 6290TIP3   OH240284   1.901   0.377   4.206  0.0522  0.4634 -0.0511
 6290TIP3    H140285   1.887   0.404   4.296  1.6389  2.2605 -0.3056
 6290TIP3    H240286   1.942   0.453   4.164  0.4221 -0.7567 -1.9816
 6291TIP3   OH240287   6.691   3.152   6.106  0.1236 -0.2031 -0.4972
 6291TIP3    H140288   6.625   3.191   6.048 -0.0990 -0.5812 -0.4983
 6291TIP3    H240289   6.658   3.168   6.194  1.2270  1.7655 -0.3939
 6292TIP3   OH240290   1.103   4.769   3.329 -0.6937  0.3189  0.3032
 6292TIP3    H140291   1.114   4.792   3.421  0.2382 -1.4540  0.6672
 6292TIP3    H240292   1.085   4.675   3.331  2.0887 -0.3025 -1.4808
 6293TIP3   OH240293   1.090   5.710   5.477 -0.5631 -0.1938 -0.0782
 6293TIP3    H140294   1.119   5.651   5.547 -0.7325 -1.1695 -0.8287
 6293TIP3    H240295   1.094   5.657   5.397  1.7896  1.5528 -1.1775
 6294TIP3   OH240296   2.090   0.286   2.217  0.1732 -0.2934  0.6798
 6294TIP3    H140297   2.110   0.234   2.139 -1.0648  0.1332  0.0497
 6294TIP3    H240298   2.011   0.334   2.193 -0.6329 -0.6877  2.4611
 6295TIP3   OH240299   1.927   3.181  16.121  0.1366  0.0971  0.6925
 6295TIP3    H140300   1.841   3.160  16.159  0.8660 -0.9951  1.7634
 6295TIP3    H240301   1.945   3.107  16.063 -0.2620  0.9995 -0.6076
 6296TIP3   OH240302   4.527   4.043   2.095  0.3090  0.5218  0.5112
 6296TIP3    H140303   4.594   3.996   2.045  1.7885  1.1751  1.8371
 6296TIP3    H240304   4.511   4.123   2.046 -0.5139 -0.2475 -0.5180
 6297TIP3   OH240305   4.647   6.046   0.385  0.0374  0.2789  0.4289
 6297TIP3    H140306   4.734   6.085   0.389  1.0558 -1.8637 -0.4498
 6297TIP3    H240307   4.624   6.048   0.292 -0.8423  0.7724  0.6459
 6298TIP3   OH240308   4.826   1.009  14.665  0.2959 -0.0602 -0.4365
 6298TIP3    H140309   4.902   1.019  14.722  0.6053  1.2189 -1.0474
 6298TIP3    H240310   4.862   1.017  14.576 -0.4391 -0.1779 -0.7451
 6299TIP3   OH240311   0.728   6.451   4.791 -0.1911  0.6071 -0.0325
 6299TIP3    H140312   0.706   6.389   4.860  0.7962 -0.0051 -0.2552
 6299TIP3    H240313   0.818   6.430   4.769  0.9506  3.6887  1.5233
 6300TIP3   OH240314   4.514   1.258   2.014  0.0501  0.0646  0.4152
 6300TIP3    H140315   4.465   1.197   1.959 -0.4491  2.1777 -1.5901
 6300TIP3    H240316   4.461   1.268   2.093 -0.6393 -0.8989  0.0841
 6301TIP3   OH240317   4.046   6.259   0.324 -1.1126  0.4521 -0.2137
 6301TIP3    H140318   4.111   6.297   0.383 -1.3270  1.2243 -0.4730
 6301TIP3    H240319   4.096   6.197   0.271 -0.7583  0.3758  0.2024
 6302TIP3   OH240320   4.309   5.112   2.738  0.5340  0.3272 -0.8743
 6302TIP3    H140321   4.319   5.197   2.781  2.0813  0.6617 -1.8526
 6302TIP3    H240322   4.292   5.133   2.646 -0.2333 -0.4062 -0.9072
 6303TIP3   OH240323   3.582   4.309  15.758  0.3612  0.1346 -0.5443
 6303TIP3    H140324   3.532   4.380  15.718 -1.5698 -1.3024 -0.7899
 6303TIP3    H240325   3.543   4.300  15.846  1.2477  0.0338 -0.1619
 6304TIP3   OH240326   3.750   1.419  13.965  0.2588  0.4098  0.0249
 6304TIP3    H140327   3.794   1.454  14.043  0.4860 -1.4613  0.7729
 6304TIP3    H240328   3.674   1.372  14.000  0.8163 -1.1591 -0.7807
 6305TIP3   OH240329   1.016   0.306   5.457 -0.4150  0.1727  0.4419
 6305TIP3    H140330   0.932   0.267   5.479  0.4762 -1.0830  1.7315
 6305TIP3    H240331   1.057   0.323   5.542  0.7420  0.5044 -0.1732
 6306TIP3   OH240332   0.332   0.199   5.663  0.2942  0.0747  0.0435
 6306TIP3    H140333   0.405   0.184   5.603  0.0979  3.2363 -1.1120
 6306TIP3    H240334   0.371   0.197   5.750  1.2575 -0.9196 -0.4063
 6307TIP3   OH240335   0.817   1.605  13.988  0.4993  0.6480 -0.1105
 6307TIP3    H140336   0.765   1.525  13.988 -0.9726  1.5815  1.4727
 6307TIP3    H240337   0.898   1.580  14.034  0.6348 -0.2790 -0.8364
 6308TIP3   OH240338   2.639   1.454   1.342  0.0781  0.2516  0.2812
 6308TIP3    H140339   2.603   1.543   1.341 -1.5391 -0.3777  0.5494
 6308TIP3    H240340   2.630   1.426   1.433  0.2249 -0.3258  0.1184
 6309TIP3   OH240341   6.003   0.670   0.890  0.2333  0.5079 -0.1764
 6309TIP3    H140342   6.068   0.641   0.826  1.4753  0.8867  0.8810
 6309TIP3    H240343   5.918   0.651   0.849  0.9902 -2.5075 -0.4742
 6310TIP3   OH240344   1.111   5.958   5.231 -0.1303  0.6106  0.4254
 6310TIP3    H140345   1.193   5.911   5.244  0.6339  1.2126 -1.9925
 6310TIP3    H240346   1.098   6.007   5.313  0.2412 -1.9450  2.0668
 6311TIP3   OH240347   1.456   4.416  14.746 -0.0918  0.3899 -0.1133
 6311TIP3    H140348   1.403   4.476  14.694  0.8074  1.7748  0.5374
 6311TIP3    H240349   1.538   4.407  14.697  0.0338  0.2292  0.1254
 6312TIP3   OH240350   3.935   0.503  13.438 -0.3317 -0.3162  0.1337
 6312TIP3    H140351   3.999   0.519  13.508 -2.0044 -2.1611  2.1606
 6312TIP3    H240352   3.876   0.579  13.442  0.1851  0.1003 -0.0049
 6313TIP3   OH240353   4.353   3.988  15.718 -0.6505 -0.2290  0.0252
 6313TIP3    H140354   4.348   3.897  15.691  0.1699 -0.0798 -0.6574
 6313TIP3    H240355   4.395   3.986  15.804 -1.8530 -0.5848  0.6242
 6314TIP3   OH240356   1.592   6.053   0.808 -0.8471  0.2167 -0.0646
 6314TIP3    H140357   1.543   5.970   0.801  0.3320 -0.4794 -0.1770
 6314TIP3    H240358   1.543   6.114   0.753 -1.9065 -0.3148  0.2629
 6315TIP3   OH240359   0.130   5.699   0.757 -0.1590  0.0676 -0.3959
 6315TIP3    H140360   0.102   5.790   0.766 -1.3588 -0.4750  1.4216
 6315TIP3    H240361   0.200   5.689   0.822 -0.4779 -0.4900 -0.1375
 6316TIP3   OH240362   4.614   3.589  15.999  0.3310 -0.0569 -0.2743
 6316TIP3    H140363   4.679   3.533  16.040  1.7214  0.9276 -1.0856
 6316TIP3    H240364   4.607   3.557  15.909 -0.5115 -0.3325 -0.1155
 6317TIP3   OH240365   3.743   0.908   2.667  0.9218 -1.0540 -0.0886
 6317TIP3    H140366   3.704   0.955   2.740  0.7733 -0.5572 -0.4839
 6317TIP3    H240367   3.824   0.872   2.702 -0.2138 -2.7190  0.9523
 6318TIP3   OH240368   0.056   2.426   7.081 -0.0290  0.0578 -0.1532
 6318TIP3    H140369   0.042   2.520   7.090 -0.3982  0.1487 -1.4605
 6318TIP3    H240370   0.087   2.415   6.991 -2.9217 -1.3656 -1.0399
 6319TIP3   OH240371   3.280   0.458   4.734 -0.5295 -0.2099 -0.4520
 6319TIP3    H140372   3.220   0.532   4.737 -0.8732 -0.5262  0.5888
 6319TIP3    H240373   3.311   0.449   4.824  0.3672 -0.6308 -0.7993
 6320TIP3   OH240374   3.039   4.131  14.719 -0.2949 -0.2211 -0.0832
 6320TIP3    H140375   3.111   4.094  14.667 -0.7757 -0.4505 -0.6045
 6320TIP3    H240376   3.046   4.225  14.706 -0.2336 -0.2582 -0.3310
 6321TIP3   OH240377   5.775   4.351   0.709 -0.1544  0.0688  0.0847
 6321TIP3    H140378   5.777   4.444   0.733 -0.4905 -0.0373  0.5294
 6321TIP3    H240379   5.853   4.314   0.751 -0.3459  0.0301  0.4084
 6322TIP3   OH240380   5.216   0.728  11.936  0.2937 -0.0541  0.4301
 6322TIP3    H140381   5.197   0.774  12.018 -1.7213 -0.1813  0.0421
 6322TIP3    H240382   5.170   0.778  11.869 -1.1570 -2.0631 -0.1228
 6323TIP3   OH240383   0.355   0.925  13.785 -0.2139 -0.0655  0.6580
 6323TIP3    H140384   0.403   1.008  13.788  1.3036 -0.9057 -0.1063
 6323TIP3    H240385   0.264   0.950  13.803 -0.0917  2.0330 -1.3248
 6324TIP3   OH240386   0.785   2.244   1.671 -0.0187  0.7335  0.1988
 6324TIP3    H140387   0.790   2.170   1.732  0.0986 -0.9880 -1.8618
 6324TIP3    H240388   0.872   2.249   1.631 -0.3436  1.3126 -0.4437
 6325TIP3   OH240389   0.581   0.670   1.408  0.2431 -0.5327 -0.0412
 6325TIP3    H140390   0.579   0.730   1.483 -0.8525 -0.5359 -0.0608
 6325TIP3    H240391   0.672   0.672   1.379  0.5976 -0.2375  1.0533
 6326TIP3   OH240392   3.413   1.195   6.209 -0.0709  0.0327 -0.1110
 6326TIP3    H140393   3.408   1.194   6.114 -0.3464 -0.2949 -0.0939
 6326TIP3    H240394   3.359   1.121   6.237 -0.1891  0.2711  0.3060
 6327TIP3   OH240395   6.431   0.399   0.257  0.3994 -0.0868  0.1847
 6327TIP3    H140396   6.418   0.400   0.352  1.3886  0.7715  0.3236
 6327TIP3    H240397   6.422   0.307   0.233 -1.3266 -0.1217  0.8930
 6328TIP3   OH240398   6.041   5.242  16.367  0.0995  0.1235  0.0133
 6328TIP3    H140399   6.066   5.308  16.302  0.3370 -0.0568 -0.0784
 6328TIP3    H240400   5.953   5.269  16.395  0.1599  0.4284 -0.0897
 6329TIP3   OH240401   1.329   4.325   4.005  0.3022  0.0119  0.6326
 6329TIP3    H140402   1.337   4.408   4.051  0.6181  0.3606 -0.0352
 6329TIP3    H240403   1.258   4.339   3.942 -0.0429 -0.4186  0.9194
 6330TIP3   OH240404   6.389   1.595   0.058 -0.1815  0.3147 -0.2854
 6330TIP3    H140405   6.480   1.568   0.060 -0.1631  0.4255  0.8956
 6330TIP3    H240406   6.350   1.545  -0.014  0.1602 -1.9014  1.0004
 6331TIP3   OH240407   2.643   3.904  11.774 -0.5176 -0.3371  0.4371
 6331TIP3    H140408   2.664   3.811  11.761 -0.5736 -0.3469  0.4166
 6331TIP3    H240409   2.565   3.918  11.721 -0.5886 -0.3106  0.5495
 6332TIP3   OH240410   6.387   3.764   5.988  0.2192  0.2760 -0.2403
 6332TIP3    H140411   6.456   3.712   6.030 -0.8444 -1.1058 -0.1730
 6332TIP3    H240412   6.332   3.794   6.060 -0.4173 -0.3555 -0.4542
 6333TIP3   OH240413   3.296   1.524   0.262  0.5301  0.7656 -0.3396
 6333TIP3    H140414   3.323   1.434   0.279  3.9437  1.7807 -0.0593
 6333TIP3    H240415   3.302   1.568   0.347  2.3272  2.0651 -1.0983
 6334TIP3   OH240416   4.375   5.471  14.508  0.1738 -0.5315 -0.1769
 6334TIP3    H140417   4.316   5.433  14.573  2.1536 -1.8950  0.8707
 6334TIP3    H240418   4.452   5.497  14.558  1.2873 -0.6324 -1.8055
 6335TIP3   OH240419   5.254   2.723  14.405 -0.1042  0.3601 -0.2482
 6335TIP3    H140420   5.210   2.805  14.426  0.3429  0.7688 -0.9101
 6335TIP3    H240421   5.342   2.748  14.378  1.0550 -0.5505  2.4757
 6336TIP3   OH240422   6.290   0.664  14.890  0.0250 -0.0494 -0.6332
 6336TIP3    H140423   6.284   0.754  14.860  1.6920 -0.6139 -2.7241
 6336TIP3    H240424   6.210   0.622  14.856  0.0396  0.2416 -1.0258
 6337TIP3   OH240425   2.095   3.963  11.531 -0.1068  0.2057 -0.0260
 6337TIP3    H140426   2.110   4.052  11.566  0.6492  0.2868 -0.5418
 6337TIP3    H240427   2.180   3.920  11.540 -0.9208 -1.0888  1.9431
 6338TIP3   OH240428   4.078   2.134   4.172  0.3890 -0.3121 -0.1503
 6338TIP3    H140429   4.052   2.151   4.262  0.0225 -0.2743 -0.2637
 6338TIP3    H240430   3.999   2.148   4.121  0.8423  0.7159 -0.6000
 6339TIP3   OH240431   6.335   3.525   5.383 -0.0066 -0.2894  0.2861
 6339TIP3    H140432   6.341   3.435   5.414 -1.5735 -0.1324  1.0659
 6339TIP3    H240433   6.296   3.573   5.456 -3.8516  0.0546 -1.8779
 6340TIP3   OH240434   6.627   1.334   1.314 -0.6417 -0.0202 -0.0454
 6340TIP3    H140435   6.547   1.281   1.306 -0.2386 -0.6123 -0.1360
 6340TIP3    H240436   6.673   1.295   1.388 -0.8876  0.9173  0.6188
 6341TIP3   OH240437   2.630   4.794   5.616  0.5602  0.0365  0.2877
 6341TIP3    H140438   2.673   4.804   5.531  0.2613 -2.7482 -0.2330
 6341TIP3    H240439   2.701   4.794   5.680  0.8490  1.2145 -0.0182
 6342TIP3   OH240440   5.404   6.299   3.909  0.2299  0.0013  0.3588
 6342TIP3    H140441   5.335   6.286   3.974  0.2411 -0.5584  0.2602
 6342TIP3    H240442   5.398   6.392   3.886 -1.7310 -0.4661 -1.0808
 6343TIP3   OH240443   3.551   2.099  14.238  0.6605  0.6178 -0.0359
 6343TIP3    H140444   3.592   2.097  14.151 -0.5399 -0.1477 -0.5917
 6343TIP3    H240445   3.487   2.028  14.236  0.8065  0.4349  1.5730
 6344TIP3   OH240446   0.896   1.273  16.347 -0.0463  0.0393  0.2882
 6344TIP3    H140447   0.926   1.202  16.291 -3.3472 -0.3825 -1.0778
 6344TIP3    H240448   0.974   1.299  16.397  1.7506 -2.9831 -0.8006
 6345TIP3   OH240449   1.216   4.505  16.879 -0.1876  0.0521 -0.4324
 6345TIP3    H140450   1.161   4.575  16.915 -0.7370 -1.1108  1.0290
 6345TIP3    H240451   1.153   4.441  16.844  0.2781 -0.2992 -0.6339
 6346TIP3   OH240452   3.808   3.522  11.138 -0.9545 -0.2095 -0.2110
 6346TIP3    H140453   3.748   3.556  11.071 -2.2348 -0.8912  0.5760
 6346TIP3    H240454   3.823   3.431  11.112 -1.1334 -0.3566  0.2007
 6347TIP3   OH240455   5.838   2.446   5.797  0.6372 -0.2334 -0.3793
 6347TIP3    H140456   5.750   2.478   5.817  1.1787  0.5584  0.8060
 6347TIP3    H240457   5.881   2.439   5.882  1.6591 -0.8086 -0.9323
 6348TIP3   OH240458   0.956   3.593  14.023 -0.1319 -0.7782 -0.1866
 6348TIP3    H140459   0.896   3.629  14.088  0.2547 -0.2164 -0.1280
 6348TIP3    H240460   0.923   3.626  13.939 -0.3326 -1.0772 -0.2239
 6349TIP3   OH240461   1.849   2.138   2.624 -0.2883  0.4950  0.2553
 6349TIP3    H140462   1.906   2.120   2.549  0.0386  0.7739  0.4339
 6349TIP3    H240463   1.767   2.168   2.585 -0.0927  0.7169  0.0114
 6350TIP3   OH240464   2.729   4.601   6.413 -0.0985  0.6819  0.1113
 6350TIP3    H140465   2.676   4.681   6.410 -0.4620  0.4508  0.2529
 6350TIP3    H240466   2.683   4.545   6.476  0.9023  0.8966  1.0574
 6351TIP3   OH240467   5.347   4.602   0.913  0.1735 -0.3278 -0.2195
 6351TIP3    H140468   5.351   4.648   0.828  1.1833  0.3253  0.1786
 6351TIP3    H240469   5.413   4.533   0.906  0.8436  0.2595  0.3545
 6352TIP3   OH240470   1.026   4.866  11.991  0.5060  0.1246  0.5771
 6352TIP3    H140471   0.962   4.908  12.050  0.2652  3.3445 -1.8731
 6352TIP3    H240472   1.098   4.928  11.985  1.8676 -1.4940 -0.2317
 6353TIP3   OH240473   5.973   4.558   2.522  0.1866  0.7206  0.2394
 6353TIP3    H140474   6.051   4.603   2.490 -0.3169  0.9871 -0.6412
 6353TIP3    H240475   5.911   4.628   2.541 -0.4987  0.4230 -0.8636
 6354TIP3   OH240476   5.518   4.526  10.757 -0.1345 -0.2374 -0.3033
 6354TIP3    H140477   5.430   4.491  10.773 -0.2879 -0.5302 -1.7144
 6354TIP3    H240478   5.555   4.469  10.690  0.4001  1.0254 -1.1042
 6355TIP3   OH240479   1.657   4.479   2.201  0.3301 -0.2350  0.4086
 6355TIP3    H140480   1.623   4.390   2.206  0.3620 -0.1821  1.8631
 6355TIP3    H240481   1.743   4.470   2.160  0.0435 -0.7920 -0.0677
 6356TIP3   OH240482   1.523   2.376   3.650  0.0091  0.0641  0.3468
 6356TIP3    H140483   1.552   2.290   3.680 -1.1783 -0.2186  0.7172
 6356TIP3    H240484   1.552   2.382   3.559  1.5177 -0.0594  0.8118
 6357TIP3   OH240485   4.405   4.449   1.561 -0.1935 -0.2835  0.3595
 6357TIP3    H140486   4.409   4.381   1.494  1.1605 -0.2299  0.3718
 6357TIP3    H240487   4.493   4.486   1.563  0.5360 -1.9163  3.8398
 6358TIP3   OH240488   4.989   6.393  15.623  0.6800 -0.3340  0.3106
 6358TIP3    H140489   4.923   6.325  15.638 -2.6739  2.7546  0.1516
 6358TIP3    H240490   4.985   6.409  15.528  2.1996 -0.6040  0.1869
 6359TIP3   OH240491   5.176   1.878  14.343  0.0605  0.2342 -0.1920
 6359TIP3    H140492   5.140   1.966  14.353 -1.9623 -0.6986  1.0139
 6359TIP3    H240493   5.198   1.851  14.433 -1.4512 -1.3440 -0.2771
 6360TIP3   OH240494   2.310   6.646  11.444 -0.0316  0.1957 -0.0779
 6360TIP3    H140495   2.354   6.579  11.392  0.3140 -0.4094  0.9791
 6360TIP3    H240496   2.379   6.708  11.468  0.2559 -0.6901  1.4799
 6361TIP3   OH240497   1.468   3.859  13.273  0.2661 -0.0639 -0.1747
 6361TIP3    H140498   1.478   3.954  13.267  1.0445 -0.0532  1.0293
 6361TIP3    H240499   1.486   3.839  13.365  1.8079 -1.5641 -0.7679
 6362TIP3   OH240500   6.035   1.988  16.031 -0.1657  0.0565 -0.5955
 6362TIP3    H140501   5.959   1.932  16.016 -0.4126  0.4949 -1.0039
 6362TIP3    H240502   6.018   2.029  16.116  1.0286 -2.1068  0.7172
 6363TIP3   OH240503   1.330   6.774   6.081  0.2793  0.1325 -0.0931
 6363TIP3    H140504   1.426   6.774   6.088  0.2366  0.5146  0.5791
 6363TIP3    H240505   1.305   6.865   6.100 -0.2040  0.0685 -0.4279
 6364TIP3   OH240506   5.321   6.667   0.679 -0.8353  0.4278  0.6014
 6364TIP3    H140507   5.316   6.762   0.673 -0.6413  0.5259  1.8817
 6364TIP3    H240508   5.409   6.649   0.709 -0.6106 -0.2126 -0.4118
 6365TIP3   OH240509   6.273   3.015  10.791 -0.0335 -0.7510 -0.7449
 6365TIP3    H140510   6.252   3.088  10.849 -1.1532  0.1740 -2.2937
 6365TIP3    H240511   6.200   3.012  10.729  0.6970 -2.3023 -1.5566
 6366TIP3   OH240512   2.108   6.023   0.970 -0.0849 -0.2880 -0.6605
 6366TIP3    H140513   2.103   5.943   0.918 -1.3253 -0.8941  0.3484
 6366TIP3    H240514   2.153   5.997   1.050 -1.5951 -0.2933  0.2054
 6367TIP3   OH240515   0.408   1.444  13.434  1.2707 -0.0958 -0.4503
 6367TIP3    H140516   0.329   1.495  13.416  1.7619  0.7688 -0.1994
 6367TIP3    H240517   0.472   1.476  13.372  1.9582  0.4920  0.5508
 6368TIP3   OH240518   6.699   4.901   5.525  0.2161 -0.0088 -0.6791
 6368TIP3    H140519   6.606   4.917   5.542 -0.7368 -5.5996  0.4186
 6368TIP3    H240520   6.740   4.908   5.611  0.7669  1.9443 -1.0851
 6369TIP3   OH240521   4.423   3.259   0.987  0.2613  0.0327 -0.6778
 6369TIP3    H140522   4.367   3.305   1.049 -0.1294  0.4055 -1.2971
 6369TIP3    H240523   4.399   3.296   0.902  0.7866 -0.4741 -1.0470
 6370TIP3   OH240524   4.613   3.007  15.541 -0.1477  0.4340  0.0696
 6370TIP3    H140525   4.576   3.067  15.477 -1.4778  0.3905  0.7726
 6370TIP3    H240526   4.556   3.015  15.618  2.1098  1.3837  1.7047
 6371TIP3   OH240527   4.341   0.431   2.650 -0.5004 -0.3494  0.5576
 6371TIP3    H140528   4.423   0.384   2.638 -0.0398  0.2648  1.2244
 6371TIP3    H240529   4.297   0.385   2.722 -0.5428 -0.4298  0.4786
 6372TIP3   OH240530   6.621   5.011  15.260 -0.2561  0.2021 -0.4387
 6372TIP3    H140531   6.611   4.964  15.177 -0.3228 -0.0308 -0.2992
 6372TIP3    H240532   6.716   5.013  15.275 -0.3690 -2.0278  0.7667
 6373TIP3   OH240533   4.657   5.699   3.706 -0.6649  0.2100 -0.0760
 6373TIP3    H140534   4.733   5.641   3.701  0.5528  1.8188 -0.5927
 6373TIP3    H240535   4.636   5.704   3.799 -0.2350 -0.3636  0.0512
 6374TIP3   OH240536   1.476   4.629  12.364 -0.1542 -0.0212 -0.3425
 6374TIP3    H140537   1.560   4.601  12.326 -0.0871  1.1408 -1.0558
 6374TIP3    H240538   1.449   4.555  12.418  1.4759 -0.2980  0.1183
 6375TIP3   OH240539   2.022   2.450  12.220  0.3944  0.4929 -0.3469
 6375TIP3    H140540   2.108   2.420  12.250  0.7011 -0.1078 -1.8100
 6375TIP3    H240541   1.971   2.370  12.207  0.9482  0.5805 -3.4665
 6376TIP3   OH240542   1.454   6.562   0.972 -0.4882  0.2936  0.6908
 6376TIP3    H140543   1.436   6.587   1.062  2.5518 -0.0958  1.4708
 6376TIP3    H240544   1.375   6.518   0.942 -0.7852 -1.4270  3.8583
 6377TIP3   OH240545   4.081   4.646   0.492 -0.4534  0.8544  0.1643
 6377TIP3    H140546   4.061   4.740   0.491 -1.5300  0.6149 -1.4144
 6377TIP3    H240547   3.999   4.603   0.468  0.7372 -0.3629 -1.8598
 6378TIP3   OH240548   5.330   4.987   5.762  0.5344 -0.0449 -0.3832
 6378TIP3    H140549   5.372   5.002   5.846  0.8790  0.6901 -0.6841
 6378TIP3    H240550   5.278   5.067   5.746  0.0807 -0.3844 -0.6323
 6379TIP3   OH240551   6.292   1.543   2.988 -0.4629  0.2304 -0.4504
 6379TIP3    H140552   6.368   1.485   2.986 -0.9549 -0.4380  0.0227
 6379TIP3    H240553   6.220   1.489   2.955 -1.0645  0.3523  0.6478
 6380TIP3   OH240554   6.282   5.183  14.818  0.3368 -0.7433  0.1410
 6380TIP3    H140555   6.329   5.259  14.853  0.4269  1.0613 -3.6246
 6380TIP3    H240556   6.190   5.199  14.840  0.7401 -1.2167  2.2115
 6381TIP3   OH240557   2.184   3.156  12.687 -0.5268  0.3189 -0.0452
 6381TIP3    H140558   2.173   3.249  12.707  2.2542  0.7891 -0.5483
 6381TIP3    H240559   2.208   3.153  12.594 -0.8392 -0.9250 -0.1052
 6382TIP3   OH240560   1.851   5.821   5.303 -0.6188  0.6256  0.2923
 6382TIP3    H140561   1.912   5.884   5.265 -0.8774  1.5634  1.3860
 6382TIP3    H240562   1.767   5.843   5.262  0.1467 -2.3047 -3.1530
 6383TIP3   OH240563   3.965   3.391  15.697 -0.4175  0.4387  0.2274
 6383TIP3    H140564   4.005   3.410  15.612  0.1310  0.4557  0.4882
 6383TIP3    H240565   3.966   3.476  15.742 -0.9589  0.4877  0.1466
 6384TIP3   OH240566   3.673   2.362  14.971 -0.1283 -0.3596  0.4128
 6384TIP3    H140567   3.679   2.324  14.883 -0.8779 -0.0450  0.2198
 6384TIP3    H240568   3.622   2.299  15.022 -0.1641 -0.2794  0.4761
 6385TIP3   OH240569   3.653   5.154  14.686  0.0314 -0.2946 -0.1238
 6385TIP3    H140570   3.700   5.224  14.641 -0.1667  0.4547  0.8177
 6385TIP3    H240571   3.722   5.098  14.722  0.2113  0.2694  0.4287
 6386TIP3   OH240572   2.470   1.611  15.119 -0.1060 -0.2633 -0.0848
 6386TIP3    H140573   2.500   1.663  15.044  0.9582  0.3942  0.7891
 6386TIP3    H240574   2.545   1.556  15.141 -0.2078 -0.0174  0.8864
 6387TIP3   OH240575   1.078   5.632   3.808  0.0353  0.2641  0.0757
 6387TIP3    H140576   1.056   5.701   3.871  3.2102  0.6356  0.8975
 6387TIP3    H240577   1.080   5.677   3.723 -1.5907  0.3540  0.0807
 6388TIP3   OH240578   1.065   3.923  14.175  0.0647  0.3585 -0.0374
 6388TIP3    H140579   1.131   3.860  14.146  1.3810  1.3531  0.7413
 6388TIP3    H240580   0.990   3.907  14.117  1.9830  1.1274 -2.8465
 6389TIP3   OH240581   4.530   1.339   5.909 -0.2666 -0.5220 -0.0239
 6389TIP3    H140582   4.618   1.347   5.945 -1.0900  3.1073  1.3834
 6389TIP3    H240583   4.490   1.268   5.960  1.0209 -0.4416  1.1221
 6390TIP3   OH240584   2.894   1.919   4.335 -0.3470 -0.0794 -0.6028
 6390TIP3    H140585   2.927   2.009   4.328 -1.0762  0.3095  0.8389
 6390TIP3    H240586   2.893   1.901   4.429 -0.0176 -1.6777 -0.8879
 6391TIP3   OH240587   1.732   1.735  16.593  0.1955 -0.1229 -0.0079
 6391TIP3    H140588   1.778   1.819  16.583 -0.8837  0.3934 -0.7875
 6391TIP3    H240589   1.801   1.670  16.601  1.1774  0.2185 -4.5944
 6392TIP3   OH240590   4.868   4.902   4.792 -0.7450 -0.0409 -0.1640
 6392TIP3    H140591   4.872   4.861   4.705 -0.2542  0.4197 -0.3620
 6392TIP3    H240592   4.924   4.847   4.847 -0.3710  0.1583 -0.3439
 6393TIP3   OH240593   4.218   1.497  13.168 -0.4316  0.0985  0.2636
 6393TIP3    H140594   4.226   1.449  13.086 -0.3408  1.3619 -0.4765
 6393TIP3    H240595   4.224   1.430  13.236  0.6516 -0.8232 -0.7233
 6394TIP3   OH240596   3.129   4.190   1.925  0.2429  0.0247  0.4229
 6394TIP3    H140597   3.213   4.163   1.962  0.8319  1.3523  0.0924
 6394TIP3    H240598   3.147   4.275   1.885 -0.9830 -0.2289 -0.6908
 6395TIP3   OH240599   3.534   2.223   4.842  0.1758  0.1985 -0.0257
 6395TIP3    H140600   3.536   2.186   4.931  0.8839  2.6534  1.0234
 6395TIP3    H240601   3.609   2.283   4.840  0.2673  0.0233 -2.3624
 6396TIP3   OH240602   5.060   3.776  12.695 -0.4937 -0.2850 -0.3512
 6396TIP3    H140603   4.970   3.773  12.727 -0.6575  0.3318 -0.7332
 6396TIP3    H240604   5.061   3.850  12.634  0.0345 -0.8649 -1.0602
 6397TIP3   OH240605   1.792   5.957   6.399 -0.7852 -0.1658 -0.1818
 6397TIP3    H140606   1.718   5.992   6.448 -1.1126  0.4385 -1.1224
 6397TIP3    H240607   1.869   5.988   6.448 -1.0806  1.5576 -0.8104
 6398TIP3   OH240608   1.880   5.905   1.245  0.3428 -0.3457 -0.6860
 6398TIP3    H140609   1.905   5.995   1.266 -0.3209 -0.3831  0.3625
 6398TIP3    H240610   1.859   5.907   1.152  1.5330  0.2999 -0.9526
 6399TIP3   OH240611   3.066   1.202  11.456  0.4671 -0.2996 -0.4026
 6399TIP3    H140612   3.090   1.126  11.403  2.7046  1.4117 -1.9195
 6399TIP3    H240613   3.122   1.195  11.534 -0.0608 -0.7281 -0.0550
 6400TIP3   OH240614   2.680   6.301   5.432  0.1269  0.5660  0.0229
 6400TIP3    H140615   2.716   6.228   5.483 -0.3277  1.1000  1.1266
 6400TIP3    H240616   2.677   6.374   5.494  1.4335  1.7859 -1.3240
 6401TIP3   OH240617   2.982   0.362   0.724 -0.6922  0.0069 -0.2152
 6401TIP3    H140618   2.985   0.377   0.819 -0.4648  2.9303 -0.6370
 6401TIP3    H240619   2.913   0.420   0.693 -0.7007 -0.8673 -1.8880
 6402TIP3   OH240620   2.433   6.012  11.850  0.7788 -0.0678  0.2943
 6402TIP3    H140621   2.343   6.016  11.819 -0.0338 -0.9168  2.4464
 6402TIP3    H240622   2.468   5.932  11.812 -0.3887 -1.4127  1.9872
 6403TIP3   OH240623   3.150   1.984   5.039  0.4464 -0.2052 -0.0737
 6403TIP3    H140624   3.180   1.905   5.085  0.0449  1.1540  2.6164
 6403TIP3    H240625   3.101   1.951   4.964  0.7013 -2.5004  0.7241
 6404TIP3   OH240626   2.690   0.289   4.931 -0.5796 -0.2161 -0.0041
 6404TIP3    H140627   2.706   0.374   4.973 -0.2217  0.1268 -0.8203
 6404TIP3    H240628   2.762   0.233   4.960  0.1265  0.2619 -0.7953
 6405TIP3   OH240629   5.309   1.325   4.751  0.1676  0.7117 -0.0469
 6405TIP3    H140630   5.312   1.362   4.840  1.0471  1.3643 -0.3327
 6405TIP3    H240631   5.373   1.254   4.753 -2.3134 -1.5488  0.8108
 6406TIP3   OH240632   3.817   3.258   2.830  0.3949 -0.1629  0.2154
 6406TIP3    H140633   3.860   3.259   2.916 -0.0035 -0.2395  0.4141
 6406TIP3    H240634   3.724   3.249   2.850  0.3669 -0.8743 -0.2478
 6407TIP3   OH240635   6.014   3.540  14.488 -0.4758 -0.2342  0.1096
 6407TIP3    H140636   5.936   3.513  14.439 -0.1316 -0.1353 -0.4909
 6407TIP3    H240637   6.035   3.464  14.543 -1.5451  0.0853  0.9641
 6408TIP3   OH240638   1.277   6.484  16.674  0.3964  0.8374  0.4316
 6408TIP3    H140639   1.263   6.448  16.762  1.7033  1.4028  0.8816
 6408TIP3    H240640   1.372   6.488  16.665  0.3239 -1.3736 -1.8931
 6409TIP3   OH240641   3.845   4.004   1.088  0.1655  0.8658  0.4349
 6409TIP3    H140642   3.912   3.953   1.044  0.2853  1.3061  0.1016
 6409TIP3    H240643   3.794   4.043   1.016  1.9226  3.6624  0.6483
 6410TIP3   OH240644   0.809   4.217   6.195 -0.3242  0.0929  0.3493
 6410TIP3    H140645   0.730   4.168   6.217 -0.4483  0.2736  0.3022
 6410TIP3    H240646   0.854   4.229   6.279  0.3615 -1.2416  0.1834
 6411TIP3   OH240647   2.451   5.167  12.647  0.2886  0.5304  0.2570
 6411TIP3    H140648   2.471   5.108  12.574 -0.6461 -0.7772  1.0283
 6411TIP3    H240649   2.420   5.247  12.605 -4.3758 -1.6467 -0.8939
 6412TIP3   OH240650   0.863   2.367  13.362 -0.4309 -0.3429  0.2652
 6412TIP3    H140651   0.808   2.401  13.292 -0.0564 -2.1145 -0.9452
 6412TIP3    H240652   0.866   2.272  13.345  1.0399 -0.5628  1.6828
 6413TIP3   OH240653   5.829   6.053  14.159  0.5218 -0.3891 -0.3876
 6413TIP3    H140654   5.912   6.101  14.161  0.9915 -1.1567 -1.2514
 6413TIP3    H240655   5.785   6.078  14.241  0.5412  1.8567 -1.0415
 6414TIP3   OH240656   1.677   0.818  15.233 -0.6757  0.6230  0.2246
 6414TIP3    H140657   1.771   0.797  15.234 -0.5132  1.3736  0.7970
 6414TIP3    H240658   1.638   0.750  15.288 -0.1866  1.6164  1.8144
 6415TIP3   OH240659   2.195   6.102  15.398 -0.3420  0.4173  0.0110
 6415TIP3    H140660   2.279   6.138  15.369 -0.0151 -1.2236 -1.1821
 6415TIP3    H240661   2.206   6.086  15.491  0.8400 -0.2337 -0.2337
 6416TIP3   OH240662   1.368   0.678   2.460 -0.0498 -0.5212 -0.1993
 6416TIP3    H140663   1.464   0.676   2.465 -0.0480  0.6427  0.5621
 6416TIP3    H240664   1.343   0.590   2.434  1.1330 -1.4094  1.5471
 6417TIP3   OH240665   0.110   2.104  12.293 -0.2921  0.0498  0.2579
 6417TIP3    H140666   0.044   2.125  12.226 -1.1061  3.3807  1.9833
 6417TIP3    H240667   0.194   2.120  12.249 -0.6446 -2.0210 -1.2588
 6418TIP3   OH240668   4.205   4.199   3.512 -0.0089  0.4719  0.7349
 6418TIP3    H140669   4.232   4.108   3.523 -1.4247 -0.0588 -0.0059
 6418TIP3    H240670   4.153   4.219   3.590  0.3389  0.6495  0.9187
 6419TIP3   OH240671   6.311   0.766   2.489 -0.1702 -0.1383 -0.0248
 6419TIP3    H140672   6.353   0.763   2.575 -0.1410 -2.6844 -0.1067
 6419TIP3    H240673   6.362   0.831   2.440  0.1855  0.8899  1.6594
 6420TIP3   OH240674   6.573   3.797  13.933  0.1961 -0.0156 -0.6784
 6420TIP3    H140675   6.563   3.834  13.845 -0.2329 -1.2887 -1.1888
 6420TIP3    H240676   6.596   3.705  13.917  1.5875  0.1036  0.5410
 6421TIP3   OH240677   2.887   4.683   0.365 -0.3010  0.3385 -0.4613
 6421TIP3    H140678   2.942   4.680   0.443  1.2077  0.1833 -1.5131
 6421TIP3    H240679   2.821   4.615   0.379  0.2416  0.0040  0.4645
 6422TIP3   OH240680   5.226   2.539  11.807  0.1957  0.1453 -0.1575
 6422TIP3    H140681   5.215   2.445  11.795 -0.9625  0.1858  0.5516
 6422TIP3    H240682   5.261   2.549  11.895  1.9193  0.2953 -0.8298
 6423TIP3   OH240683   4.055   3.812  11.287 -0.3376  0.2566  0.1290
 6423TIP3    H140684   4.078   3.761  11.210  1.6349 -0.3862  1.1129
 6423TIP3    H240685   4.122   3.881  11.291 -1.1761  1.0596  0.5443
 6424TIP3   OH240686   3.782   5.671  17.217 -0.6491  0.1052 -0.3782
 6424TIP3    H140687   3.773   5.759  17.256  0.7770  0.6487 -1.2496
 6424TIP3    H240688   3.860   5.635  17.259 -0.0923  0.0304 -1.4705
 6425TIP3   OH240689   1.863   2.929   0.593  0.9015 -0.5259  0.1235
 6425TIP3    H140690   1.915   2.995   0.547 -0.3839  1.0657  0.9684
 6425TIP3    H240691   1.789   2.976   0.629  1.1404 -2.0206  2.6761
 6426TIP3   OH240692   0.327   2.002   0.337  0.6050  0.2292 -0.3209
 6426TIP3    H140693   0.310   2.096   0.345 -0.2654  0.1269 -0.8043
 6426TIP3    H240694   0.296   1.980   0.249  2.1190 -0.2407 -0.7402
 6427TIP3   OH240695   2.498   1.048  15.024 -0.0125  0.6631 -0.3230
 6427TIP3    H140696   2.593   1.045  15.036 -0.0685  0.5459  0.1119
 6427TIP3    H240697   2.465   1.086  15.105 -0.6612 -3.2200  1.3732
 6428TIP3   OH240698   3.418   0.516   2.647 -0.4215  0.2060 -0.1560
 6428TIP3    H140699   3.328   0.492   2.623 -0.1499 -0.6684 -0.3017
 6428TIP3    H240700   3.461   0.533   2.563  0.3607 -2.2555 -0.2847
 6429TIP3   OH240701   1.184   1.947   3.537 -0.4670  0.6594 -0.8001
 6429TIP3    H140702   1.208   2.032   3.574 -0.6925  0.5780 -0.4621
 6429TIP3    H240703   1.138   1.968   3.456  1.1201  0.8078 -1.6881
 6430TIP3   OH240704   1.928   2.767  11.276 -0.0042  0.8089 -0.1206
 6430TIP3    H140705   1.858   2.829  11.257 -0.8852 -0.7478 -2.1415
 6430TIP3    H240706   2.003   2.800  11.226 -0.5981  0.0310 -1.5450
 6431TIP3   OH240707   2.830   2.066   3.122  0.3335  0.0898  0.1579
 6431TIP3    H140708   2.751   2.013   3.131  0.6020 -0.4571 -0.5962
 6431TIP3    H240709   2.849   2.097   3.210  2.2284 -4.0829  1.3729
 6432TIP3   OH240710   3.335   0.614  15.187  0.3563 -0.1864  0.0498
 6432TIP3    H140711   3.247   0.577  15.196 -0.0529  1.0071  1.1486
 6432TIP3    H240712   3.353   0.610  15.093  0.0863 -2.5666  0.0659
 6433TIP3   OH240713   6.131   2.724   3.776  0.7255  0.1692 -0.0817
 6433TIP3    H140714   6.203   2.740   3.837  0.9164 -0.1147 -0.2338
 6433TIP3    H240715   6.137   2.631   3.755  0.7245  0.2867 -0.6138
 6434TIP3   OH240716   6.091   3.871   1.361 -0.5388  0.2763 -0.2549
 6434TIP3    H140717   6.014   3.925   1.378 -0.7615  0.8257 -2.7639
 6434TIP3    H240718   6.164   3.922   1.395 -1.0785  0.6328  0.3919
 6435TIP3   OH240719   0.422   2.383   2.353  0.5627 -0.6084  0.3874
 6435TIP3    H140720   0.480   2.317   2.316 -1.0843 -0.3234 -2.7902
 6435TIP3    H240721   0.429   2.458   2.294 -1.9268 -0.0478  0.7446
 6436TIP3   OH240722   3.176   3.590  12.623 -0.5291 -0.2424 -0.5933
 6436TIP3    H140723   3.248   3.536  12.592 -0.1891  0.4330 -0.9917
 6436TIP3    H240724   3.208   3.629  12.705 -0.6436 -0.3718 -0.4872
 6437TIP3   OH240725   1.135   0.742  11.280  0.4988  0.7427 -0.0573
 6437TIP3    H140726   1.083   0.817  11.250 -0.3994 -0.2688 -1.1414
 6437TIP3    H240727   1.099   0.721  11.366  2.3186  2.9704  1.2731
 6438TIP3   OH240728   4.963   0.154  15.926 -0.2508  0.1780  0.4972
 6438TIP3    H140729   5.046   0.107  15.923  0.9339  2.2082  0.8183
 6438TIP3    H240730   4.900   0.090  15.959  0.6209 -2.1629 -2.1360
 6439TIP3   OH240731   2.043   2.195  11.217 -0.2579  0.1710  0.4939
 6439TIP3    H140732   1.967   2.214  11.162  1.4460  3.1179 -0.9692
 6439TIP3    H240733   2.110   2.166  11.156 -0.3674 -3.2562  1.8665
 6440TIP3   OH240734   5.223   6.330  11.943 -0.2419 -0.0957  0.2450
 6440TIP3    H140735   5.261   6.245  11.965 -0.3520  0.3515  2.2967
 6440TIP3    H240736   5.296   6.391  11.951 -0.6625  0.3129  1.0663
 6441TIP3   OH240737   4.546   3.137   2.785  0.2808 -0.3563  0.1822
 6441TIP3    H140738   4.544   3.217   2.732  0.2059  0.2042  1.0224
 6441TIP3    H240739   4.557   3.168   2.875 -2.9240 -1.0812  0.9054
 6442TIP3   OH240740   3.395   0.534  12.474 -0.1978 -0.0543 -0.3897
 6442TIP3    H140741   3.468   0.574  12.521 -0.3988 -0.0690 -0.0658
 6442TIP3    H240742   3.380   0.590  12.398 -0.0155  0.0892 -0.3173
 6443TIP3   OH240743   1.873   6.252   4.511  0.2760  0.1142  0.2620
 6443TIP3    H140744   1.844   6.170   4.550  1.6574 -0.8908 -0.8060
 6443TIP3    H240745   1.966   6.258   4.533  0.5255  0.6766 -0.9224
 6444TIP3   OH240746   0.675   3.557  12.516 -0.2057 -0.0778 -0.1926
 6444TIP3    H140747   0.766   3.572  12.490  0.0552 -0.3347  0.5595
 6444TIP3    H240748   0.636   3.510  12.442  0.2140  0.2357 -0.6103
 6445TIP3   OH240749   2.275   0.769  12.768 -0.0957 -0.3972 -0.1321
 6445TIP3    H140750   2.355   0.785  12.818  0.6494 -1.6037 -0.8986
 6445TIP3    H240751   2.204   0.791  12.828  0.7997  1.5304  0.2722
 6446TIP3   OH240752   0.148   6.356  16.415  0.3116 -0.4608 -0.1922
 6446TIP3    H140753   0.228   6.401  16.387  0.6519 -0.5001  0.6897
 6446TIP3    H240754   0.104   6.419  16.473  0.0887 -0.7356 -0.0638
 6447TIP3   OH240755   6.148   2.548  16.538  0.2679 -0.5389 -0.1230
 6447TIP3    H140756   6.183   2.624  16.586 -1.0325  0.0839 -0.1525
 6447TIP3    H240757   6.130   2.483  16.605 -2.0987  0.5437  0.3303
 6448TIP3   OH240758   4.078   5.337   3.029  0.3300  0.1754  0.1049
 6448TIP3    H140759   4.011   5.398   2.998  1.8056  2.0051  0.4273
 6448TIP3    H240760   4.157   5.362   2.980  0.9858 -1.4323  0.3081
 6449TIP3   OH240761   4.096   0.061  15.988 -0.3088  0.3421 -0.2612
 6449TIP3    H140762   4.013   0.070  15.941 -1.3610 -0.0197  1.5258
 6449TIP3    H240763   4.088   0.119  16.064  1.1851  0.5146 -0.2102
 6450TIP3   OH240764   2.383   1.137  16.181  0.3667  0.6629  0.3063
 6450TIP3    H140765   2.291   1.108  16.185  0.1837  1.2503  0.3616
 6450TIP3    H240766   2.422   1.080  16.114  0.1320 -0.0490  0.7608
 6451TIP3   OH240767   5.369   0.983  15.687 -0.2994 -0.0757  0.4810
 6451TIP3    H140768   5.278   0.963  15.708 -0.6034  0.8812  0.0626
 6451TIP3    H240769   5.387   0.934  15.607 -0.6755  0.3826  0.1242
 6452TIP3   OH240770   6.782   0.358   0.405 -0.2176 -0.2525  0.3967
 6452TIP3    H140771   6.817   0.269   0.398  1.3264  0.3906 -0.2442
 6452TIP3    H240772   6.793   0.396   0.318  2.2779  1.6896  1.4876
 6453TIP3   OH240773   5.588   0.686  16.900  0.2416  0.0043  0.2293
 6453TIP3    H140774   5.502   0.643  16.902  1.2315 -2.0962 -0.5545
 6453TIP3    H240775   5.569   0.779  16.911 -2.1035 -0.4699  0.4398
 6454TIP3   OH240776   1.998   4.474  13.295 -0.0445 -0.2673  0.0440
 6454TIP3    H140777   2.027   4.491  13.206  0.7005  2.5986  0.7804
 6454TIP3    H240778   2.058   4.408  13.328  0.7889 -0.0357 -0.9869
 6455TIP3   OH240779   4.263   3.080  10.753 -0.4226 -0.4152 -0.3429
 6455TIP3    H140780   4.286   2.992  10.725 -1.7132 -0.8088 -0.1575
 6455TIP3    H240781   4.320   3.097  10.828  0.6206 -0.6548 -1.0724
 6456TIP3   OH240782   4.566   1.494  15.802  0.1840 -0.2841  0.1342
 6456TIP3    H140783   4.499   1.458  15.860  1.4970 -1.5904  0.8763
 6456TIP3    H240784   4.567   1.587  15.823 -0.8321 -0.3819  0.6921
 6457TIP3   OH240785   2.476   5.934   4.241 -0.5457  0.2541  0.1679
 6457TIP3    H140786   2.495   5.925   4.147  0.4367 -0.0265  0.3949
 6457TIP3    H240787   2.531   5.869   4.283 -0.0806  1.2056  1.0482
 6458TIP3   OH240788   3.206   0.032   5.515 -0.1940 -0.6860 -0.1737
 6458TIP3    H140789   3.149   0.109   5.516 -1.9558 -1.9735 -0.8077
 6458TIP3    H240790   3.233   0.023   5.424  1.3372  0.1028  0.1689
 6459TIP3   OH240791   5.520   1.596   3.027  0.3889  0.3228 -0.1945
 6459TIP3    H140792   5.500   1.539   3.101 -0.4408  0.0988 -0.5890
 6459TIP3    H240793   5.604   1.563   2.993  2.4660  2.4321  2.6120
 6460TIP3   OH240794   3.085   5.584  16.719  0.4397 -0.0825  0.4413
 6460TIP3    H140795   3.100   5.679  16.715  1.9074 -0.2423  1.7644
 6460TIP3    H240796   3.172   5.546  16.730 -0.4195 -1.3963  3.0864
 6461TIP3   OH240797   6.228   6.725  14.946  0.1153  0.0743  0.0042
 6461TIP3    H140798   6.177   6.793  14.989 -0.7230  0.2941 -1.2857
 6461TIP3    H240799   6.312   6.766  14.926 -1.1475  1.4506 -2.6974
 6462TIP3   OH240800   5.952   4.612   6.453  0.3044  0.1245 -0.9682
 6462TIP3    H140801   6.005   4.671   6.506 -0.6664 -0.0698  0.2509
 6462TIP3    H240802   5.863   4.644   6.462 -0.2298 -1.4763 -0.3290
 6463TIP3   OH240803   2.263   0.253   6.343 -0.2556 -0.3084  0.2270
 6463TIP3    H140804   2.215   0.174   6.369 -0.5859 -0.1873 -0.0087
 6463TIP3    H240805   2.251   0.258   6.248 -3.1450  1.8828  0.6173
 6464TIP3   OH240806   5.704   0.013  13.497 -0.3092 -0.1864 -0.0060
 6464TIP3    H140807   5.690   0.001  13.591 -0.1631 -0.8202 -0.0678
 6464TIP3    H240808   5.698  -0.075  13.460  0.3858 -0.0334 -0.4884
 6465TIP3   OH240809   6.590   0.728  12.271 -0.0921  0.0187 -0.1021
 6465TIP3    H140810   6.502   0.696  12.293  0.4061 -2.3228 -1.2960
 6465TIP3    H240811   6.576   0.815  12.235 -1.9552 -0.4020 -0.4388
 6466TIP3   OH240812   0.039   1.330   4.444 -0.1331  0.1397  0.1343
 6466TIP3    H140813   0.003   1.261   4.389 -0.5631 -0.2032  0.8488
 6466TIP3    H240814   0.034   1.409   4.389 -2.0622  0.1197  0.2449
 6467TIP3   OH240815   2.500   3.915  16.123 -0.3412  0.2210 -0.2668
 6467TIP3    H140816   2.440   3.853  16.081  1.2259  0.1344 -2.4579
 6467TIP3    H240817   2.583   3.868  16.126 -0.2170  0.5440  2.2472
 6468TIP3   OH240818   1.915   0.221  14.117  0.3863  0.4233  0.7849
 6468TIP3    H140819   1.830   0.244  14.079  0.2899 -0.8151  0.2323
 6468TIP3    H240820   1.979   0.256  14.055  0.2620  0.0748  0.4631
 6469TIP3   OH240821   2.630   2.008  16.868  0.3934  0.1635 -0.5550
 6469TIP3    H140822   2.585   2.028  16.950  1.3253 -0.0405  0.0140
 6469TIP3    H240823   2.616   1.914  16.856 -0.1244  0.2792 -0.8643
 6470TIP3   OH240824   4.858   1.211   4.466 -0.2081  0.1763 -0.2273
 6470TIP3    H140825   4.915   1.135   4.473  1.7091  1.7024  1.2233
 6470TIP3    H240826   4.802   1.206   4.544 -2.0598 -1.2905 -1.6208
 6471TIP3   OH240827   4.405   2.542  12.678  0.8053 -0.1389  0.3884
 6471TIP3    H140828   4.326   2.544  12.625  0.8554 -0.2490  0.3108
 6471TIP3    H240829   4.454   2.620  12.652  0.6907 -0.0347  0.4855
 6472TIP3   OH240830   0.393   1.604   6.081  0.1782 -0.1445 -0.1055
 6472TIP3    H140831   0.436   1.537   6.133  1.8994  1.4423  0.5815
 6472TIP3    H240832   0.463   1.666   6.058 -1.2226  1.0574 -1.2884
 6473TIP3   OH240833   1.013   1.761   4.505 -0.0151 -0.1771 -0.0786
 6473TIP3    H140834   1.059   1.844   4.501  0.6775 -0.6487 -4.4041
 6473TIP3    H240835   0.929   1.782   4.547  1.9068  1.7538  2.9073
 6474TIP3   OH240836   1.811   4.864  11.942 -0.0702 -0.1734 -0.6049
 6474TIP3    H140837   1.812   4.801  11.870 -0.5622  1.0566 -1.7193
 6474TIP3    H240838   1.735   4.921  11.923 -0.5898 -0.2243  1.2286
 6475TIP3   OH240839   0.059   0.696  11.134  0.4782 -0.2654  0.3316
 6475TIP3    H140840   0.056   0.624  11.197 -2.0543 -1.9900 -1.5965
 6475TIP3    H240841  -0.017   0.679  11.077  2.1316  1.7322 -2.5454
 6476TIP3   OH240842   2.701   5.641   4.863 -0.4888  0.1649  0.1196
 6476TIP3    H140843   2.630   5.606   4.809 -0.2891  1.3073 -0.9003
 6476TIP3    H240844   2.693   5.736   4.854 -0.6937  0.3844  2.4204
 6477TIP3   OH240845   4.846   0.431   0.001  0.0862 -0.1766 -0.0003
 6477TIP3    H140846   4.814   0.467  -0.082  0.0725 -0.1594  0.0095
 6477TIP3    H240847   4.933   0.396  -0.020  1.2570  2.2741  0.5949
 6478TIP3   OH240848   1.568   3.959   1.496 -0.2805  0.1417 -0.3689
 6478TIP3    H140849   1.622   3.888   1.461 -0.3642  0.5092 -1.2590
 6478TIP3    H240850   1.621   3.997   1.566  0.3066  0.0299 -0.7516
 6479TIP3   OH240851   1.656   3.657  14.731 -0.6553  0.3130 -0.3404
 6479TIP3    H140852   1.663   3.631  14.823  0.9693  0.3462 -0.4393
 6479TIP3    H240853   1.717   3.599  14.685  1.2741  2.7091 -0.8904
 6480TIP3   OH240854   0.938   4.572   2.670 -0.5199  0.0819 -0.6520
 6480TIP3    H140855   0.969   4.518   2.743 -0.9127 -0.4313 -0.8680
 6480TIP3    H240856   0.914   4.510   2.602 -2.0918  0.4746 -0.4751
 6481TIP3   OH240857   2.811   0.034   1.742 -0.0296  0.0954 -0.2184
 6481TIP3    H140858   2.872   0.067   1.675  0.1112 -1.9103 -1.1240
 6481TIP3    H240859   2.806  -0.060   1.725  0.0395 -0.4776  2.6523
 6482TIP3   OH240860   1.491   1.403   3.113 -0.2108 -0.4568 -0.2391
 6482TIP3    H140861   1.474   1.343   3.186 -1.8819  1.0725  0.6749
 6482TIP3    H240862   1.407   1.411   3.069  0.3374  0.1183 -1.1993
 6483TIP3   OH240863   1.086   4.354   3.110  0.0130  0.4142  0.1749
 6483TIP3    H140864   1.148   4.282   3.124 -0.7152 -0.9672 -3.2880
 6483TIP3    H240865   1.139   4.424   3.072  0.0418  0.4253  0.2357
 6484TIP3   OH240866   2.284   3.435  14.202  0.7842 -0.1672  0.4814
 6484TIP3    H140867   2.188   3.438  14.206  0.5607 -0.5969 -2.7882
 6484TIP3    H240868   2.308   3.358  14.253 -0.8374 -1.4538 -0.6268
 6485TIP3   OH240869   5.778   2.536   6.095  0.6725  0.3389  0.1441
 6485TIP3    H140870   5.709   2.484   6.135  1.3882 -1.7599 -1.3037
 6485TIP3    H240871   5.738   2.621   6.079 -0.5654  0.2075  2.3544
 6486TIP3   OH240872   3.404   5.172  15.171 -0.2596  0.5039 -0.2583
 6486TIP3    H140873   3.460   5.149  15.097  0.6929 -0.0654  0.6310
 6486TIP3    H240874   3.335   5.227  15.133  0.3870  0.4559 -1.5131
 6487TIP3   OH240875   5.672   4.368   3.573 -0.0935 -0.1028 -0.0373
 6487TIP3    H140876   5.673   4.411   3.659 -0.1657 -1.6155  0.7405
 6487TIP3    H240877   5.743   4.409   3.525  0.5260  0.1329  1.0671
 6488TIP3   OH240878   3.086   3.194  13.087 -0.0175  0.4165 -0.1784
 6488TIP3    H140879   3.031   3.194  13.009 -0.5559 -0.2970  0.1929
 6488TIP3    H240880   3.086   3.103  13.116 -0.0326  0.7223  0.7933
 6489TIP3   OH240881   1.587   4.723   5.945 -0.0317  0.0595  0.2132
 6489TIP3    H140882   1.593   4.659   6.015  0.9123  0.2456  0.3135
 6489TIP3    H240883   1.494   4.743   5.937 -0.0479  0.8038  2.0961
 6490TIP3   OH240884   4.460   5.441  16.306 -0.1247 -0.2948  0.1380
 6490TIP3    H140885   4.403   5.517  16.320  0.6269  0.5983 -1.5355
 6490TIP3    H240886   4.402   5.375  16.270 -0.3707  0.1919 -0.3730
 6491TIP3   OH240887   1.663   6.195   5.793 -0.4139  0.5226 -0.0793
 6491TIP3    H140888   1.725   6.149   5.737  1.1063  2.2307  0.1752
 6491TIP3    H240889   1.686   6.167   5.882 -0.3925  0.7141 -0.0251
 6492TIP3   OH240890   3.797   3.051   5.100  0.4644 -0.4965 -0.0456
 6492TIP3    H140891   3.743   3.124   5.130  2.3375 -0.0009  2.2746
 6492TIP3    H240892   3.745   2.973   5.119  0.6677 -0.0560  2.5725
 6493TIP3   OH240893   2.236   2.279  13.312 -0.3293  0.0253  0.7122
 6493TIP3    H140894   2.275   2.191  13.312 -0.0552  0.1332 -0.6063
 6493TIP3    H240895   2.305   2.335  13.276 -0.8681  0.6090  0.5915
 6494TIP3   OH240896   6.611   3.749   0.064  0.0094 -0.2469 -0.3493
 6494TIP3    H140897   6.567   3.664   0.066  0.2764 -0.5304 -3.5853
 6494TIP3    H240898   6.540   3.813   0.063 -0.1914 -0.2815  3.8418
 6495TIP3   OH240899   5.037   6.561  12.235 -0.3803 -0.0995 -0.3080
 6495TIP3    H140900   4.991   6.550  12.318 -1.0088 -2.5879 -0.9269
 6495TIP3    H240901   4.982   6.620  12.184 -1.3770 -0.7080  0.0517
 6496TIP3   OH240902   1.817   3.981   3.529  0.6406  0.1010  0.2080
 6496TIP3    H140903   1.733   4.018   3.500 -0.2964 -2.5805 -0.7274
 6496TIP3    H240904   1.861   3.956   3.448  1.1729 -0.8912  0.7946
 6497TIP3   OH240905   2.752   6.558  12.601  0.0230  0.2223  0.4162
 6497TIP3    H140906   2.805   6.520  12.671  0.9830  0.0894 -0.3519
 6497TIP3    H240907   2.667   6.516  12.609  0.7270 -1.2635  0.2948
 6498TIP3   OH240908   1.384   3.180   5.773  0.6049 -0.5350  0.5019
 6498TIP3    H140909   1.317   3.178   5.705  1.4285 -3.3534 -0.2846
 6498TIP3    H240910   1.425   3.266   5.763 -1.4255  0.3538 -0.4311
 6499TIP3   OH240911   3.709   3.605  14.760  0.8827 -0.0276 -0.3045
 6499TIP3    H140912   3.778   3.652  14.806 -1.3448  1.0606  2.1248
 6499TIP3    H240913   3.705   3.519  14.804  0.7412 -0.1011 -0.4601
 6500TIP3   OH240914   1.445   2.184  15.308 -0.2817 -0.4260 -0.3746
 6500TIP3    H140915   1.384   2.208  15.239 -0.6856 -1.7752 -0.4994
 6500TIP3    H240916   1.393   2.134  15.371  0.2629  0.0973  0.5135
 6501TIP3   OH240917   0.362   3.840  12.897 -0.1841 -0.5580  0.2793
 6501TIP3    H140918   0.353   3.933  12.878  0.7110 -0.5236 -0.0147
 6501TIP3    H240919   0.398   3.803  12.816 -1.7543 -1.3831 -0.0591
 6502TIP3   OH240920   3.034   3.401  12.394  0.1825  0.4258 -0.2249
 6502TIP3    H140921   3.028   3.372  12.302 -0.8387  1.2426 -0.4287
 6502TIP3    H240922   3.063   3.492  12.388 -1.9768  1.1605  0.1503
 6503TIP3   OH240923   3.116   5.951  15.611  0.5840 -0.2793  0.3473
 6503TIP3    H140924   3.075   5.892  15.675 -0.4197 -0.3860 -0.3822
 6503TIP3    H240925   3.043   5.997  15.571  1.3442  1.2672  0.7010
 6504TIP3   OH240926   5.545   4.645   0.204 -0.3799  0.9808  0.2086
 6504TIP3    H140927   5.628   4.685   0.177  0.3341 -0.0939  0.7817
 6504TIP3    H240928   5.564   4.606   0.289 -1.6116  1.1388  0.5591
 6505TIP3   OH240929   1.011   4.927   5.805 -0.7425  0.1445  0.3710
 6505TIP3    H140930   0.969   4.890   5.882 -0.4653  0.1131  0.5088
 6505TIP3    H240931   1.001   4.859   5.738  0.7651 -0.6638  0.9465
 6506TIP3   OH240932   2.122   1.914  12.566 -0.0957 -0.9616 -0.1408
 6506TIP3    H140933   2.216   1.905  12.552 -0.0683  1.5672 -1.9714
 6506TIP3    H240934   2.085   1.833  12.531  1.2148 -0.7776 -2.0444
 6507TIP3   OH240935   3.776   2.573   4.881 -0.1323  0.0896 -0.0145
 6507TIP3    H140936   3.707   2.579   4.947 -0.8190 -0.8123 -0.6368
 6507TIP3    H240937   3.754   2.494   4.831  1.6762 -0.5535  0.1676
 6508TIP3   OH240938   4.533   5.358   3.577 -0.5457 -0.0767  0.0247
 6508TIP3    H140939   4.511   5.285   3.634 -0.8280  0.6600  0.8680
 6508TIP3    H240940   4.495   5.435   3.619  0.2237  0.6463 -0.5555
 6509TIP3   OH240941   5.445   1.931   0.846  0.6324 -0.4640  0.2571
 6509TIP3    H140942   5.358   1.969   0.832  0.7825 -0.5992 -1.1215
 6509TIP3    H240943   5.459   1.936   0.941 -0.7619 -0.1913  0.4556
 6510TIP3   OH240944   3.017   1.859   4.848  0.0636  0.2856 -0.3456
 6510TIP3    H140945   2.994   1.852   4.755  1.3306  0.5147 -0.6801
 6510TIP3    H240946   2.985   1.777   4.887 -0.3324  0.1205 -1.0076
 6511TIP3   OH240947   2.774   5.467  14.901  0.2431  0.1753 -0.0494
 6511TIP3    H140948   2.685   5.503  14.904 -0.3175 -0.9589 -2.0344
 6511TIP3    H240949   2.761   5.373  14.888  1.7224  0.1433 -1.4660
 6512TIP3   OH240950   5.865   5.141   3.688 -0.0152  0.7331 -0.2465
 6512TIP3    H140951   5.858   5.064   3.631 -1.6450  1.8466 -1.5896
 6512TIP3    H240952   5.812   5.208   3.645 -0.0730  2.0715  1.8343
 6513TIP3   OH240953   4.118   3.376  13.145 -0.1162  0.0481  0.2735
 6513TIP3    H140954   4.022   3.384  13.137  0.0851  0.7823 -1.7330
 6513TIP3    H240955   4.143   3.451  13.199 -0.6291  0.2363  0.2562
 6514TIP3   OH240956   1.411   0.303  11.518  0.5043  0.0931 -0.6362
 6514TIP3    H140957   1.397   0.213  11.489  2.8641 -0.4759 -0.1148
 6514TIP3    H240958   1.499   0.325  11.487  0.6811  1.5695  0.8286
 6515TIP3   OH240959   0.032   0.824   0.726  0.1949 -0.9821  0.4305
 6515TIP3    H140960   0.058   0.870   0.647 -1.1658 -0.0020  0.5437
 6515TIP3    H240961  -0.011   0.744   0.695  0.5417 -1.0880  0.2125
 6516TIP3   OH240962   0.939   4.974   1.441  0.2801 -0.0748 -0.2439
 6516TIP3    H140963   0.940   4.903   1.377 -0.1979 -0.3606  0.0606
 6516TIP3    H240964   0.883   4.942   1.511  0.5922  0.3415  0.1989
 6517TIP3   OH240965   3.549   0.781  12.624  0.4300 -0.4651  0.2558
 6517TIP3    H140966   3.511   0.816  12.543  0.2241  0.8048  0.8972
 6517TIP3    H240967   3.625   0.836  12.640  0.4889 -0.7419  0.9158
 6518TIP3   OH240968   5.806   3.698   6.474 -0.0067 -0.2249  0.0635
 6518TIP3    H140969   5.732   3.637   6.477  0.0937 -0.3553 -0.1328
 6518TIP3    H240970   5.876   3.650   6.430 -0.2523  0.3793 -1.0062
 6519TIP3   OH240971   2.555   4.431  11.157  0.5127 -0.2070  0.2335
 6519TIP3    H140972   2.489   4.411  11.091  0.3779  1.8591 -0.2952
 6519TIP3    H240973   2.624   4.477  11.109  0.6448  0.8795  1.4348
 6520TIP3   OH240974   3.621   5.170  13.514  0.1613 -0.2729 -0.7436
 6520TIP3    H140975   3.552   5.236  13.521  1.0827  0.6212  0.1057
 6520TIP3    H240976   3.661   5.169  13.601  0.1923 -1.9114 -0.7693
 6521TIP3   OH240977   5.130   3.979   0.895 -0.4421 -0.6698  0.4656
 6521TIP3    H140978   5.076   4.055   0.920 -0.6549  0.1972 -2.4882
 6521TIP3    H240979   5.081   3.903   0.927 -1.6628  0.2824  0.8985
 6522TIP3   OH240980   5.674   5.637  10.253 -0.0319 -0.2528 -0.5954
 6522TIP3    H140981   5.658   5.722  10.295  2.4198  0.6319 -1.3816
 6522TIP3    H240982   5.638   5.646  10.165  1.5906  0.5277 -1.1954
 6523TIP3   OH240983   0.763   2.861   3.189  0.3162 -0.1740  0.0878
 6523TIP3    H140984   0.820   2.905   3.252  0.5721 -0.9420  0.3932
 6523TIP3    H240985   0.805   2.875   3.104  1.6001 -1.7517  0.4428
 6524TIP3   OH240986   0.940   4.441  10.412  0.0603  0.0682 -0.3501
 6524TIP3    H140987   0.971   4.449  10.322  1.9728  1.4714  0.3989
 6524TIP3    H240988   1.019   4.422  10.463 -1.5400 -4.7823  0.5637
 6525TIP3   OH240989   5.629   3.483   5.742  0.6823  0.6120  0.0802
 6525TIP3    H140990   5.649   3.491   5.648  2.8934 -1.7536  0.2658
 6525TIP3    H240991   5.633   3.388   5.758  2.4558  1.1171  2.9531
 6526TIP3   OH240992   3.670   1.692   1.364  0.4005 -0.2409  0.3272
 6526TIP3    H140993   3.586   1.738   1.362  0.9133  0.6407 -1.5324
 6526TIP3    H240994   3.646   1.600   1.376 -0.8197  0.0219  0.0090
 6527TIP3   OH240995   4.893   4.986   2.158 -0.1467  0.2300  0.3747
 6527TIP3    H140996   4.897   4.987   2.254 -1.2433 -1.3012  0.4541
 6527TIP3    H240997   4.895   4.893   2.135  0.7322  0.6106 -1.1236
 6528TIP3   OH240998   1.348   4.122   3.695 -0.2571 -0.1827 -0.0955
 6528TIP3    H140999   1.266   4.126   3.744  0.1688  0.4729  0.5753
 6528TIP3    H241000   1.410   4.171   3.748  0.9470 -1.8714  0.1163
 6529TIP3   OH241001   1.379   2.877  13.184  0.2161 -0.0699  0.0957
 6529TIP3    H141002   1.445   2.936  13.148  0.7370 -1.3846 -1.1584
 6529TIP3    H241003   1.295   2.915  13.157  0.5140  0.6084  0.1183
 6530TIP3   OH241004   4.474   3.251  13.128  0.4782  0.3801 -0.1919
 6530TIP3    H141005   4.384   3.260  13.096  0.1058 -0.1335  0.6754
 6530TIP3    H241006   4.472   3.286  13.217  0.8014 -0.9158  0.3485
 6531TIP3   OH241007   0.905   0.998   2.089 -0.0820 -0.4884 -0.0372
 6531TIP3    H141008   0.936   0.951   2.167 -1.2087  0.8370  1.2214
 6531TIP3    H241009   0.834   0.944   2.055 -0.7579 -0.1889  0.8777
 6532TIP3   OH241010   1.059   0.295  11.022  1.3070 -0.1572  0.7795
 6532TIP3    H141011   1.045   0.201  11.005  2.5089 -0.3034  0.5840
 6532TIP3    H241012   1.084   0.331  10.937  0.6753  0.3820  0.8181
 6533TIP3   OH241013   6.017   1.398  15.263 -0.3095  0.0057  0.2876
 6533TIP3    H141014   6.086   1.359  15.316  0.3302 -0.4930 -0.8861
 6533TIP3    H241015   5.973   1.459  15.321  0.3111 -0.6115  1.4147
 6534TIP3   OH241016   2.075   2.614   5.220 -0.2979  0.1199  0.0633
 6534TIP3    H141017   2.137   2.556   5.265  0.7622 -0.5646 -2.1913
 6534TIP3    H241018   2.111   2.623   5.132 -1.3834  2.8341 -0.1448
 6535TIP3   OH241019   6.445   1.387   4.606 -0.0388 -0.1691 -0.4623
 6535TIP3    H141020   6.467   1.299   4.575  3.0685  0.4975 -0.2833
 6535TIP3    H241021   6.465   1.444   4.532  0.1579  0.6473  0.2156
 6536TIP3   OH241022   0.078   1.862  13.824  0.0261 -0.2324  0.1175
 6536TIP3    H141023   0.155   1.868  13.880 -0.2032  3.7026  0.1226
 6536TIP3    H241024   0.111   1.828  13.740  1.8007  1.5239  0.0823
 6537TIP3   OH241025   1.033   6.406  14.728 -0.1208 -0.2559 -0.1844
 6537TIP3    H141026   0.992   6.422  14.813  1.6343 -1.7487  0.9738
 6537TIP3    H241027   0.975   6.449  14.665 -2.4260 -0.6818  1.5802
 6538TIP3   OH241028   4.692   5.464   2.849  0.2890  0.0357 -0.0623
 6538TIP3    H141029   4.729   5.551   2.831 -0.8835  0.4707 -0.4231
 6538TIP3    H241030   4.769   5.408   2.861  1.0775  1.3910  1.5417
 6539TIP3   OH241031   1.360   4.376   5.687  0.1143 -0.3735  0.1586
 6539TIP3    H141032   1.277   4.373   5.733  0.6529 -1.5841  1.0812
 6539TIP3    H241033   1.425   4.398   5.755  0.7895 -1.2631 -0.1895
 6540TIP3   OH241034   3.805   4.552   0.475 -0.1608 -0.7939 -0.7448
 6540TIP3    H141035   3.802   4.522   0.384 -0.3516 -0.3969 -0.8702
 6540TIP3    H241036   3.807   4.472   0.527 -1.8291 -1.0392 -1.0441
 6541TIP3   OH241037   2.461   6.646  14.596  0.2646 -0.1542  0.0051
 6541TIP3    H141038   2.412   6.570  14.564 -0.2693  0.1640  0.0528
 6541TIP3    H241039   2.451   6.712  14.528  0.3903  0.0108  0.1445
 6542TIP3   OH241040   1.445   6.706  15.868  0.4198 -0.3587  0.0780
 6542TIP3    H141041   1.470   6.756  15.946  2.0983 -0.5234 -0.3284
 6542TIP3    H241042   1.448   6.614  15.896 -1.1156 -0.3280  0.3955
 6543TIP3   OH241043   6.081   1.680  12.996  0.0393 -0.3913 -0.1083
 6543TIP3    H141044   6.016   1.750  12.999  0.3931 -0.0607 -0.1259
 6543TIP3    H241045   6.165   1.724  13.008  0.5780 -0.3644 -3.5603
 6544TIP3   OH241046   4.982   0.417   5.689 -0.1746  0.4262 -0.3255
 6544TIP3    H141047   4.888   0.419   5.707  0.1642  1.2809  1.5392
 6544TIP3    H241048   5.013   0.340   5.738  0.3178  1.0074  0.2793
 6545TIP3   OH241049   3.223   2.436   3.051 -0.1462  0.1963  0.1264
 6545TIP3    H141050   3.128   2.446   3.057 -0.4179 -1.7107 -0.4415
 6545TIP3    H241051   3.246   2.380   3.126 -0.1022 -2.8680 -2.0698
 6546TIP3   OH241052   6.596   2.259   6.393  0.4931  0.1598 -0.0301
 6546TIP3    H141053   6.665   2.240   6.331  0.5983 -0.5748  0.3071
 6546TIP3    H241054   6.519   2.276   6.339  1.2676  2.4437 -0.4664
 6547TIP3   OH241055   4.352   1.495  14.611 -0.0931 -0.3334 -0.4391
 6547TIP3    H141056   4.287   1.563  14.627 -1.6968 -1.9182 -0.0091
 6547TIP3    H241057   4.300   1.418  14.585  1.5914 -1.6912  0.1090
 6548TIP3   OH241058   2.954   1.214  15.426  0.6235 -0.4998 -0.2518
 6548TIP3    H141059   2.949   1.144  15.361  0.6065 -1.3220  0.6305
 6548TIP3    H241060   2.929   1.172  15.508 -0.6823  0.8402  0.0555
 6549TIP3   OH241061   1.172   6.396  16.431 -0.8040  0.3653  0.1842
 6549TIP3    H141062   1.182   6.469  16.492  0.1901  1.5464 -1.3574
 6549TIP3    H241063   1.241   6.409  16.366 -0.2726 -2.2536  0.1750
 6550TIP3   OH241064   2.824   2.724   0.948  0.3210  0.3507 -0.3408
 6550TIP3    H141065   2.791   2.642   0.984 -1.0486  1.5804  1.2399
 6550TIP3    H241066   2.842   2.704   0.856 -2.4931 -1.0121 -0.6384
 6551TIP3   OH241067   2.577   3.162   4.012 -0.0235  0.2972  0.2148
 6551TIP3    H141068   2.640   3.158   4.084  0.5702 -0.6036 -0.3447
 6551TIP3    H241069   2.618   3.219   3.947 -0.8473  1.6453  0.8469
 6552TIP3   OH241070   5.140   2.640   5.807 -0.3544 -0.1071  0.1509
 6552TIP3    H141071   5.086   2.581   5.860  0.4518 -1.3599 -0.3852
 6552TIP3    H241072   5.137   2.724   5.853 -0.3754 -0.9370  1.7090
 6553TIP3   OH241073   2.068   1.538  11.014 -0.0412  0.0526  0.2619
 6553TIP3    H141074   2.099   1.563  11.101  1.5015  1.0474 -0.5705
 6553TIP3    H241075   1.987   1.489  11.031 -0.9770  2.1877  2.1239
 6554TIP3   OH241076   4.932   6.361   6.362 -0.3431 -0.1829 -0.4681
 6554TIP3    H141077   4.971   6.274   6.369 -0.0822 -0.0539 -0.3326
 6554TIP3    H241078   4.985   6.405   6.295  0.6682  0.4974  0.7743
 6555TIP3   OH241079   6.326   5.590   0.109 -0.3104  0.3004  0.8396
 6555TIP3    H141080   6.257   5.528   0.087 -0.9829  1.2647  0.1713
 6555TIP3    H241081   6.296   5.632   0.190 -0.3959  0.5402  0.6851
 6556TIP3   OH241082   1.837   1.541  16.218  0.0179 -0.2018 -0.2020
 6556TIP3    H141083   1.753   1.555  16.261  0.1944  0.1794  0.0246
 6556TIP3    H241084   1.819   1.478  16.149 -0.4836 -0.0133 -0.2449
 6557TIP3   OH241085   6.194   0.917  13.985 -0.2487 -0.1217  0.4629
 6557TIP3    H141086   6.263   0.953  13.930  0.2572 -0.9188  0.5697
 6557TIP3    H241087   6.231   0.835  14.020 -0.1626  0.9022  2.8426
 6558TIP3   OH241088   5.239   6.277  15.555  0.1652 -0.0694  0.5245
 6558TIP3    H141089   5.148   6.247  15.559  0.2404 -0.1947  1.2299
 6558TIP3    H241090   5.234   6.370  15.580 -0.2793  0.9786 -3.1357
 6559TIP3   OH241091   2.360   3.151  15.738 -0.3132  0.4913  0.0180
 6559TIP3    H141092   2.406   3.108  15.810 -0.9545 -0.6993 -0.2842
 6559TIP3    H241093   2.401   3.116  15.659 -0.5329  0.7744 -0.2241
 6560TIP3   OH241094   4.781   6.071   3.783  0.4452  0.1761 -0.1760
 6560TIP3    H141095   4.822   5.990   3.815  0.7591  0.6147  0.5178
 6560TIP3    H241096   4.700   6.041   3.741  1.3777 -0.6810 -1.4057
 6561TIP3   OH241097   3.550   4.470  13.209  0.7684  0.4421  0.1040
 6561TIP3    H141098   3.644   4.469  13.228  0.7664 -0.4721  0.1045
 6561TIP3    H241099   3.540   4.539  13.143  1.4834  0.3696 -0.0937
 6562TIP3   OH241100   5.434   0.327   1.731 -0.3557 -0.3592 -0.1500
 6562TIP3    H141101   5.338   0.330   1.725 -0.3637 -0.5680 -0.1401
 6562TIP3    H241102   5.455   0.233   1.726 -0.1416 -0.3016 -0.3184
 6563TIP3   OH241103   0.288   6.286   2.474 -0.0644 -0.4779  0.3999
 6563TIP3    H141104   0.331   6.278   2.560 -1.1501  0.4133  1.0410
 6563TIP3    H241105   0.203   6.325   2.493 -0.3349 -0.3041 -1.0877
 6564TIP3   OH241106   5.827   2.234   0.344  0.4036  0.5010  0.2243
 6564TIP3    H141107   5.796   2.292   0.413 -0.5871 -1.8782  1.8353
 6564TIP3    H241108   5.749   2.214   0.293  0.2642 -1.3097  1.1234
 6565TIP3   OH241109   0.492   3.206   6.700 -0.2175  0.4059  0.1653
 6565TIP3    H141110   0.420   3.237   6.754 -1.1828  1.1616 -1.5313
 6565TIP3    H241111   0.483   3.111   6.700 -0.2320  0.3963  1.2784
 6566TIP3   OH241112   0.739   5.835   2.165  0.0061 -0.2288 -0.3175
 6566TIP3    H141113   0.834   5.848   2.157  0.1792 -0.9821  0.4355
 6566TIP3    H241114   0.706   5.918   2.199  0.2508  0.4012 -1.5830
 6567TIP3   OH241115   2.299   4.491   1.310 -0.1663 -0.6158 -0.0540
 6567TIP3    H141116   2.348   4.546   1.370 -0.1389  0.4795 -1.0584
 6567TIP3    H241117   2.359   4.476   1.236 -0.3091 -1.6703  0.0353
 6568TIP3   OH241118   6.059   4.226  11.181  0.2160 -0.4870  0.1322
 6568TIP3    H141119   6.038   4.308  11.135 -0.0239 -0.6297 -0.0122
 6568TIP3    H241120   5.987   4.213  11.242  1.7688  1.0344  2.3792
 6569TIP3   OH241121   0.557   4.283   2.293  0.0622 -0.5900  0.9160
 6569TIP3    H141122   0.592   4.226   2.362 -1.0682 -0.7619  1.3694
 6569TIP3    H241123   0.585   4.242   2.211  1.1459 -0.5585  1.2627
 6570TIP3   OH241124   2.167   4.968   4.961 -0.5022 -0.3287  0.1325
 6570TIP3    H141125   2.207   4.898   5.012 -1.8729 -0.3640  1.2017
 6570TIP3    H241126   2.090   4.993   5.012 -1.0896  0.6384 -1.2048
 6571TIP3   OH241127   4.849   0.145   2.053  0.5573 -0.3920  0.4057
 6571TIP3    H141128   4.789   0.218   2.040  0.7587 -0.0822  1.1956
 6571TIP3    H241129   4.892   0.134   1.968 -1.4196 -1.3474 -0.5247
 6572TIP3   OH241130   1.744   1.689   1.557 -0.1970 -0.4453  0.5448
 6572TIP3    H141131   1.675   1.623   1.555 -1.9983  1.4479 -0.9478
 6572TIP3    H241132   1.701   1.769   1.584  1.5406  0.6215  0.2367
 6573TIP3   OH241133   4.547   4.930  11.530  0.0444 -0.6802  0.0852
 6573TIP3    H141134   4.544   5.022  11.501 -0.7699 -0.1897  1.6855
 6573TIP3    H241135   4.477   4.887  11.481 -0.0780 -0.2740 -0.1041
 6574TIP3   OH241136   2.300   3.798  14.314 -0.2484 -0.0112 -0.2645
 6574TIP3    H141137   2.379   3.759  14.277 -0.3429  0.6994 -1.2534
 6574TIP3    H241138   2.332   3.867  14.372 -0.1480  0.4331 -0.8474
 6575TIP3   OH241139   1.404   0.422  16.640  0.3204  0.1753 -0.0311
 6575TIP3    H141140   1.431   0.344  16.689  0.2794  1.3516  1.9174
 6575TIP3    H241141   1.311   0.430  16.659  0.0846  0.0862 -1.1275
 6576TIP3   OH241142   3.501   1.436   1.374 -0.2560  0.4817 -0.0603
 6576TIP3    H141143   3.570   1.430   1.308  0.0993  2.9961  0.0333
 6576TIP3    H241144   3.421   1.410   1.328  0.1499  1.2683 -1.2350
 6577TIP3   OH241145   1.919   1.966  16.230 -0.7344  0.3387  0.6879
 6577TIP3    H141146   1.868   1.958  16.310  0.9546 -0.3277  1.7194
 6577TIP3    H241147   1.892   1.891  16.177 -1.8039  0.7488  0.6184
 6578TIP3   OH241148   4.306   1.363   2.687 -0.2602  0.2441  0.4394
 6578TIP3    H141149   4.280   1.397   2.773  0.4330 -0.9798  1.1488
 6578TIP3    H241150   4.234   1.306   2.661 -0.4456  0.5728  0.2348
 6579TIP3   OH241151   5.532   1.617  13.405 -0.2533  0.2098 -0.2949
 6579TIP3    H141152   5.503   1.558  13.335  0.0756  0.9396 -1.0635
 6579TIP3    H241153   5.540   1.561  13.482  1.4307 -1.0592 -1.3535
 6580TIP3   OH241154   4.942   6.288  14.335  0.2585 -0.3559 -0.2808
 6580TIP3    H141155   4.922   6.374  14.298  3.9342  0.8199  0.2444
 6580TIP3    H241156   4.891   6.226  14.282  0.0322  1.8670 -2.7524
 6581TIP3   OH241157   5.677   4.197  11.754  0.2025 -0.3590 -0.2476
 6581TIP3    H141158   5.640   4.269  11.805 -0.4444  1.3778 -3.0479
 6581TIP3    H241159   5.611   4.128  11.758 -0.5692  0.3880 -0.1086
 6582TIP3   OH241160   6.334   4.179  14.925  0.2205  0.0069 -0.4740
 6582TIP3    H141161   6.261   4.117  14.929 -0.1331  0.4376 -0.0097
 6582TIP3    H241162   6.396   4.140  14.864 -0.3120 -0.4624 -0.7232
 6583TIP3   OH241163   3.891   3.460  12.011 -0.2470 -0.1522  0.3547
 6583TIP3    H141164   3.883   3.446  11.917 -0.7377 -0.8862  0.5042
 6583TIP3    H241165   3.806   3.498  12.036  0.4808  1.6412  0.2244
 6584TIP3   OH241166   6.149   5.623   1.956 -0.3204  0.1126  0.1133
 6584TIP3    H141167   6.219   5.602   1.895 -2.2019  1.1002 -2.5147
 6584TIP3    H241168   6.157   5.558   2.026  1.5333 -1.4478 -1.4873
 6585TIP3   OH241169   1.664   0.922   0.822  0.1552 -0.2011  0.5241
 6585TIP3    H141170   1.675   0.993   0.759  1.6527 -0.1256  0.8558
 6585TIP3    H241171   1.637   0.847   0.769 -0.4764  0.3543  0.0516
 6586TIP3   OH241172   2.351   0.896   2.680 -0.0925  0.7847  0.7672
 6586TIP3    H141173   2.382   0.863   2.765  1.0866 -0.1640 -0.0133
 6586TIP3    H241174   2.418   0.868   2.618 -1.9840 -0.3572 -0.8076
 6587TIP3   OH241175   1.499   1.098   0.689  0.1671 -0.0032  0.4314
 6587TIP3    H141176   1.507   1.156   0.765 -0.6558 -0.6402  1.0199
 6587TIP3    H241177   1.462   1.017   0.725 -2.2231  0.4146 -0.9661
 6588TIP3   OH241178   0.618   2.055   2.731  0.0977  0.0331 -0.4706
 6588TIP3    H141179   0.684   1.989   2.751  0.4645 -0.1444 -2.1529
 6588TIP3    H241180   0.660   2.114   2.669 -0.7424  0.9475 -0.1921
 6589TIP3   OH241181   3.774   3.212   4.694  0.0106  0.1553  0.5431
 6589TIP3    H141182   3.700   3.269   4.712  0.2430 -0.1854  2.7146
 6589TIP3    H241183   3.846   3.249   4.744  1.2606  0.2994 -1.2823
 6590TIP3   OH241184   4.442   3.716   0.252  0.0512  0.3678  0.2978
 6590TIP3    H141185   4.387   3.675   0.319  0.8755 -1.3461 -0.0507
 6590TIP3    H241186   4.486   3.787   0.297 -1.8236  1.2633  0.7811
 6591TIP3   OH241187   3.107   5.956  16.269  0.6490 -0.0388 -0.4032
 6591TIP3    H141188   3.107   6.049  16.289  1.5825 -0.2756  0.7504
 6591TIP3    H241189   3.199   5.934  16.256  0.4836 -0.9005 -0.1639
 6592TIP3   OH241190   2.640   0.761   4.685  0.0226 -0.4979 -0.0310
 6592TIP3    H141191   2.559   0.710   4.696 -1.6666  1.0770 -4.1314
 6592TIP3    H241192   2.633   0.833   4.747 -0.3081 -1.9911  1.6956
 6593TIP3   OH241193   0.399   5.476   0.659 -0.3927 -0.1745  0.1578
 6593TIP3    H141194   0.321   5.454   0.710  0.4512 -1.3803  0.9337
 6593TIP3    H241195   0.472   5.443   0.710  0.5605 -0.2141 -1.1937
 6594TIP3   OH241196   5.739   6.180  11.353 -0.2760 -0.4642 -0.4271
 6594TIP3    H141197   5.698   6.148  11.273 -0.2694 -1.9399  0.1435
 6594TIP3    H241198   5.704   6.124  11.422  1.2562 -0.5354  0.3223
 6595TIP3   OH241199   2.730   0.633  13.209  0.3211 -0.2700  0.1190
 6595TIP3    H141200   2.677   0.645  13.288  2.3653  2.7032  1.1209
 6595TIP3    H241201   2.686   0.686  13.143 -0.4794 -1.4593 -0.3138
 6596TIP3   OH241202   0.122   5.520  14.711  0.2031 -0.2369  0.5745
 6596TIP3    H141203   0.132   5.452  14.645  0.6552 -0.8475  1.2654
 6596TIP3    H241204   0.049   5.574  14.679 -0.8438 -1.6456  0.5456
 6597TIP3   OH241205   3.006   2.656  12.975  0.3806  0.6999  0.0404
 6597TIP3    H141206   2.965   2.720  12.915  0.5452 -0.4306 -1.3019
 6597TIP3    H241207   2.933   2.613  13.017  0.1978 -0.2606 -1.2345
 6598TIP3   OH241208   0.315   1.626  15.756  0.3251 -0.1689  0.9501
 6598TIP3    H141209   0.362   1.710  15.755  1.0392 -0.5638  1.3165
 6598TIP3    H241210   0.383   1.561  15.739 -0.5143 -0.5421 -1.0625
 6599TIP3   OH241211   0.523   1.874   2.123 -0.2749 -0.0103  0.4723
 6599TIP3    H141212   0.484   1.814   2.060  0.6936  0.0779 -0.2211
 6599TIP3    H241213   0.455   1.939   2.140 -0.6856 -0.2723 -0.1678
 6600TIP3   OH241214   5.767   5.870   5.108 -0.1271 -0.1093  0.2480
 6600TIP3    H141215   5.683   5.842   5.072  0.2765 -1.6043  0.4489
 6600TIP3    H241216   5.758   5.965   5.117 -1.8052 -0.2452  0.2861
 6601TIP3   OH241217   3.959   3.043   6.019 -0.5361 -0.3744 -0.5812
 6601TIP3    H141218   3.912   3.028   6.101  0.8560 -0.5628  0.2157
 6601TIP3    H241219   3.952   2.961   5.972 -0.1198 -0.7593  0.0109
 6602TIP3   OH241220   0.286   5.988  13.793  0.0984  0.4248  0.4154
 6602TIP3    H141221   0.296   6.037  13.711 -0.2116 -0.5388 -0.2075
 6602TIP3    H241222   0.311   6.050  13.861 -1.0914  1.7232 -0.2947
 6603TIP3   OH241223   4.015   0.946  10.608  0.0875  0.1194  0.7350
 6603TIP3    H141224   4.104   0.932  10.640 -0.2574  0.3951  1.8542
 6603TIP3    H241225   3.991   0.864  10.565  0.5702 -0.2571  1.1872
 6604TIP3   OH241226   4.345   6.037  15.160 -0.9784  0.2209  0.0092
 6604TIP3    H141227   4.313   6.107  15.102 -1.5376 -1.0779 -1.2682
 6604TIP3    H241228   4.268   6.013  15.212 -2.1886 -2.8502 -3.0096
 6605TIP3   OH241229   5.290   4.596   2.574  0.0117 -0.6717  0.1695
 6605TIP3    H141230   5.243   4.523   2.534  0.4496 -0.0404 -1.5547
 6605TIP3    H241231   5.373   4.558   2.604  0.0543 -0.9654 -0.3253
 6606TIP3   OH241232   2.917   6.176  12.742 -0.5985 -0.0578 -0.0762
 6606TIP3    H141233   2.991   6.137  12.789 -0.1643 -2.0223 -2.3353
 6606TIP3    H241234   2.839   6.143  12.788 -0.1474  1.3631  1.7921
 6607TIP3   OH241235   6.299   3.904  11.667 -0.3244 -0.7185  0.1805
 6607TIP3    H141236   6.234   3.931  11.602  0.2036 -0.5485 -0.2920
 6607TIP3    H241237   6.337   3.986  11.698 -0.2425 -0.8208  0.3508
 6608TIP3   OH241238   1.691   3.050   4.090 -0.2382  1.0131 -0.2414
 6608TIP3    H141239   1.633   3.057   4.014  0.2031 -1.2664 -0.8399
 6608TIP3    H241240   1.648   3.100   4.159 -2.2313  0.4534 -1.0644
 6609TIP3   OH241241   0.735   4.104  13.787 -0.0731  0.1449 -0.1720
 6609TIP3    H141242   0.806   4.168  13.780  2.4238 -2.5375 -0.2562
 6609TIP3    H241243   0.718   4.097  13.881 -0.4123  0.9320 -0.1641
 6610TIP3   OH241244   1.295   0.422   1.820  0.2875 -0.0871  0.1292
 6610TIP3    H141245   1.250   0.396   1.739  2.0623  0.8996 -1.2298
 6610TIP3    H241246   1.288   0.518   1.821  2.0360  0.0696  0.0410
 6611TIP3   OH241247   5.249   5.149  11.792  0.7693  0.1240  0.0813
 6611TIP3    H141248   5.253   5.244  11.801 -1.4471  0.1225  1.7622
 6611TIP3    H241249   5.304   5.129  11.716 -0.7108  2.9995 -1.8467
 6612TIP3   OH241250   1.213   4.088   1.132 -0.1332 -0.4184 -0.5997
 6612TIP3    H141251   1.159   4.166   1.123  0.8106  0.2154 -0.8813
 6612TIP3    H241252   1.153   4.019   1.161 -0.7722  0.6930  0.7848
 6613TIP3   OH241253   3.420   2.120  16.232 -0.3833  0.4254  0.1640
 6613TIP3    H141254   3.343   2.161  16.271  1.1519  1.4309  2.2361
 6613TIP3    H241255   3.459   2.189  16.178 -0.8717 -0.0558 -0.8139
 6614TIP3   OH241256   5.446   5.512   3.181  0.4826  0.3934 -0.0227
 6614TIP3    H141257   5.439   5.497   3.087  0.9453  2.2237 -0.3806
 6614TIP3    H241258   5.514   5.452   3.211  0.2062 -0.3234 -0.8187
 6615TIP3   OH241259   0.341   5.087   4.130 -0.1048 -0.0793 -0.2225
 6615TIP3    H141260   0.246   5.084   4.121 -0.2348  2.2757 -0.0468
 6615TIP3    H241261   0.370   5.149   4.063  1.0957  0.7157  1.0000
 6616TIP3   OH241262   0.716   5.743   4.919 -0.3702  0.2688  0.3741
 6616TIP3    H141263   0.791   5.762   4.976 -1.0134 -0.3430  1.4362
 6616TIP3    H241264   0.656   5.816   4.935 -0.2008  0.5248 -0.1429
 6617TIP3   OH241265   1.567   1.507   4.160  0.2819  0.0804 -0.5073
 6617TIP3    H141266   1.657   1.534   4.138 -0.7055  1.7892 -2.6127
 6617TIP3    H241267   1.534   1.577   4.217 -0.0217 -0.1283 -0.4249
 6618TIP3   OH241268   0.783   0.314   4.622 -0.4209 -0.1880  0.0885
 6618TIP3    H141269   0.788   0.399   4.579 -1.2443 -0.0395  0.2957
 6618TIP3    H241270   0.803   0.332   4.714  1.3302 -0.5045 -0.2006
 6619TIP3   OH241271   5.585   2.492   5.294 -0.0854 -0.2496 -0.2171
 6619TIP3    H141272   5.664   2.454   5.333 -0.1021 -1.2991 -1.1798
 6619TIP3    H241273   5.592   2.585   5.312  1.6185 -0.2657 -0.7116
 6620TIP3   OH241274   0.123   0.704  10.792 -0.0977  0.0033 -0.2490
 6620TIP3    H141275   0.111   0.609  10.791 -1.9754  0.1869  1.6473
 6620TIP3    H241276   0.202   0.719  10.739  0.4923 -2.6367 -0.1735
 6621TIP3   OH241277   2.573   2.152   5.605 -0.5774  0.1964  0.8872
 6621TIP3    H141278   2.580   2.193   5.519  0.1567 -0.0864  0.8060
 6621TIP3    H241279   2.511   2.206   5.653 -1.3841  0.0607  0.0081
 6622TIP3   OH241280   2.710   6.511   5.953 -0.2587  0.3967  0.6725
 6622TIP3    H141281   2.751   6.598   5.954  1.5114 -0.4208  0.3533
 6622TIP3    H241282   2.748   6.465   6.028  1.4291 -1.2732 -1.1651
 6623TIP3   OH241283   3.744   3.493   3.268 -0.3907 -0.4048 -0.4102
 6623TIP3    H141284   3.778   3.416   3.223  0.3823  0.8279 -2.0174
 6623TIP3    H241285   3.652   3.498   3.242 -0.2929 -0.4776 -0.7773
 6624TIP3   OH241286   0.292   6.679   4.175 -0.0958  0.1701 -0.2661
 6624TIP3    H141287   0.229   6.671   4.246 -0.3146  1.7648 -0.2723
 6624TIP3    H241288   0.269   6.608   4.114 -0.1766 -0.9325  1.0180
 6625TIP3   OH241289   4.166   0.219  12.454 -0.5214 -0.2750 -0.0744
 6625TIP3    H141290   4.213   0.138  12.434 -1.6962 -0.8941 -0.3459
 6625TIP3    H241291   4.193   0.242  12.542  1.9825  0.5542 -1.0169
 6626TIP3   OH241292   6.221   5.149  14.001  0.6935 -0.5944 -0.7010
 6626TIP3    H141293   6.276   5.218  13.964  0.2301 -1.6403 -3.4715
 6626TIP3    H241294   6.280   5.075  14.011  1.0296 -0.0553  1.6331
 6627TIP3   OH241295   3.103   6.096  11.605  0.3765 -0.0395 -0.3898
 6627TIP3    H141296   3.029   6.063  11.555 -0.6741  0.8861  0.5265
 6627TIP3    H241297   3.152   6.149  11.542 -0.0087 -0.2533 -0.8756
 6628TIP3   OH241298   1.846   5.574  14.802  0.4772  0.0726  0.4326
 6628TIP3    H141299   1.781   5.531  14.747  0.9420  1.1720 -0.9997
 6628TIP3    H241300   1.860   5.513  14.874 -1.7775 -0.4040  0.5137
 6629TIP3   OH241301   6.714   1.242  15.289 -0.3402  0.0249 -0.0551
 6629TIP3    H141302   6.693   1.220  15.380  1.0875  0.2766  0.3624
 6629TIP3    H241303   6.755   1.329  15.294  1.4734 -0.7554 -0.6833
 6630TIP3   OH241304   4.556   5.981   3.694 -0.2706  0.4135  0.3526
 6630TIP3    H141305   4.572   5.887   3.684  1.8784  0.9982 -2.4732
 6630TIP3    H241306   4.462   5.991   3.676 -0.4357 -1.1393  0.3052
 6631TIP3   OH241307   3.400   0.462   1.559 -1.1180 -0.2537 -0.3065
 6631TIP3    H141308   3.433   0.552   1.566  0.7257 -0.9425  0.3415
 6631TIP3    H241309   3.305   0.470   1.570 -0.7455  1.3728  2.3171
 6632TIP3   OH241310   0.640   2.106  13.000  0.1634 -0.2196 -0.5182
 6632TIP3    H141311   0.703   2.103  13.073  0.3136  0.4273 -0.6135
 6632TIP3    H241312   0.689   2.145  12.928 -0.2364 -0.0691 -0.7101
 6633TIP3   OH241313   2.101   0.476   5.454  0.0066  0.1502  0.5454
 6633TIP3    H141314   2.072   0.411   5.517 -0.0210  1.0374  1.4554
 6633TIP3    H241315   2.063   0.448   5.371 -0.6813 -0.5367  1.0937
 6634TIP3   OH241316   6.601   3.518  16.383  0.0779  0.3680 -0.0647
 6634TIP3    H141317   6.688   3.548  16.356  0.0850  0.1198 -0.3036
 6634TIP3    H241318   6.617   3.468  16.463 -0.0778  2.2094  1.1747
 6635TIP3   OH241319   6.121   6.108  13.902 -0.2132 -0.1579  0.5495
 6635TIP3    H141320   6.046   6.066  13.942  1.3561 -2.4617  1.1947
 6635TIP3    H241321   6.148   6.175  13.964 -0.2989 -0.9387  1.4363
 6636TIP3   OH241322   1.780   1.028   1.039  0.6438  0.0194  0.4004
 6636TIP3    H141323   1.723   1.079   1.096  1.0206 -0.0394  0.8295
 6636TIP3    H241324   1.725   1.006   0.963  0.0314 -0.2225  0.9132
 6637TIP3   OH241325   0.079   2.825  16.801  0.5149  0.6063  0.0062
 6637TIP3    H141326   0.045   2.912  16.824 -0.3546 -0.2179  1.8671
 6637TIP3    H241327   0.105   2.786  16.884  1.4049 -0.7346 -0.8735
 6638TIP3   OH241328   2.306   0.452   2.632 -0.8182 -0.1144  0.0175
 6638TIP3    H141329   2.387   0.500   2.651 -1.2354  0.7521 -0.3884
 6638TIP3    H241330   2.284   0.476   2.542 -1.5727 -0.2816  0.1514
 6639TIP3   OH241331   5.741   2.420  16.026  0.5548  0.2749  0.2312
 6639TIP3    H141332   5.654   2.407  16.064 -0.0217  1.1430 -0.7776
 6639TIP3    H241333   5.751   2.350  15.962  1.1366 -0.5977  1.2389
 6640TIP3   OH241334   5.087   0.372   1.875  0.6689 -0.1162  0.0894
 6640TIP3    H141335   5.076   0.361   1.969 -2.1551 -0.4568 -0.2482
 6640TIP3    H241336   5.096   0.283   1.840  2.0760  0.0259  0.0534
 6641TIP3   OH241337   1.015   1.689  12.276  0.5181 -0.5840 -0.5299
 6641TIP3    H141338   1.037   1.600  12.248  0.3632 -0.7397 -0.1630
 6641TIP3    H241339   0.986   1.679  12.366  2.4437  0.1177  0.1850
 6642TIP3   OH241340   6.678   5.774  10.797 -0.1535 -0.4160 -0.1971
 6642TIP3    H141341   6.652   5.759  10.706  0.5943 -1.1050 -0.3069
 6642TIP3    H241342   6.742   5.845  10.792 -1.0806  0.4329 -0.0627
 6643TIP3   OH241343   5.304   4.194  11.516 -0.0323  0.5511  0.8725
 6643TIP3    H141344   5.360   4.119  11.538 -0.7741 -0.7798 -1.6337
 6643TIP3    H241345   5.365   4.266  11.499  0.8337 -0.3427  0.1675
 6644TIP3   OH241346   3.592   0.958  15.125 -0.2835  0.1691 -0.0990
 6644TIP3    H141347   3.658   0.888  15.128 -0.6824 -0.3036 -1.5581
 6644TIP3    H241348   3.600   1.003  15.209  0.4517 -1.2041  0.5824
 6645TIP3   OH241349   2.665   4.390  14.609 -0.1556  0.2278 -0.1151
 6645TIP3    H141350   2.702   4.417  14.693  1.7994  1.7921 -1.4162
 6645TIP3    H241351   2.707   4.306  14.591  1.1274  0.9353 -0.5254
 6646TIP3   OH241352   3.137   4.163  16.473  0.5517 -0.2489  0.0128
 6646TIP3    H141353   3.166   4.233  16.415 -1.3780  0.8090  0.2618
 6646TIP3    H241354   3.105   4.208  16.551 -1.3315 -1.3159 -0.0887
 6647TIP3   OH241355   1.261   5.029  15.901 -0.0437  0.0677 -0.9828
 6647TIP3    H141356   1.237   5.016  15.993 -1.1984 -1.1816 -1.4503
 6647TIP3    H241357   1.189   4.992  15.852  1.4693 -1.0314 -2.4204
 6648TIP3   OH241358   4.418   3.755   1.329  0.3248  0.6783 -0.0163
 6648TIP3    H141359   4.424   3.663   1.356  0.0656  0.6495 -0.0547
 6648TIP3    H241360   4.508   3.780   1.309  0.1516 -0.1708 -1.9896
 6649TIP3   OH241361   1.738   3.904   2.639  0.5938 -0.0515 -0.2149
 6649TIP3    H141362   1.718   3.981   2.692  3.0586  0.5944 -0.1378
 6649TIP3    H241363   1.695   3.832   2.683 -1.0413  1.1530  0.1966
 6650TIP3   OH241364   1.258   2.712  11.102 -0.1591  0.5351  0.1459
 6650TIP3    H141365   1.163   2.709  11.104 -0.2079  1.0745 -1.2656
 6650TIP3    H241366   1.285   2.631  11.060  0.0622 -0.1638  1.5989
 6651TIP3   OH241367   5.608   0.149   5.355 -0.3678  0.4004  0.1854
 6651TIP3    H141368   5.566   0.069   5.324  0.6111  0.3442 -1.0392
 6651TIP3    H241369   5.612   0.206   5.278  2.5251  0.0691  0.0225
 6652TIP3   OH241370   6.259   2.779  16.664  0.3551  0.2184  0.1922
 6652TIP3    H141371   6.252   2.874  16.654  0.0482 -0.1131 -3.1016
 6652TIP3    H241372   6.353   2.763  16.674  0.6333  0.6728 -1.6350
 6653TIP3   OH241373   3.394   3.220   0.785  0.3403  0.1165  0.2608
 6653TIP3    H141374   3.465   3.260   0.736  0.3963  1.3903  1.3739
 6653TIP3    H241375   3.425   3.131   0.803  0.8282  0.0302 -0.9106
 6654TIP3   OH241376   6.564   1.838  14.383  0.3997  0.0297 -0.1642
 6654TIP3    H141377   6.526   1.924  14.401 -1.9311 -0.6565 -1.6197
 6654TIP3    H241378   6.553   1.789  14.465  1.2910  0.9251  0.5085
 6655TIP3   OH241379   4.618   6.334   3.345  0.0296  0.1502 -0.0483
 6655TIP3    H141380   4.529   6.342   3.312 -0.5751 -1.7334  1.0229
 6655TIP3    H241381   4.635   6.239   3.346  1.0677  0.3125  2.2325
 6656TIP3   OH241382   2.557   2.520  16.246 -0.0854 -0.1565  0.1225
 6656TIP3    H141383   2.488   2.528  16.313 -2.0159  3.2950 -2.1332
 6656TIP3    H241384   2.636   2.551  16.290 -0.9656  0.4089  1.3351
 6657TIP3   OH241385   0.246   5.880   0.482 -0.6402  0.2573  0.1357
 6657TIP3    H141386   0.301   5.932   0.425  0.9366  0.7042  2.0189
 6657TIP3    H241387   0.279   5.790   0.473 -2.5179 -0.2450 -2.1168
 6658TIP3   OH241388   4.836   5.301  14.905 -0.1700 -0.4098  0.4790
 6658TIP3    H141389   4.916   5.271  14.860 -0.4650 -0.3386 -0.1035
 6658TIP3    H241390   4.868   5.360  14.973  0.3476 -1.2268  0.9495
 6659TIP3   OH241391   1.680   4.051  14.576 -0.3322 -0.3663 -0.7175
 6659TIP3    H141392   1.765   4.078  14.541 -0.0249  0.7855  0.8550
 6659TIP3    H241393   1.660   3.970  14.529  1.4784 -0.4842 -1.3445
 6660TIP3   OH241394   4.755   2.268   0.954 -0.2277  0.0725 -0.1366
 6660TIP3    H141395   4.777   2.290   0.864  0.9736  2.5465  0.7304
 6660TIP3    H241396   4.680   2.323   0.976  1.4718  1.8810  1.3615
 6661TIP3   OH241397   4.719   2.295  14.339 -0.2881  0.5423  0.1988
 6661TIP3    H141398   4.766   2.328  14.262  0.1766 -0.2907  0.1188
 6661TIP3    H241399   4.774   2.320  14.413  0.1062 -0.1199  0.1319
 6662TIP3   OH241400   1.337   0.120   5.668  0.1633 -0.8690  0.3425
 6662TIP3    H141401   1.306   0.031   5.688 -1.3000 -0.1342  1.4169
 6662TIP3    H241402   1.287   0.177   5.726  0.8180  0.7081 -0.5964
 6663TIP3   OH241403   0.882   3.397  13.132 -0.2619 -0.3282 -0.0326
 6663TIP3    H141404   0.929   3.345  13.066  1.4712  0.8371  0.2487
 6663TIP3    H241405   0.879   3.340  13.209  0.5346 -0.4721 -0.1049
 6664TIP3   OH241406   4.688   6.326  15.744  0.2421  0.0714  0.1705
 6664TIP3    H141407   4.648   6.242  15.724 -1.4880  0.3366  2.2738
 6664TIP3    H241408   4.757   6.305  15.808  1.1763  0.0359 -0.8290
 6665TIP3   OH241409   3.490   5.503   1.060  0.0875 -0.3321 -0.3775
 6665TIP3    H141410   3.538   5.562   1.002 -1.0731  0.7862 -0.2320
 6665TIP3    H241411   3.419   5.469   1.005 -0.6791  0.2903  0.2173
 6666TIP3   OH241412   4.278   4.436  10.958  0.4019  0.7364 -0.2966
 6666TIP3    H141413   4.191   4.423  10.921  0.0766  1.0543  0.3525
 6666TIP3    H241414   4.279   4.381  11.037  1.1551 -0.0823 -0.8721
 6667TIP3   OH241415   5.464   1.551  14.121  0.1187  0.6623  0.1305
 6667TIP3    H141416   5.512   1.565  14.203  0.7469 -3.0389  0.4981
 6667TIP3    H241417   5.385   1.603  14.131  1.2920  2.1461  2.0848
 6668TIP3   OH241418   3.955   0.091   0.964  0.2542 -0.1470  0.6936
 6668TIP3    H141419   3.940   0.081   0.870  2.6952  3.2971 -0.1783
 6668TIP3    H241420   4.035   0.040   0.980  0.6006  0.3594  0.5991
 6669TIP3   OH241421   0.250   1.853  17.039 -0.0597  0.8612 -0.5537
 6669TIP3    H141422   0.217   1.783  16.983 -0.2009  1.5564 -1.3557
 6669TIP3    H241423   0.335   1.820  17.070 -1.7720 -1.2145  2.0930
 6670TIP3   OH241424   3.033   4.452  17.066  0.3115 -0.0904  0.0713
 6670TIP3    H141425   2.941   4.476  17.063  0.4797  0.8606  1.7111
 6670TIP3    H241426   3.051   4.437  17.159  1.7971 -0.2809 -0.2325
 6671TIP3   OH241427   5.303   4.364   2.275 -0.0888  0.0392  0.2595
 6671TIP3    H141428   5.373   4.429   2.287  0.2260 -0.1255 -0.7066
 6671TIP3    H241429   5.226   4.405   2.315  0.2229  0.8038  0.0910
 6672TIP3   OH241430   4.696   2.331   2.749 -0.1542  0.4691  0.3576
 6672TIP3    H141431   4.626   2.275   2.715 -0.7429  2.8773 -2.6000
 6672TIP3    H241432   4.649   2.405   2.789  0.6866  1.5795 -0.7126
 6673TIP3   OH241433   1.100   6.037  12.257  0.0050  0.1335 -0.1563
 6673TIP3    H141434   1.133   6.063  12.342 -0.6780  1.4609 -0.2777
 6673TIP3    H241435   1.171   6.056  12.196  0.1128  0.1729 -0.0168
 6674TIP3   OH241436   4.171   3.862   4.944 -0.2075 -0.2604  0.4381
 6674TIP3    H141437   4.086   3.830   4.976  0.4344 -1.6021  0.8714
 6674TIP3    H241438   4.220   3.882   5.024 -0.0974  0.4707  0.1892
 6675TIP3   OH241439   1.727   5.243   2.391  0.2197  0.1941 -0.0611
 6675TIP3    H141440   1.822   5.241   2.407 -0.2401 -0.1965  2.8937
 6675TIP3    H241441   1.710   5.165   2.338  1.2128 -1.1376  1.5474
 6676TIP3   OH241442   5.223   3.087  13.140  0.2629 -0.4632 -0.1400
 6676TIP3    H141443   5.268   3.011  13.103  0.1853 -0.2948 -0.5815
 6676TIP3    H241444   5.289   3.127  13.197  0.6902 -0.1951 -0.8137
 6677TIP3   OH241445   4.127   3.156  11.851 -0.6173 -0.5864  0.0708
 6677TIP3    H141446   4.175   3.127  11.928 -0.6137 -1.6585 -0.3311
 6677TIP3    H241447   4.042   3.113  11.859 -1.1238  0.4223  0.2010
 6678TIP3   OH241448   5.636   2.075   0.668 -0.3036 -0.2080 -0.1564
 6678TIP3    H141449   5.579   2.033   0.733 -1.3494 -1.2848 -1.7396
 6678TIP3    H241450   5.714   2.019   0.665  0.0259  0.1961  0.6100
 6679TIP3   OH241451   2.409   6.185   6.568 -0.6357 -0.3409 -0.5308
 6679TIP3    H141452   2.489   6.133   6.579 -0.4696  0.0970  0.3410
 6679TIP3    H241453   2.403   6.237   6.648 -2.2195 -0.9386 -0.2517
 6680TIP3   OH241454   0.365   2.148   1.873  0.5309  0.2174 -0.4575
 6680TIP3    H141455   0.369   2.228   1.821  0.9249 -0.8201 -2.0367
 6680TIP3    H241456   0.419   2.168   1.950  2.7232  0.6002 -2.0470
 6681TIP3   OH241457   4.698   6.658  13.735 -0.1868  0.0701 -0.2828
 6681TIP3    H141458   4.620   6.666  13.680  0.6767 -1.2285 -1.7474
 6681TIP3    H241459   4.771   6.652  13.673  0.7045 -2.6167  0.9324
 6682TIP3   OH241460   5.952   6.452   5.036 -0.1504 -0.1953  0.2295
 6682TIP3    H141461   6.033   6.499   5.053 -0.3999  0.5133 -0.4896
 6682TIP3    H241462   5.901   6.511   4.980  0.5852 -2.2957 -2.8130
 6683TIP3   OH241463   2.763   1.589   5.468 -0.3598  0.1891 -0.1468
 6683TIP3    H141464   2.782   1.502   5.502  1.8878  0.0387 -1.6987
 6683TIP3    H241465   2.677   1.611   5.506 -1.1859 -2.8634 -0.1033
 6684TIP3   OH241466   6.749   2.923  14.980 -0.5312 -0.1175  0.2314
 6684TIP3    H141467   6.822   2.986  14.973 -1.9222  1.4685 -0.3273
 6684TIP3    H241468   6.740   2.888  14.891 -0.1076 -0.7333  0.4243
 6685TIP3   OH241469   0.500   1.125   4.060 -0.2880 -0.1416 -0.3068
 6685TIP3    H141470   0.574   1.077   4.099 -0.5291  0.7569  1.3162
 6685TIP3    H241471   0.426   1.105   4.118 -0.5141  1.7158  0.0666
 6686TIP3   OH241472   2.115   2.513  14.957  0.2062  0.0339 -0.0896
 6686TIP3    H141473   2.203   2.479  14.943  0.7700  0.8358  1.5006
 6686TIP3    H241474   2.080   2.461  15.029 -0.3027  0.3355 -0.1131
 6687TIP3   OH241475   6.479   1.362   4.073 -0.6158  0.3076 -0.4267
 6687TIP3    H141476   6.390   1.326   4.075  0.0398 -1.4490 -1.9311
 6687TIP3    H241477   6.528   1.307   4.135 -0.7159  1.6860  0.8915
 6688TIP3   OH241478   6.755   0.584   3.128  0.3673 -0.1484 -0.5374
 6688TIP3    H141479   6.684   0.589   3.192  1.5598 -1.3468  0.8931
 6688TIP3    H241480   6.799   0.668   3.134 -0.5813  0.4019 -1.0558
 6689TIP3   OH241481   4.421   6.431   1.464 -0.3290  0.5060 -0.1506
 6689TIP3    H141482   4.449   6.354   1.512 -2.8503 -0.2542  0.1624
 6689TIP3    H241483   4.498   6.458   1.414  0.3670 -2.7122 -0.9178
 6690TIP3   OH241484   1.235   4.623   1.297 -0.3734  0.5873 -0.4732
 6690TIP3    H141485   1.321   4.582   1.307 -0.5958 -0.1564 -1.5286
 6690TIP3    H241486   1.173   4.556   1.327 -0.6507  0.7275 -0.7302
 6691TIP3   OH241487   3.894   2.252   2.724  0.0913  0.4089  0.2293
 6691TIP3    H141488   3.954   2.322   2.749 -0.7807  1.8382 -1.5384
 6691TIP3    H241489   3.933   2.212   2.647  0.4603 -0.9445  1.0814
 6692TIP3   OH241490   6.420   3.835   0.757 -0.5758  0.1383  0.5363
 6692TIP3    H141491   6.444   3.743   0.770 -0.5870  0.1630  0.7214
 6692TIP3    H241492   6.325   3.837   0.766 -0.5028  0.2947  1.2513
 6693TIP3   OH241493   1.875   4.799   4.780 -0.2795  0.2089  0.7550
 6693TIP3    H141494   1.813   4.850   4.728 -0.9439  0.0048  1.3463
 6693TIP3    H241495   1.840   4.802   4.869 -0.7511 -1.9733  0.6571
 6694TIP3   OH241496   3.681   2.182   4.345 -0.1688  0.1406  0.4588
 6694TIP3    H141497   3.639   2.237   4.279 -0.7892 -0.2411  0.5321
 6694TIP3    H241498   3.621   2.182   4.419  0.7351  0.9394  1.2120
 6695TIP3   OH241499   5.733   1.801   3.239  0.2624  0.1669  0.5658
 6695TIP3    H141500   5.660   1.776   3.295  0.7029  1.4120  1.7291
 6695TIP3    H241501   5.769   1.718   3.208 -1.7320 -0.4676 -0.1846
 6696TIP3   OH241502   4.858   3.127   3.013 -0.4061 -0.3790 -0.6027
 6696TIP3    H141503   4.908   3.101   3.090 -0.6145  0.0889 -0.3071
 6696TIP3    H241504   4.855   3.048   2.958 -0.7121 -0.8635  0.1049
 6697TIP3   OH241505   6.454   0.431  13.478  0.5241  0.0155  0.1641
 6697TIP3    H141506   6.388   0.364  13.495  0.7793 -0.2432  0.1321
 6697TIP3    H241507   6.458   0.438  13.383 -1.1428  1.7030  0.1923
 6698TIP3   OH241508   0.775   5.241   2.262 -0.2857 -0.3119  0.3519
 6698TIP3    H141509   0.761   5.175   2.195 -1.6098 -0.6054  0.8877
 6698TIP3    H241510   0.710   5.220   2.330 -0.0996  0.9714  0.9426
 6699TIP3   OH241511   5.859   5.165  11.836  0.0616 -0.1719  0.4091
 6699TIP3    H141512   5.917   5.091  11.855  0.3801  0.0542  0.3341
 6699TIP3    H241513   5.835   5.200  11.922 -0.5893 -0.7433  0.4609
 6700TIP3   OH241514   4.638   6.096  16.314  0.4030 -0.0273  0.6817
 6700TIP3    H141515   4.715   6.140  16.277 -0.8785 -0.3365 -2.4830
 6700TIP3    H241516   4.570   6.108  16.248 -2.0782 -0.4281  3.0883
 6701TIP3   OH241517   5.571   1.006   5.425  0.2574 -0.2549  0.7215
 6701TIP3    H141518   5.610   1.030   5.509  1.0673 -0.8929  0.5372
 6701TIP3    H241519   5.586   1.081   5.369  1.6855 -0.7054  0.5019
 6702TIP3   OH241520   4.779   6.470   1.985 -0.1077 -1.5536  0.5387
 6702TIP3    H141521   4.803   6.437   2.071 -1.5110 -1.9594  0.7914
 6702TIP3    H241522   4.711   6.409   1.954  0.1036 -1.1883 -0.6810
 6703TIP3   OH241523   4.966   4.723   3.167  0.5545  0.4423 -0.1404
 6703TIP3    H141524   4.980   4.638   3.126 -0.2195  0.1874  0.1017
 6703TIP3    H241525   5.028   4.726   3.239  1.1058  0.4028 -0.6075
 6704TIP3   OH241526   5.211   3.338  15.493  0.0334 -0.1433  0.1458
 6704TIP3    H141527   5.118   3.316  15.505  0.2074 -1.9149 -1.4775
 6704TIP3    H241528   5.215   3.432  15.505 -1.7065 -0.2553  1.8912
 6705TIP3   OH241529   5.458   0.486  12.446 -0.3549  0.5808  0.9669
 6705TIP3    H141530   5.481   0.565  12.398  0.7035 -0.2807  0.0320
 6705TIP3    H241531   5.493   0.499  12.534 -0.3587  1.2355  0.8699
 6706TIP3   OH241532   3.481   4.013  11.707  0.2871 -0.5365 -0.2122
 6706TIP3    H141533   3.576   4.008  11.705  0.2426 -1.8529  0.5433
 6706TIP3    H241534   3.461   4.073  11.779  0.5800  1.7135 -1.9487
 6707TIP3   OH241535   3.313   0.541  14.057 -0.3932 -0.2751 -0.1048
 6707TIP3    H141536   3.311   0.630  14.092  3.0218 -0.0883 -0.2314
 6707TIP3    H241537   3.244   0.495  14.105 -3.0885  2.7412 -0.9858
 6708TIP3   OH241538   2.036   1.456   3.425 -0.1131  0.2458  0.3468
 6708TIP3    H141539   1.959   1.504   3.394  0.0201  0.7804  0.8287
 6708TIP3    H241540   2.108   1.518   3.415  0.4168 -0.5761 -0.9747
 6709TIP3   OH241541   0.365   5.758  16.854 -0.8113 -0.3449 -0.1486
 6709TIP3    H141542   0.392   5.849  16.847  0.4002 -0.6342  0.7335
 6709TIP3    H241543   0.416   5.713  16.786 -0.3102 -0.6150  0.4107
 6710TIP3   OH241544   5.867   1.992  16.548  0.5671 -0.1704  0.2014
 6710TIP3    H141545   5.814   1.973  16.625  0.1602  0.7978  0.1709
 6710TIP3    H241546   5.957   1.980  16.578  0.3603 -1.2848  0.3974
 6711TIP3   OH241547   1.917   3.239   0.937 -0.6105  0.4463  0.1853
 6711TIP3    H141548   2.005   3.223   0.902 -0.4804  2.0098 -0.2331
 6711TIP3    H241549   1.861   3.179   0.887  0.1594 -0.3335  0.2312
 6712TIP3   OH241550   2.565   3.790   4.703 -0.2863  0.3861  0.0236
 6712TIP3    H141551   2.649   3.831   4.684 -0.2281 -0.1568 -0.8827
 6712TIP3    H241552   2.588   3.708   4.748 -0.3733  0.8748  0.9667
 6713TIP3   OH241553   3.987   5.507  16.140  0.2699  0.4206  0.2111
 6713TIP3    H141554   3.978   5.431  16.198  2.1390  0.5351  0.6722
 6713TIP3    H241555   4.063   5.554  16.173  1.2989  0.5607 -2.2664
 6714TIP3   OH241556   2.042   4.591   4.306  0.2852  0.4970 -0.5996
 6714TIP3    H141557   2.010   4.611   4.394 -0.7087 -0.8879 -0.6353
 6714TIP3    H241558   1.995   4.652   4.248 -0.7696 -0.1637 -0.4309
 6715TIP3   OH241559   1.038   0.840  16.664 -0.0391 -0.1046 -0.4004
 6715TIP3    H141560   1.009   0.931  16.663  0.3326  0.0295  0.5446
 6715TIP3    H241561   1.133   0.845  16.648 -0.2411 -0.4237 -1.7620
 6716TIP3   OH241562   0.239   0.131  16.084  0.0790 -0.1102 -0.0578
 6716TIP3    H141563   0.146   0.119  16.069 -0.2959 -0.0772  2.0418
 6716TIP3    H241564   0.279   0.049  16.056 -0.3753  0.4849 -2.4991
 6717TIP3   OH241565   0.851   5.669  10.818  0.3529  0.6117  0.3245
 6717TIP3    H141566   0.827   5.576  10.813  1.6387  0.3299 -0.9370
 6717TIP3    H241567   0.944   5.668  10.839  0.0493  1.6503  1.7945
 6718TIP3   OH241568   2.105   5.276  16.184 -0.2281  0.0086 -0.4632
 6718TIP3    H141569   2.083   5.364  16.214  2.2011  0.3002  0.5670
 6718TIP3    H241570   2.160   5.240  16.254 -0.4899 -2.0269 -1.2581
 6719TIP3   OH241571   4.379   3.025  17.110  0.8248 -0.0765  0.4211
 6719TIP3    H141572   4.397   3.116  17.088  0.3522 -0.3798 -1.3034
 6719TIP3    H241573   4.465   2.982  17.104  0.8208 -0.0126 -0.1408
 6720TIP3   OH241574   1.119   1.098  15.794 -0.5990  0.5823 -0.2478
 6720TIP3    H141575   1.118   1.052  15.710 -1.7141  1.0255 -0.4961
 6720TIP3    H241576   1.152   1.034  15.857 -0.9025 -0.1420 -0.8197
 6721TIP3   OH241577   0.508   4.040  14.574  0.1182  0.2160  0.3485
 6721TIP3    H141578   0.554   4.089  14.642 -0.6154 -0.2961  1.2148
 6721TIP3    H241579   0.519   4.094  14.495  2.5891 -0.1526  0.4335
 6722TIP3   OH241580   5.011   4.264   5.318 -0.3312 -0.5537 -0.4994
 6722TIP3    H141581   5.006   4.280   5.412  2.3526 -0.0883 -0.4001
 6722TIP3    H241582   4.983   4.173   5.308 -1.6420 -0.2895  0.6005
 6723TIP3   OH241583   4.255   6.032  11.372 -0.0571 -0.1842 -0.3602
 6723TIP3    H141584   4.328   6.085  11.403 -0.3986  0.0323  0.0594
 6723TIP3    H241585   4.296   5.971  11.310  0.5765 -0.4703  0.3358
 6724TIP3   OH241586   1.124   4.539  16.503  0.1449  0.2328  0.7946
 6724TIP3    H141587   1.202   4.551  16.449 -0.1399  0.1874  0.3760
 6724TIP3    H241588   1.125   4.613  16.563  0.2955  0.4459  0.5279
 6725TIP3   OH241589   6.069   1.284   1.845 -0.3899  0.6771 -0.1287
 6725TIP3    H141590   6.120   1.360   1.873 -2.6157  2.4964 -0.8462
 6725TIP3    H241591   6.023   1.255   1.923  0.6828 -0.1756  0.2152
 6726TIP3   OH241592   2.418   3.497   2.907 -0.0606  0.4183 -0.0779
 6726TIP3    H141593   2.390   3.571   2.962  0.0758  0.0530  0.4812
 6726TIP3    H241594   2.506   3.521   2.877  0.0686  0.3842  0.2766
 6727TIP3   OH241595   2.793   1.052   4.260  0.2961  0.4240 -0.3463
 6727TIP3    H141596   2.871   1.022   4.213  0.5989  0.5713  0.0664
 6727TIP3    H241597   2.747   1.107   4.196  1.3453  1.6446 -0.0684
 6728TIP3   OH241598   0.646   2.481  15.070 -0.0331 -0.7932  0.8736
 6728TIP3    H141599   0.634   2.446  14.982 -2.5747  0.7877  0.5188
 6728TIP3    H241600   0.600   2.419  15.127 -0.6775 -0.4366  0.7542
 6729TIP3   OH241601   6.109   1.573   0.115 -0.0532 -0.1994  0.0975
 6729TIP3    H141602   6.086   1.600   0.026  1.2158  4.2182  0.9944
 6729TIP3    H241603   6.028   1.582   0.165 -0.5035 -1.6428 -0.3481
 6730TIP3   OH241604   3.971   0.728  12.100  0.6615 -0.6186  0.1492
 6730TIP3    H141605   3.968   0.685  12.185 -0.7739 -1.3856 -0.2693
 6730TIP3    H241606   4.017   0.667  12.043 -0.4758 -1.1670 -0.1959
 6731TIP3   OH241607   2.599   2.628  14.969 -0.0056  0.0941 -0.8299
 6731TIP3    H141608   2.611   2.723  14.979  1.4715 -0.2457  0.9852
 6731TIP3    H241609   2.647   2.606  14.890  2.6271  0.3794  0.6168
 6732TIP3   OH241610   5.812   2.900  15.189  0.3340  0.4882 -0.6460
 6732TIP3    H141611   5.795   2.974  15.129  0.2420 -0.2460 -1.5341
 6732TIP3    H241612   5.726   2.879  15.225  0.4633  1.2404  0.1172
 6733TIP3   OH241613   1.253   0.128  16.791  0.3571  0.2598 -0.1715
 6733TIP3    H141614   1.158   0.122  16.801  0.0230  1.0289 -2.5640
 6733TIP3    H241615   1.266   0.188  16.717  2.7219  0.5286  0.4040
 6734TIP3   OH241616   4.132   3.301   5.657 -0.5620  0.3759 -0.7223
 6734TIP3    H141617   4.184   3.375   5.688 -1.3637  0.7158 -0.1581
 6734TIP3    H241618   4.129   3.311   5.562  1.1836 -0.1795 -0.8641
 6735TIP3   OH241619   6.445   2.491  16.526 -0.2147 -0.4427  0.1733
 6735TIP3    H141620   6.349   2.501  16.529 -0.0866  0.7281  0.8078
 6735TIP3    H241621   6.462   2.456  16.439 -1.2857 -1.4625  0.3491
 6736TIP3   OH241622   4.387   5.973  11.977 -0.5561 -0.2614 -0.1585
 6736TIP3    H141623   4.306   5.922  11.982 -1.2246  0.8536  0.4937
 6736TIP3    H241624   4.373   6.047  12.036  1.8239 -1.2504  1.7165
 6737TIP3   OH241625   2.435   3.617   5.741 -0.2159 -0.2064  0.1736
 6737TIP3    H141626   2.463   3.599   5.830 -0.0390  0.6171  0.2873
 6737TIP3    H241627   2.490   3.690   5.712 -2.0647  1.3204  0.3378
 6738TIP3   OH241628   2.517   4.673  11.412 -0.3600  0.2328  0.1925
 6738TIP3    H141629   2.599   4.632  11.385 -0.0062  0.7515  0.4803
 6738TIP3    H241630   2.514   4.660  11.507  0.4891  2.1938  0.5026
 6739TIP3   OH241631   1.713   3.369   3.156  0.3579 -0.1492 -0.5266
 6739TIP3    H141632   1.775   3.440   3.137 -0.5250  0.5504 -0.8061
 6739TIP3    H241633   1.648   3.409   3.214  1.1610 -1.3693  1.2694
 6740TIP3   OH241634   2.184   2.569  10.683 -0.1055 -0.0116  0.5273
 6740TIP3    H141635   2.257   2.510  10.703 -0.4029 -0.2451  0.9244
 6740TIP3    H241636   2.214   2.655  10.713  0.9955  0.3728 -1.5603
 6741TIP3   OH241637   4.929   5.725  12.574  0.0333 -0.4993  0.5077
 6741TIP3    H141638   5.011   5.677  12.565 -0.0424 -0.9867  2.3558
 6741TIP3    H241639   4.885   5.686  12.649 -1.4804  0.3691  0.1059
 6742TIP3   OH241640   4.803   0.317  13.435 -0.2022  0.1460  0.2334
 6742TIP3    H141641   4.830   0.407  13.454 -2.2399  1.0676 -1.0979
 6742TIP3    H241642   4.864   0.288  13.368 -1.5539  1.7502 -1.7752
 6743TIP3   OH241643   3.672   3.375   5.627  0.1511 -0.2577  0.2714
 6743TIP3    H141644   3.672   3.296   5.574 -0.1748 -1.4041  1.9383
 6743TIP3    H241645   3.731   3.435   5.581  1.3675 -1.9135 -0.3641
 6744TIP3   OH241646   1.621   6.770   4.864  0.0359  0.2501  0.2260
 6744TIP3    H141647   1.536   6.727   4.851 -0.3630  0.8783  0.7710
 6744TIP3    H241648   1.622   6.840   4.799  0.4633 -0.2327 -0.2984
 6745TIP3   OH241649   6.101   1.098   4.771  0.0925 -0.4303  0.0513
 6745TIP3    H141650   6.150   1.097   4.853 -1.1091 -0.9933  0.7783
 6745TIP3    H241651   6.112   1.009   4.736  0.6487 -0.1756 -0.4357
 6746TIP3   OH241652   0.935   3.768   2.812 -0.3253  0.1486 -0.0359
 6746TIP3    H141653   0.897   3.842   2.764 -0.4483  0.4108  0.4647
 6746TIP3    H241654   0.931   3.794   2.904  2.8544  0.9937 -0.0983
 6747TIP3   OH241655   0.355   4.412  11.487 -0.1571  0.2510 -0.1834
 6747TIP3    H141656   0.261   4.427  11.493 -0.2728 -1.4331  3.1328
 6747TIP3    H241657   0.364   4.329  11.441 -0.2504  0.3660 -0.4171
 6748TIP3   OH241658   4.654   5.899  14.058  0.3900  0.2978 -0.8541
 6748TIP3    H141659   4.741   5.916  14.093  1.3031 -0.8069 -2.5529
 6748TIP3    H241660   4.636   5.973  14.000  0.7613 -0.1647 -1.5568
 6749TIP3   OH241661   2.987   5.983   0.045  0.2555 -0.1318 -0.0812
 6749TIP3    H141662   2.961   6.049   0.108 -1.7218 -0.9867  0.0296
 6749TIP3    H241663   2.993   6.031  -0.038  1.5475  0.7164  0.4777
 6750TIP3   OH241664   0.957   5.153  14.576 -0.1574 -0.0774 -0.6829
 6750TIP3    H141665   0.948   5.167  14.482 -0.2513  1.3030 -0.4744
 6750TIP3    H241666   1.017   5.222  14.606  1.0872 -1.4214  0.0316
 6751TIP3   OH241667   3.190   0.641   0.431 -0.7047 -0.0404  0.1148
 6751TIP3    H141668   3.258   0.577   0.407 -0.3277 -0.5391  2.4091
 6751TIP3    H241669   3.155   0.671   0.347  1.5500 -0.6466 -1.0861
 6752TIP3   OH241670   3.237   3.789   0.414  0.4044  0.3686 -0.4053
 6752TIP3    H141671   3.149   3.816   0.439  0.3937  1.3538 -1.4781
 6752TIP3    H241672   3.225   3.704   0.372  0.4031 -1.2191  2.6546
 6753TIP3   OH241673   5.535   2.773  10.443 -0.2111 -0.6155  0.2566
 6753TIP3    H141674   5.459   2.719  10.420  0.3172 -1.3571  0.2518
 6753TIP3    H241675   5.603   2.710  10.465 -0.2386  0.0475  2.3992
 6754TIP3   OH241676   5.470   5.928  11.823 -0.0402 -0.2467 -0.2757
 6754TIP3    H141677   5.519   6.008  11.801  0.8721  0.2513  3.2327
 6754TIP3    H241678   5.393   5.959  11.870 -1.1061 -1.3195 -1.2879
 6755TIP3   OH241679   0.412   5.490   0.031  0.0328  0.0592  0.0854
 6755TIP3    H141680   0.439   5.576  -0.002 -0.8423  0.1186 -0.4969
 6755TIP3    H241681   0.450   5.485   0.119  0.4297  0.8714 -0.0320
 6756TIP3   OH241682   5.153   2.922   2.866 -0.3430 -0.1863 -0.3002
 6756TIP3    H141683   5.168   3.007   2.826 -4.0575  0.1532 -1.1324
 6756TIP3    H241684   5.138   2.941   2.959  3.1292 -0.4562  0.3916
 6757TIP3   OH241685   5.473   3.988  13.103 -0.5362 -0.0735  0.3181
 6757TIP3    H141686   5.540   4.055  13.104 -1.4139  0.8172  1.9404
 6757TIP3    H241687   5.456   3.971  13.010  3.8617 -2.3314 -0.1996
 6758TIP3   OH241688   6.643   0.833   2.608 -0.1035 -0.3304  0.5993
 6758TIP3    H141689   6.669   0.803   2.695 -1.2040 -2.1406  0.3340
 6758TIP3    H241690   6.716   0.888   2.579  0.0923  0.6180  2.8038
 6759TIP3   OH241691   5.050   4.106  13.920  0.0540  0.1835 -0.3180
 6759TIP3    H141692   4.981   4.168  13.895 -1.1132 -0.1038  2.0636
 6759TIP3    H241693   5.021   4.022  13.883 -0.0274  0.3895 -0.7290
 6760TIP3   OH241694   5.543   4.917   0.394  0.2908 -0.0804  0.0502
 6760TIP3    H141695   5.560   4.836   0.442 -0.1410 -0.6850 -0.7996
 6760TIP3    H241696   5.526   4.888   0.304 -0.8178  0.8633 -0.0585
 6761TIP3   OH241697   3.882   1.167  12.187 -0.2565 -0.6881 -0.1171
 6761TIP3    H141698   3.803   1.176  12.134 -0.9304 -1.5701  0.7134
 6761TIP3    H241699   3.938   1.108  12.137  0.1677  0.4599 -1.0221
 6762TIP3   OH241700   1.673   4.521  11.595  0.1107 -0.0858  0.3928
 6762TIP3    H141701   1.746   4.543  11.653  0.6433 -0.0205 -0.2896
 6762TIP3    H241702   1.633   4.444  11.635  0.6029 -0.1655  0.7378
 6763TIP3   OH241703   3.518   0.076  15.491  0.0665  0.0209  0.2077
 6763TIP3    H141704   3.548   0.087  15.401  0.2451 -1.9179  0.0040
 6763TIP3    H241705   3.497   0.164  15.521 -0.1522  0.6590 -1.7895
 6764TIP3   OH241706   1.131   0.211   0.303  0.1563  0.3482  0.2397
 6764TIP3    H141707   1.093   0.142   0.357  1.5163 -0.6076 -0.0041
 6764TIP3    H241708   1.057   0.267   0.281 -0.7726 -0.4127  1.3590
 6765TIP3   OH241709   0.573   3.213   0.435 -0.1970  0.4663  0.4342
 6765TIP3    H141710   0.516   3.205   0.358  0.0928 -2.0593  0.4544
 6765TIP3    H241711   0.637   3.280   0.410 -1.1738  0.9557 -0.8412
 6766TIP3   OH241712   1.807   2.605  14.576  0.3756 -0.5906 -0.4006
 6766TIP3    H141713   1.848   2.675  14.627 -0.3631 -0.8289  0.5345
 6766TIP3    H241714   1.876   2.540  14.563 -0.1707 -1.8970  2.8232
 6767TIP3   OH241715   0.340   6.066  17.163 -0.1066  0.3712 -0.0909
 6767TIP3    H141716   0.304   6.101  17.245 -0.7380  1.6639 -0.9014
 6767TIP3    H241717   0.301   5.979  17.155 -0.9782  0.6998  0.4054
 6768TIP3   OH241718   6.568   2.823   0.485 -0.1861  0.4929 -0.2603
 6768TIP3    H141719   6.538   2.786   0.402 -0.1295  1.2653 -0.6333
 6768TIP3    H241720   6.509   2.788   0.551  0.9434 -1.6714 -0.3544
 6769TIP3   OH241721   5.453   5.976   5.744  1.0479  0.6199 -0.2956
 6769TIP3    H141722   5.448   6.027   5.825  1.2706  0.4236 -0.1560
 6769TIP3    H241723   5.371   5.996   5.698  0.7151  0.3790  0.1884
 6770TIP3   OH241724   5.367   0.865  16.351  0.3997  0.1076  0.3523
 6770TIP3    H141725   5.384   0.776  16.321 -0.1547  0.7932 -2.1462
 6770TIP3    H241726   5.434   0.882  16.417  2.3147 -1.1750 -1.2006
 6771TIP3   OH241727   4.085   1.849  15.673  0.3218 -0.0945 -0.1461
 6771TIP3    H141728   4.135   1.852  15.592 -0.1659  0.6785 -0.4197
 6771TIP3    H241729   4.132   1.786  15.728  0.9978 -0.1583 -0.7953
 6772TIP3   OH241730   5.876   4.413  14.802  0.5312  0.5680  0.2601
 6772TIP3    H141731   5.893   4.339  14.744 -1.2752  0.1758  0.2263
 6772TIP3    H241732   5.896   4.490  14.749 -1.3243  0.2198 -0.9676
 6773TIP3   OH241733   6.195   0.164  15.145 -0.5015 -0.3764 -0.0336
 6773TIP3    H141734   6.278   0.189  15.104 -0.0859 -2.0250 -0.2273
 6773TIP3    H241735   6.215   0.159  15.239 -0.4903 -0.3905 -0.0370
 6774TIP3   OH241736   4.609   2.146   5.833  0.5498  0.3406  0.5847
 6774TIP3    H141737   4.570   2.114   5.914 -0.0050  0.5961  0.4267
 6774TIP3    H241738   4.667   2.217   5.861  1.6304 -0.6570  0.9150
 6775TIP3   OH241739   3.731   2.669  15.145 -0.1251  0.3300 -0.1456
 6775TIP3    H141740   3.725   2.652  15.051 -0.8797  0.4770 -0.1289
 6775TIP3    H241741   3.641   2.687  15.172 -0.1860 -1.5084  0.9479
 6776TIP3   OH241742   2.059   1.477  15.791 -0.7029  0.3108 -0.7888
 6776TIP3    H141743   2.120   1.424  15.842 -1.4570 -0.8238 -1.0582
 6776TIP3    H241744   2.115   1.538  15.743 -0.0178  2.2523  2.2938
 6777TIP3   OH241745   4.313   5.129  12.542  0.1828  0.2932  0.7689
 6777TIP3    H141746   4.241   5.139  12.605 -0.1327  1.3459  0.2639
 6777TIP3    H241747   4.273   5.084  12.468  0.0809  0.7532  0.5459
 6778TIP3   OH241748   4.508   1.791   1.891 -0.1035 -0.3256  1.1936
 6778TIP3    H141749   4.424   1.797   1.935 -0.9683  1.4382 -0.6062
 6778TIP3    H241750   4.521   1.697   1.876 -2.2683 -0.5470  0.5196
 6779TIP3   OH241751   4.166   4.722   3.961 -0.0061  0.1660 -0.1344
 6779TIP3    H141752   4.232   4.767   4.014 -0.4255  1.4254 -0.6661
 6779TIP3    H241753   4.200   4.633   3.952  0.1620 -0.0295  2.0902
 6780TIP3   OH241754   0.864   6.237  13.343 -0.1602  0.2617  0.1861
 6780TIP3    H141755   0.938   6.177  13.330 -0.5355 -0.3284  0.7774
 6780TIP3    H241756   0.886   6.285  13.423 -0.4313  0.0677  0.3762
 6781TIP3   OH241757   3.807   1.406  11.126 -0.0912 -0.3148  0.4294
 6781TIP3    H141758   3.834   1.322  11.162  1.9598 -0.1858 -0.7078
 6781TIP3    H241759   3.888   1.444  11.091 -1.5523  0.6912 -1.9720
 6782TIP3   OH241760   0.777   6.694  16.606 -0.0039  0.0861  0.2006
 6782TIP3    H141761   0.805   6.783  16.590 -0.1804 -0.1005 -1.1708
 6782TIP3    H241762   0.835   6.662  16.675  1.9380  0.3196 -1.2852
 6783TIP3   OH241763   0.453   3.412  16.672 -0.4721 -0.0465 -0.2114
 6783TIP3    H141764   0.439   3.317  16.661 -1.1835  0.0605 -0.2482
 6783TIP3    H241765   0.504   3.437  16.595 -1.6448 -0.1144 -1.0251
 6784TIP3   OH241766   2.527   0.661  13.408  0.1913 -0.8850 -0.3548
 6784TIP3    H141767   2.443   0.672  13.364 -0.1468 -0.4893  0.3802
 6784TIP3    H241768   2.532   0.735  13.469  0.0261 -2.2114  1.2853
 6785TIP3   OH241769   5.296   0.430  13.745 -0.1661  0.3367  0.3855
 6785TIP3    H141770   5.358   0.445  13.816  2.3214  0.1405 -1.6689
 6785TIP3    H241771   5.269   0.517  13.717 -1.9534  0.4022  2.1906
 6786TIP3   OH241772   3.188   1.990  16.688  0.3734  0.6109  0.0798
 6786TIP3    H141773   3.202   1.895  16.687  1.0555  0.7053 -0.7283
 6786TIP3    H241774   3.173   2.012  16.780  1.1297 -0.1553  0.3918
 6787TIP3   OH241775   3.717   0.360  16.365 -0.4490 -0.3663 -0.2141
 6787TIP3    H141776   3.753   0.286  16.316  1.0493 -0.6771  1.2903
 6787TIP3    H241777   3.729   0.435  16.307 -1.7962 -1.2437 -1.6741
 6788TIP3   OH241778   2.225   0.055   4.533 -0.2116 -0.6501  0.2081
 6788TIP3    H141779   2.307   0.066   4.485 -0.7350  2.6457 -0.0323
 6788TIP3    H241780   2.248   0.070   4.624 -0.4065 -0.5747  0.2450
 6789TIP3   OH241781   3.823   4.030  11.355  0.2057  0.0070 -0.4502
 6789TIP3    H141782   3.827   3.941  11.391 -0.3545  0.4524  0.7576
 6789TIP3    H241783   3.906   4.041  11.310  0.0421 -1.3408 -1.1185
 6790TIP3   OH241784   2.503   2.232   4.142  0.6348  0.1808 -0.4596
 6790TIP3    H141785   2.513   2.306   4.203 -1.1238  2.5391 -2.9052
 6790TIP3    H241786   2.592   2.201   4.127  1.3800  1.5517  0.9497
 6791TIP3   OH241787   0.573   2.854   6.067 -0.3323 -0.4440 -0.1280
 6791TIP3    H141788   0.495   2.799   6.068 -1.2344  0.7632 -1.4001
 6791TIP3    H241789   0.620   2.831   6.147 -1.9641 -1.2115  0.6330
 6792TIP3   OH241790   4.410   1.525  15.349 -0.0636 -0.2450  0.4124
 6792TIP3    H141791   4.350   1.537  15.423  1.1963  0.4886  1.3321
 6792TIP3    H241792   4.479   1.590  15.362  0.3766 -0.3435 -1.2171
 6793TIP3   OH241793   4.308   5.719  12.324  0.5489  0.1560 -0.2417
 6793TIP3    H141794   4.361   5.793  12.294  1.1385 -0.2798 -0.3127
 6793TIP3    H241795   4.360   5.642  12.299  0.1919 -0.2626  0.2931
 6794TIP3   OH241796   2.189   5.017   4.688 -0.0883 -0.2508  0.1659
 6794TIP3    H141797   2.233   5.095   4.656 -0.5267  0.5329  1.4634
 6794TIP3    H241798   2.184   5.029   4.783 -1.9224 -0.9365  0.1727
 6795TIP3   OH241799   3.328   1.987  15.129 -0.2749 -0.0171 -0.7791
 6795TIP3    H141800   3.397   2.039  15.088 -0.6995  0.6420 -0.6629
 6795TIP3    H241801   3.320   1.910  15.073  0.3231  0.0718 -0.9842
 6796TIP3   OH241802   3.462   3.300  11.882  0.1043 -0.6030 -0.1021
 6796TIP3    H141803   3.393   3.266  11.826  0.2779  0.4695 -0.9951
 6796TIP3    H241804   3.535   3.239  11.871 -1.6044 -3.3365  3.0260
 6797TIP3   OH241805   3.000   1.712   0.497 -0.0212 -0.2100  0.2746
 6797TIP3    H141806   2.931   1.751   0.444 -1.1631 -0.0325  1.8730
 6797TIP3    H241807   2.983   1.618   0.494  0.6003 -0.3017 -0.6072
 6798TIP3   OH241808   1.846   4.792   6.126 -1.0633  0.2062  0.2508
 6798TIP3    H141809   1.871   4.815   6.215 -0.1898 -0.8603  0.2884
 6798TIP3    H241810   1.795   4.712   6.135  2.6991 -2.3898 -0.5384
 6799TIP3   OH241811   5.162   3.722   3.103 -0.0656 -0.0833  0.3920
 6799TIP3    H141812   5.166   3.738   3.197 -0.5927  1.4036  0.1860
 6799TIP3    H241813   5.134   3.631   3.094 -2.3803  0.4449  1.6939
 6800TIP3   OH241814   3.797   4.655  11.777 -0.5050 -0.3863 -0.0459
 6800TIP3    H141815   3.814   4.613  11.692 -0.1960 -1.2660  0.4513
 6800TIP3    H241816   3.858   4.730  11.779 -2.3072  1.1828 -1.7076
 6801TIP3   OH241817   3.940   2.411   1.539  0.0024 -0.1970  0.4131
 6801TIP3    H141818   3.869   2.387   1.480  0.1884 -0.7289  0.4017
 6801TIP3    H241819   3.898   2.421   1.625 -0.2254  0.3313  0.2422
 6802TIP3   OH241820   0.411   3.549  13.532  0.1593  0.1394 -0.4693
 6802TIP3    H141821   0.321   3.578  13.552  0.1137  0.9807 -1.8014
 6802TIP3    H241822   0.400   3.488  13.459  0.5286 -1.1020  0.4974
 6803TIP3   OH241823   3.144   4.847  13.241  0.3165  0.0281  0.0468
 6803TIP3    H141824   3.054   4.873  13.262  0.0362 -0.9906  0.1793
 6803TIP3    H241825   3.196   4.882  13.312  0.1695  1.4946 -0.5546
 6804TIP3   OH241826   2.587   0.610   3.955 -0.4497 -0.1331  0.0478
 6804TIP3    H141827   2.670   0.565   3.971  0.6065  1.5846 -0.3855
 6804TIP3    H241828   2.543   0.610   4.039 -0.0481 -1.1293  0.2664
 6805TIP3   OH241829   0.342   3.364  13.080  0.3216  0.3510 -0.0392
 6805TIP3    H141830   0.435   3.345  13.070  0.3373  0.4215 -0.0297
 6805TIP3    H241831   0.320   3.416  13.003  0.2691  0.2560 -0.0878
 6806TIP3   OH241832   2.216   6.491   5.108 -0.5189 -0.5777 -0.7339
 6806TIP3    H141833   2.286   6.442   5.151  0.4444  1.8609  0.5675
 6806TIP3    H241834   2.259   6.532   5.033 -1.4492 -2.0950 -2.1442
 6807TIP3   OH241835   1.821   5.452   0.064 -0.6981  0.4290  0.5790
 6807TIP3    H141836   1.838   5.528   0.007 -1.1651 -0.0628 -0.2176
 6807TIP3    H241837   1.908   5.427   0.096 -0.1856 -0.4717 -1.4462
 6808TIP3   OH241838   1.679   0.409  16.336  0.6150  0.3109 -0.4856
 6808TIP3    H141839   1.735   0.475  16.376  1.7046 -0.6951 -0.3396
 6808TIP3    H241840   1.738   0.337  16.313 -0.7272 -1.1679  0.5447
 6809TIP3   OH241841   3.686   6.468   2.409  0.4146 -0.3826 -0.0616
 6809TIP3    H141842   3.622   6.540   2.409  0.0262 -0.7224  0.8117
 6809TIP3    H241843   3.687   6.438   2.318  1.6498  1.6580 -0.7482
 6810TIP3   OH241844   0.206   0.165   3.803 -0.0509  0.6989  0.0833
 6810TIP3    H141845   0.171   0.147   3.890  1.6454  0.8913  0.8292
 6810TIP3    H241846   0.301   0.151   3.812  0.1177  0.4803 -1.7902
 6811TIP3   OH241847   1.337   3.353   6.366  0.2707 -0.2525  0.6384
 6811TIP3    H141848   1.281   3.278   6.385  0.3081  0.2848  3.0557
 6811TIP3    H241849   1.405   3.350   6.433  0.3502  1.8412  0.6846
 6812TIP3   OH241850   3.630   2.428  14.506 -0.3756  0.0186 -0.7173
 6812TIP3    H141851   3.580   2.419  14.426 -0.9896 -0.0461 -0.3299
 6812TIP3    H241852   3.649   2.338  14.533  0.1547  0.0475 -0.9902
 6813TIP3   OH241853   0.724   5.246  14.828 -0.9074 -0.2910 -1.2655
 6813TIP3    H141854   0.654   5.300  14.791 -0.7725  0.2187 -0.7841
 6813TIP3    H241855   0.798   5.260  14.769 -1.2161 -0.8495 -1.7892
 6814TIP3   OH241856   3.343   3.447   0.980 -0.2722 -0.4814 -0.4307
 6814TIP3    H141857   3.249   3.439   0.996 -0.2853 -0.3644 -0.4470
 6814TIP3    H241858   3.362   3.381   0.913  0.1399 -2.3391  1.4686
 6815TIP3   OH241859   0.081   0.944   1.740 -0.2117 -0.4315 -0.3371
 6815TIP3    H141860   0.166   0.912   1.771 -0.1673  0.3336  0.3745
 6815TIP3    H241861   0.059   0.888   1.666  0.4120 -1.3317  0.1453
 6816TIP3   OH241862   1.621   3.366  12.882  0.0897  0.0691  0.3718
 6816TIP3    H141863   1.554   3.360  12.814 -0.5909  0.1179  1.0262
 6816TIP3    H241864   1.572   3.385  12.962  0.9285  0.4940  0.7899
 6817TIP3   OH241865   4.126   6.182   3.352 -0.0599  0.3968 -0.2639
 6817TIP3    H141866   4.133   6.101   3.302  1.1739 -0.6791  1.6011
 6817TIP3    H241867   4.137   6.251   3.287  1.0784 -0.9671 -1.5455
 6818TIP3   OH241868   4.516   2.719   2.076  0.0678 -0.0640 -0.4172
 6818TIP3    H141869   4.578   2.792   2.071 -0.1675  0.1354 -0.4186
 6818TIP3    H241870   4.454   2.736   2.005 -0.1638 -0.1038 -0.2237
 6819TIP3   OH241871   3.614   5.288   5.602 -0.2703  0.2516  0.2109
 6819TIP3    H141872   3.521   5.286   5.579 -0.3314 -0.0088  0.4783
 6819TIP3    H241873   3.660   5.280   5.519 -0.4915 -0.4851  0.1556
 6820TIP3   OH241874   4.439   1.298  16.238  0.8886  0.1930  0.7811
 6820TIP3    H141875   4.347   1.318  16.222  1.1213  0.6156 -0.0154
 6820TIP3    H241876   4.467   1.363  16.302  0.2371 -0.8709  2.1912
 6821TIP3   OH241877   0.784   5.266   5.517 -0.0674 -0.4706 -0.2114
 6821TIP3    H141878   0.698   5.277   5.478  0.0959  2.0481  0.0249
 6821TIP3    H241879   0.768   5.221   5.599 -0.8921 -2.0139 -1.2078
 6822TIP3   OH241880   0.945   3.365  17.182  0.3293 -0.4856 -0.0584
 6822TIP3    H141881   0.898   3.281  17.180  0.1241 -0.4134  1.2737
 6822TIP3    H241882   0.912   3.412  17.106 -0.4131 -1.1611 -0.1686
 6823TIP3   OH241883   1.007   3.752  10.601  0.3012 -0.4095  0.2358
 6823TIP3    H141884   0.925   3.753  10.551  0.5931 -2.0414 -0.3194
 6823TIP3    H241885   1.074   3.730  10.537  1.0068 -0.2538  0.9145
 6824TIP3   OH241886   2.666   0.596  15.397 -0.9030 -0.1315  0.6121
 6824TIP3    H141887   2.623   0.681  15.391 -0.9086 -0.0726  1.4854
 6824TIP3    H241888   2.670   0.565  15.306 -1.9314  0.2831  0.4252
 6825TIP3   OH241889   6.330   1.870   5.621 -0.0929  0.0245 -0.2509
 6825TIP3    H141890   6.250   1.826   5.592 -0.8660  0.9605  0.4522
 6825TIP3    H241891   6.336   1.851   5.714  0.9423 -0.7126 -0.4586
 6826TIP3   OH241892   6.433   2.508   5.429  0.0587 -0.3169 -0.1449
 6826TIP3    H141893   6.343   2.479   5.442 -0.6889  1.4626 -1.1568
 6826TIP3    H241894   6.426   2.579   5.365  2.0953  0.3086  0.2947
 6827TIP3   OH241895   3.434   3.968   0.346 -0.7354 -0.1781 -0.1256
 6827TIP3    H141896   3.505   3.908   0.369 -0.7151  0.1743  0.7531
 6827TIP3    H241897   3.354   3.918   0.361 -0.8006  0.8068  3.0209
 6828TIP3   OH241898   6.045   4.969  14.258 -0.2104  0.1870  0.1093
 6828TIP3    H141899   6.009   4.934  14.176  1.9099 -0.9270 -0.3722
 6828TIP3    H241900   6.126   5.012  14.232 -0.9462  2.3265  1.2463
 6829TIP3   OH241901   4.506   4.913  12.390  0.1371 -0.8939 -0.0007
 6829TIP3    H141902   4.423   4.951  12.361  0.0111 -0.9387  0.2989
 6829TIP3    H241903   4.504   4.823  12.358 -0.0009 -0.9429  0.1482
 6830TIP3   OH241904   0.512   3.161  13.588 -0.2065 -0.3036 -0.2528
 6830TIP3    H141905   0.506   3.239  13.532  0.9839  0.1765  0.2734
 6830TIP3    H241906   0.534   3.195  13.675  0.6570 -1.2373 -0.0937
 6831TIP3   OH241907   4.348   4.480   4.134  0.6611 -0.3795  0.0775
 6831TIP3    H141908   4.323   4.405   4.188 -0.4880  0.7936  1.2195
 6831TIP3    H241909   4.379   4.545   4.196  0.0471  0.7118 -0.7321
 6832TIP3   OH241910   0.645   0.294   4.388  0.2326 -0.2610 -0.4629
 6832TIP3    H141911   0.698   0.330   4.459  1.5284 -0.1953 -1.4513
 6832TIP3    H241912   0.586   0.232   4.432  1.1075 -0.3197  0.6595
 6833TIP3   OH241913   0.030   0.868   3.779  0.0096 -0.5186  0.5944
 6833TIP3    H141914   0.100   0.887   3.716  0.5845  0.5209  1.5286
 6833TIP3    H241915  -0.001   0.781   3.756 -0.3042  0.1378 -1.6290
 6834TIP3   OH241916   4.386   3.350  14.635 -0.6404 -0.0030 -0.6254
 6834TIP3    H141917   4.401   3.365  14.728 -0.4227  1.3834 -0.8735
 6834TIP3    H241918   4.319   3.414  14.610 -0.0669  0.2286 -1.6129
 6835TIP3   OH241919   5.003   4.852  11.590  0.5866 -0.2812  0.0386
 6835TIP3    H141920   5.073   4.795  11.622  1.1204  0.0595 -0.5040
 6835TIP3    H241921   4.931   4.793  11.568  1.2353 -0.7688 -0.7796
 6836TIP3   OH241922   6.325   2.015  12.051 -0.0779 -0.1015 -0.2848
 6836TIP3    H141923   6.313   1.943  11.988 -0.3450 -0.4320  0.1333
 6836TIP3    H241924   6.294   2.093  12.005  0.3463 -0.2288 -0.7940
 6837TIP3   OH241925   2.177   6.559  16.377  0.4885  0.5780  0.2547
 6837TIP3    H141926   2.212   6.479  16.339  0.2889 -0.1117  1.5022
 6837TIP3    H241927   2.250   6.596  16.427  0.3664  0.7782  0.2864
 6838TIP3   OH241928   0.608   5.817  12.148 -0.3003 -0.4025  0.0988
 6838TIP3    H141929   0.686   5.868  12.172 -0.9580  0.1427  1.1158
 6838TIP3    H241930   0.597   5.756  12.220 -0.7479 -0.5537 -0.0971
 6839TIP3   OH241931   6.006   2.462   6.007  0.4249 -0.3817  0.1006
 6839TIP3    H141932   6.087   2.510   6.026 -0.7103  1.5281  0.2001
 6839TIP3    H241933   5.939   2.505   6.059 -0.5817 -2.3039  0.4435
 6840TIP3   OH241934   4.453   0.018   1.629 -0.7169 -0.0991 -0.1371
 6840TIP3    H141935   4.376  -0.038   1.626 -0.5443 -0.4698  1.9142
 6840TIP3    H241936   4.507  -0.019   1.699 -0.1921  2.0942  0.6424
 6841TIP3   OH241937   3.924   2.506  12.051  0.1480 -0.3990  0.1411
 6841TIP3    H141938   3.896   2.545  12.134 -1.3468  1.2844 -1.1238
 6841TIP3    H241939   4.005   2.552  12.030 -1.1233  1.3934 -0.8825
 6842TIP3   OH241940   5.969   1.250   0.783  0.8738 -0.6781 -0.5666
 6842TIP3    H141941   6.028   1.325   0.782  1.5659 -1.2094 -0.2933
 6842TIP3    H241942   6.010   1.188   0.844  0.5498 -1.4612 -1.1314
 6843TIP3   OH241943   1.751   2.456  12.573  0.1644 -0.6934  0.0211
 6843TIP3    H141944   1.724   2.403  12.498  1.2142  0.8300 -1.4679
 6843TIP3    H241945   1.844   2.437  12.584  0.3564  0.1958 -0.0147
 6844TIP3   OH241946   5.924   4.216  12.116  0.2791  0.4157 -0.2497
 6844TIP3    H141947   5.831   4.197  12.119  0.3906 -0.0701  0.1004
 6844TIP3    H241948   5.945   4.220  12.023  0.1338 -0.5573 -0.3285
 6845TIP3   OH241949   0.906   3.282  13.763  0.0929 -0.0501  0.0978
 6845TIP3    H141950   0.939   3.357  13.713  1.3676  1.0905  2.5239
 6845TIP3    H241951   0.813   3.298  13.773  0.6141  2.0427  1.8942
 6846TIP3   OH241952   4.436   1.900   2.242  0.2396  0.0337  0.2808
 6846TIP3    H141953   4.372   1.947   2.295  0.3252 -0.4479  0.8222
 6846TIP3    H241954   4.479   1.967   2.189 -0.0437  0.4785  0.6185
 6847TIP3   OH241955   6.032   5.267   0.305 -0.1692  0.4798 -0.2530
 6847TIP3    H141956   5.942   5.295   0.322 -0.6027 -1.0648  0.0689
 6847TIP3    H241957   6.029   5.227   0.218 -0.0470 -0.6318  0.2447
 6848TIP3   OH241958   4.394   4.322  12.431  0.2924 -0.2460  0.5090
 6848TIP3    H141959   4.434   4.235  12.426 -3.1786 -1.7888 -2.6949
 6848TIP3    H241960   4.423   4.365  12.351  0.4524  0.8807  1.1704
 6849TIP3   OH241961   3.146   3.772   6.040 -0.0005 -0.0044 -0.0467
 6849TIP3    H141962   3.232   3.811   6.056  0.2896 -1.1109  1.1769
 6849TIP3    H241963   3.097   3.840   5.994  0.7382  1.5249  1.3800
 6850TIP3   OH241964   0.750   6.154  10.502 -0.4931 -0.2440  0.4968
 6850TIP3    H141965   0.738   6.233  10.450  0.5076  0.3859  1.1907
 6850TIP3    H241966   0.662   6.131  10.532 -0.8654  0.2731 -0.1834
 6851TIP3   OH241967   3.279   6.330  11.886  0.6668 -0.0694  0.2962
 6851TIP3    H141968   3.232   6.355  11.965  1.9511 -1.4782  1.5400
 6851TIP3    H241969   3.370   6.320  11.915  1.0718 -1.0360 -1.2685
 6852TIP3   OH241970   4.111   1.741   2.796  0.4172 -0.3442  0.0449
 6852TIP3    H141971   4.044   1.809   2.804 -1.0747 -1.8597  0.7876
 6852TIP3    H241972   4.070   1.673   2.742  2.1080 -0.4213 -1.2106
 6853TIP3   OH241973   1.609   6.522   3.393  0.6857  0.1499  0.2831
 6853TIP3    H141974   1.563   6.491   3.471 -2.8232 -0.6386 -1.9737
 6853TIP3    H241975   1.600   6.617   3.396  0.2202  0.0978  0.6734
 6854TIP3   OH241976   4.240   4.331   0.938 -0.5615 -0.2473 -0.1862
 6854TIP3    H141977   4.160   4.381   0.951  0.1872  0.4455  2.1990
 6854TIP3    H241978   4.223   4.246   0.979  0.0613  0.0600  0.7202
 6855TIP3   OH241979   6.360   0.904   3.952 -0.4355 -0.3992  0.4105
 6855TIP3    H141980   6.288   0.851   3.987  1.2861 -2.3087  1.0860
 6855TIP3    H241981   6.415   0.923   4.027 -0.1962  1.0725 -0.1162
 6856TIP3   OH241982   3.774   1.044  17.052 -0.5340 -0.8910  0.2992
 6856TIP3    H141983   3.679   1.038  17.047 -0.6095 -0.5145  1.2278
 6856TIP3    H241984   3.791   1.104  17.124  0.4158 -1.2166  0.3550
 6857TIP3   OH241985   1.634   6.331   5.096 -0.3875 -0.1529  0.5084
 6857TIP3    H141986   1.565   6.396   5.088 -1.1695 -0.7399  2.0988
 6857TIP3    H241987   1.595   6.250   5.064 -1.0772 -0.8812  3.0872
 6858TIP3   OH241988   4.433   1.125   0.424  0.4702  0.0934 -0.1847
 6858TIP3    H141989   4.369   1.112   0.494 -0.6472 -0.1917 -1.2430
 6858TIP3    H241990   4.438   1.041   0.379  1.0374  0.3311 -0.5775
 6859TIP3   OH241991   6.541   1.439   0.364  0.7965  0.0345 -0.0370
 6859TIP3    H141992   6.482   1.390   0.305  0.3741  0.1225  0.3068
 6859TIP3    H241993   6.489   1.452   0.443  0.2092  2.7021 -0.8183
 6860TIP3   OH241994   0.239   3.463   2.881 -0.2418 -0.3723  0.9982
 6860TIP3    H141995   0.156   3.451   2.927 -0.7037  2.0686  0.8800
 6860TIP3    H241996   0.219   3.438   2.791 -0.0233 -2.6838  1.5676
 6861TIP3   OH241997   5.226   3.282  15.206 -0.0564 -0.1878 -0.1931
 6861TIP3    H141998   5.151   3.334  15.178 -1.5288 -1.7934  0.6848
 6861TIP3    H241999   5.272   3.338  15.269  0.0132  1.1580 -1.4212
 6862TIP3   OH242000   1.646   0.187   6.301  0.4646  0.7430  0.3624
 6862TIP3    H142001   1.583   0.254   6.275  1.5868  1.8682  0.4796
 6862TIP3    H242002   1.611   0.151   6.383 -1.0965 -0.1365 -0.6768
 6863TIP3   OH242003   3.599   3.381  11.544  0.1131 -0.0396 -0.3041
 6863TIP3    H142004   3.553   3.465  11.542 -1.6605 -0.9657  0.7392
 6863TIP3    H242005   3.531   3.316  11.560  1.4059 -1.7467 -1.5120
 6864TIP3   OH242006   2.860   6.550  12.353  0.2539 -0.1212 -0.1442
 6864TIP3    H142007   2.817   6.628  12.317 -1.5254 -1.2950 -0.6032
 6864TIP3    H242008   2.833   6.547  12.445  0.7691  0.0917  0.0179
 6865TIP3   OH242009   4.952   0.117   5.712 -0.2009 -0.5593 -0.6369
 6865TIP3    H142010   4.877   0.164   5.748 -1.1939 -2.0594 -0.7455
 6865TIP3    H242011   4.954   0.034   5.758  0.1972 -1.3563 -2.0442
 6866TIP3   OH242012   0.675   4.783   1.135  0.4786 -0.7319  0.6587
 6866TIP3    H142013   0.740   4.723   1.098 -0.0155 -1.2938  0.6973
 6866TIP3    H242014   0.591   4.738   1.122  0.1434 -0.2069  1.0061
 6867TIP3   OH242015   3.617   6.168   4.574 -0.2614  0.5929  0.4001
 6867TIP3    H142016   3.532   6.208   4.597  0.2199  2.2616 -0.6136
 6867TIP3    H242017   3.682   6.225   4.616  0.4963  1.7145 -2.2341
 6868TIP3   OH242018   6.651   2.462   6.562  0.3250 -0.3580 -0.1302
 6868TIP3    H142019   6.637   2.393   6.497 -0.7130 -0.0443 -0.2428
 6868TIP3    H242020   6.715   2.424   6.623 -0.8078 -1.7357  0.2380
 6869TIP3   OH242021   4.578   5.474   6.470 -0.3255 -0.0290 -0.4254
 6869TIP3    H142022   4.631   5.513   6.401 -0.7712 -0.2994 -0.9247
 6869TIP3    H242023   4.505   5.535   6.481  0.4575  0.7102  0.7622
 6870TIP3   OH242024   5.557   0.533  16.051 -0.3433  0.2619 -0.8312
 6870TIP3    H142025   5.590   0.600  15.992  2.2790 -0.9411 -0.7761
 6870TIP3    H242026   5.630   0.512  16.109 -0.9940 -2.7905 -0.9845
 6871TIP3   OH242027   0.178   5.360  12.654  0.8053  0.2977  0.3061
 6871TIP3    H142028   0.201   5.268  12.644  0.2995  0.3438 -1.6967
 6871TIP3    H242029   0.206   5.384  12.742  1.7570 -1.5312  0.5117
 6872TIP3   OH242030   4.503   6.263   5.461  0.2015  0.1159 -0.2090
 6872TIP3    H142031   4.483   6.357   5.458 -0.4736 -0.0344 -0.4006
 6872TIP3    H242032   4.472   6.229   5.377 -1.0361 -0.5757  0.5228
 6873TIP3   OH242033   0.362   5.529  15.515  0.1391 -0.0724  0.0894
 6873TIP3    H142034   0.359   5.541  15.610 -1.6439  1.5967 -0.1548
 6873TIP3    H242035   0.422   5.598  15.485 -0.3856  0.2923 -0.1238
 6874TIP3   OH242036   5.189   5.954  14.245 -0.6658 -0.7479 -0.3623
 6874TIP3    H142037   5.149   5.944  14.331  1.6809 -1.4866  0.6799
 6874TIP3    H242038   5.272   5.997  14.262  0.5211 -2.2824 -2.0732
 6875TIP3   OH242039   4.299   0.781  12.267 -0.1066 -0.2415  0.1272
 6875TIP3    H142040   4.357   0.710  12.242  1.1470  1.1944 -1.0878
 6875TIP3    H242041   4.217   0.737  12.292  0.0793 -2.0075 -2.1981
 6876TIP3   OH242042   4.009   4.846  11.770 -0.4883  0.8014  0.5586
 6876TIP3    H142043   4.040   4.877  11.684 -0.5971 -2.0509 -0.5632
 6876TIP3    H242044   4.088   4.811  11.812 -0.5361  1.7351  1.4435
 6877TIP3   OH242045   1.644   3.640  14.299  0.1596 -0.3306 -0.4104
 6877TIP3    H142046   1.713   3.701  14.271 -0.1738  0.0254 -0.4581
 6877TIP3    H242047   1.678   3.554  14.276 -0.0742 -0.0482 -1.8534
 6878TIP3   OH242048   6.735   1.767  13.340  0.3795  0.4343  0.1645
 6878TIP3    H142049   6.826   1.783  13.363  0.5454  0.4915 -0.5206
 6878TIP3    H242050   6.695   1.735  13.421  1.0377  0.2813  0.4322
 6879TIP3   OH242051   0.629   6.764  11.312 -0.1656  0.7765  0.1483
 6879TIP3    H142052   0.684   6.776  11.390  1.0540 -2.7357 -0.1236
 6879TIP3    H242053   0.549   6.723  11.346 -0.3655  0.8547 -0.2292
 6880TIP3   OH242054   2.053   0.424   1.907 -0.1207  0.1341 -0.4832
 6880TIP3    H142055   2.003   0.438   1.988  0.6855  0.0189  0.0415
 6880TIP3    H242056   1.995   0.370   1.853 -0.2196 -0.7350  0.4655
 6881TIP3   OH242057   5.128   4.497   4.075  0.0606  0.1637 -0.2904
 6881TIP3    H142058   5.146   4.580   4.118 -0.9048  0.5074 -0.5382
 6881TIP3    H242059   5.153   4.431   4.139  0.5833  0.6444  0.0042
 6882TIP3   OH242060   2.494   6.597   0.734 -0.0859  0.1206  0.7174
 6882TIP3    H142061   2.412   6.636   0.764 -1.0612 -0.4662 -1.0836
 6882TIP3    H242062   2.544   6.670   0.700 -1.6998 -0.0469 -2.1778
 6883TIP3   OH242063   3.359   3.378   4.675 -0.1784  0.5273  0.1447
 6883TIP3    H142064   3.274   3.372   4.631  0.6044 -2.0738 -1.1370
 6883TIP3    H242065   3.420   3.401   4.605  0.6082 -0.4786  0.4964
 6884TIP3   OH242066   6.249   4.281   1.970  0.4307 -0.1400  0.0440
 6884TIP3    H142067   6.235   4.190   1.944 -0.4040 -0.0158  0.0363
 6884TIP3    H242068   6.291   4.322   1.894 -1.3276  0.0448 -0.8563
 6885TIP3   OH242069   3.177   6.631   2.728  0.7163 -0.3384 -0.0664
 6885TIP3    H142070   3.220   6.574   2.665  2.5489  1.2602 -0.3182
 6885TIP3    H242071   3.089   6.596   2.736  1.7041 -3.0340 -0.4086
 6886TIP3   OH242072   5.048   1.680  11.090 -0.2132  0.0320  0.3212
 6886TIP3    H142073   5.052   1.713  11.000  2.9919  0.2774  0.5040
 6886TIP3    H242074   4.987   1.739  11.134 -0.9332  0.6076 -1.3831
 6887TIP3   OH242075   2.550   2.405   6.655 -0.5380 -0.0948  0.0409
 6887TIP3    H142076   2.526   2.324   6.699  1.0852 -0.5721  0.0665
 6887TIP3    H242077   2.468   2.437   6.618 -1.5947 -0.6308  1.8437
 6888TIP3   OH242078   5.987   3.461  11.568 -0.2075 -0.3733 -0.3827
 6888TIP3    H142079   5.955   3.537  11.616  0.3557  0.7574 -1.7886
 6888TIP3    H242080   6.081   3.460  11.583 -0.2515 -0.9718 -0.1208
 6889TIP3   OH242081   4.044   0.290   1.154 -0.1281  0.3588 -0.0917
 6889TIP3    H142082   4.139   0.277   1.149 -0.4655 -2.0403 -0.5616
 6889TIP3    H242083   4.012   0.262   1.068 -1.4549 -0.5481  0.6909
 6890TIP3   OH242084   6.484   6.448   5.489  0.3558 -0.0180 -0.1340
 6890TIP3    H142085   6.421   6.382   5.516  1.0332 -1.1884 -1.3563
 6890TIP3    H242086   6.564   6.398   5.468  0.9405  1.1999 -0.8611
 6891TIP3   OH242087   1.788   3.205   3.392  0.2322  0.1712  0.4238
 6891TIP3    H142088   1.740   3.212   3.474 -1.5851 -1.8967 -0.4039
 6891TIP3    H242089   1.756   3.277   3.338 -1.1862 -0.5822  0.2552
 6892TIP3   OH242090   3.818   2.649  13.644 -0.2106 -0.2436 -0.1733
 6892TIP3    H142091   3.886   2.715  13.652 -3.2237  3.1101 -0.8593
 6892TIP3    H242092   3.813   2.630  13.550  0.4862 -1.2956 -0.0037
 6893TIP3   OH242093   2.755   1.275  16.050  0.2719 -0.0784  0.0226
 6893TIP3    H142094   2.779   1.185  16.031  1.2831  0.1049  0.3715
 6893TIP3    H242095   2.738   1.276  16.144  1.4678  0.3475  0.2431
 6894TIP3   OH242096   5.252   6.079  12.700  0.8535  0.1736  0.4890
 6894TIP3    H142097   5.162   6.048  12.711  0.0150  1.9143 -1.2102
 6894TIP3    H242098   5.292   6.015  12.642  0.3812  0.0129  0.3394
 6895TIP3   OH242099   6.714   4.801  12.072 -0.0665 -0.0602 -0.0993
 6895TIP3    H142100   6.712   4.825  12.165  1.3480 -0.7925  0.1465
 6895TIP3    H242101   6.806   4.783  12.054 -0.3415 -0.0214 -1.6337
 6896TIP3   OH242102   2.369   5.764  13.627 -0.2193  0.1200 -0.1742
 6896TIP3    H142103   2.456   5.760  13.667  0.9870  1.8436 -2.4753
 6896TIP3    H242104   2.336   5.851  13.650  0.2888  0.9460 -2.4283
 6897TIP3   OH242105   0.216   6.640  12.321 -0.3189 -0.4252  0.2164
 6897TIP3    H142106   0.136   6.651  12.270  0.2256 -1.9784 -1.0124
 6897TIP3    H242107   0.282   6.694  12.276 -0.3828 -0.0763  0.5417
 6898TIP3   OH242108   0.991   4.080  15.802  0.1676 -0.0382 -0.4855
 6898TIP3    H142109   0.925   4.136  15.761  0.2246  1.3235  1.2222
 6898TIP3    H242110   0.941   4.020  15.858  0.3563  1.0517  0.8768
 6899TIP3   OH242111   5.488   3.514   0.306  0.1646  0.1112  0.0300
 6899TIP3    H142112   5.572   3.516   0.260  0.4547  0.4420  0.5785
 6899TIP3    H242113   5.427   3.559   0.247  0.1177 -1.0658 -0.8563
 6900TIP3   OH242114   3.967   2.646  15.912  0.1534  0.1635  0.0170
 6900TIP3    H142115   4.061   2.653  15.895  0.2798  0.3157  0.7641
 6900TIP3    H242116   3.954   2.554  15.935  0.5279  0.6187  2.2360
 6901TIP3   OH242117   4.459   6.083  13.114  0.2792  0.2136 -0.3146
 6901TIP3    H142118   4.428   6.069  13.025 -2.9269 -1.7618  0.9856
 6901TIP3    H242119   4.397   6.147  13.151  1.4328  0.8420  0.5548
 6902TIP3   OH242120   3.339   6.691  12.983 -0.1465  0.0772 -0.2889
 6902TIP3    H142121   3.259   6.660  12.939 -0.2379 -0.9114  0.5712
 6902TIP3    H242122   3.323   6.676  13.076  1.5711 -1.3713 -0.2071
 6903TIP3   OH242123   5.298   4.866   4.505 -0.2498 -0.0886 -0.7165
 6903TIP3    H142124   5.392   4.847   4.511 -0.2511 -0.9769 -3.1471
 6903TIP3    H242125   5.291   4.936   4.441 -1.0495  2.0778  1.6522
 6904TIP3   OH242126   5.398   3.163  17.152  0.2289  0.6036 -0.0818
 6904TIP3    H142127   5.378   3.123  17.068  0.7072  0.6641 -0.2270
 6904TIP3    H242128   5.368   3.100  17.217 -0.3680  0.6685 -0.2948
 6905TIP3   OH242129   1.134   5.681  13.470 -0.2152  0.0552  0.3965
 6905TIP3    H142130   1.224   5.693  13.439 -0.1607 -0.3064  0.4103
 6905TIP3    H242131   1.096   5.768  13.468  0.1352  0.2080  0.3826
 6906TIP3   OH242132   0.301   6.761   0.243  0.3735 -0.3978 -0.0745
 6906TIP3    H142133   0.236   6.702   0.206  0.0004 -0.0101 -0.0457
 6906TIP3    H242134   0.341   6.804   0.168 -1.8340  1.9190  0.0255
 6907TIP3   OH242135   4.258   3.119   4.686  0.4558 -0.4029  0.1907
 6907TIP3    H142136   4.180   3.081   4.727 -0.1047  0.6989  0.1643
 6907TIP3    H242137   4.237   3.123   4.593  1.6516 -2.7175 -0.2117
 6908TIP3   OH242138   3.288   1.874  12.536  0.5060  0.2088 -0.6401
 6908TIP3    H142139   3.304   1.950  12.593 -0.0104  1.6900 -2.4158
 6908TIP3    H242140   3.196   1.853  12.552 -0.4068  2.3207 -2.8585
 6909TIP3   OH242141   4.562   4.129   1.230 -0.0827  0.0732  0.1956
 6909TIP3    H142142   4.583   4.218   1.259 -0.3330 -0.3280  1.6070
 6909TIP3    H242143   4.609   4.072   1.290 -1.5799 -0.7723  0.5732
 6910TIP3   OH242144   4.589   1.857  16.971  0.1815  0.1155 -0.3898
 6910TIP3    H142145   4.543   1.921  17.025  1.5944  2.4206 -1.8534
 6910TIP3    H242146   4.666   1.832  17.023 -0.5616 -0.6866  0.3343
 6911TIP3   OH242147   1.067   0.193  17.183  0.0697  0.2284  0.0411
 6911TIP3    H142148   1.120   0.267  17.150 -2.3422  1.5341 -1.0403
 6911TIP3    H242149   1.002   0.178  17.114 -2.0497 -0.1957  2.0920
 6912TIP3   OH242150   4.211   0.247  12.749 -0.1357  0.0613 -0.0121
 6912TIP3    H142151   4.304   0.246  12.727 -0.3634 -0.4505 -0.9935
 6912TIP3    H242152   4.195   0.335  12.783  0.8706 -0.1008  0.9107
 6913TIP3   OH242153   0.576   0.405   2.165 -0.3591  0.6077 -0.4902
 6913TIP3    H142154   0.572   0.386   2.259 -0.0971  2.9307  0.0455
 6913TIP3    H242155   0.569   0.320   2.122 -1.7759 -0.3765  1.6066
 6914TIP3   OH242156   2.918   0.401  12.012 -0.1870  0.1393  1.1011
 6914TIP3    H142157   2.878   0.448  12.085  0.6783  0.4741  1.3646
 6914TIP3    H242158   2.924   0.311  12.042  0.3830  0.3210  1.5317
 6915TIP3   OH242159   3.232   0.994   2.108 -0.4513  0.1886  0.4732
 6915TIP3    H142160   3.276   0.978   2.191  0.6607  0.2422 -0.0948
 6915TIP3    H242161   3.234   0.909   2.063  0.8419  0.6433 -0.3723
 6916TIP3   OH242162   6.320   1.926   1.183 -0.0734 -0.2796  0.2804
 6916TIP3    H142163   6.365   1.950   1.264  0.7124  0.7181 -0.4398
 6916TIP3    H242164   6.228   1.921   1.207 -0.5378  5.2400  0.1343
 6917TIP3   OH242165   4.265   4.200   0.430  0.2217 -0.3458  0.7137
 6917TIP3    H142166   4.178   4.195   0.389  1.1606 -1.9308 -1.1611
 6917TIP3    H242167   4.281   4.294   0.439 -0.4516  0.0420 -1.6552
 6918TIP3   OH242168   3.052   0.241  11.406 -0.3839  0.5632  0.6210
 6918TIP3    H142169   2.983   0.263  11.342  1.2591 -1.1293 -1.8258
 6918TIP3    H242170   3.043   0.147  11.419  1.4057  0.3400  0.3228
 6919TIP3   OH242171   5.855   2.654   2.665  0.3405 -0.5569 -0.1501
 6919TIP3    H142172   5.780   2.620   2.714  0.8887  0.2657  1.2777
 6919TIP3    H242173   5.883   2.580   2.611  0.8178 -2.0811  2.0845
 6920TIP3   OH242174   1.928   2.647  15.843  0.5323 -0.1188  0.1794
 6920TIP3    H142175   1.919   2.565  15.892 -0.7050 -0.0853  0.0264
 6920TIP3    H242176   1.931   2.715  15.911 -0.9894 -0.0882  0.2299
 6921TIP3   OH242177   2.121   4.704  15.226  0.0408  0.0421  0.9940
 6921TIP3    H142178   2.206   4.741  15.249  0.1567 -0.0742  0.7652
 6921TIP3    H242179   2.116   4.712  15.131  0.6534 -1.7404  0.7827
 6922TIP3   OH242180   2.878   4.710  15.275  0.2918  0.1412 -0.5825
 6922TIP3    H142181   2.797   4.736  15.233 -0.3701 -0.3191  0.3789
 6922TIP3    H242182   2.941   4.701  15.204 -0.6512 -0.0667 -1.3984
 6923TIP3   OH242183   6.501   0.083   2.910 -0.3526  0.6908 -0.1449
 6923TIP3    H142184   6.519  -0.000   2.867 -2.1131 -0.6155  1.5400
 6923TIP3    H242185   6.504   0.063   3.004  0.7476  2.8822  0.3172
 6924TIP3   OH242186   0.801   3.384  11.747  0.4510  0.0433  0.0392
 6924TIP3    H142187   0.888   3.422  11.734  1.1026 -0.7949  1.8534
 6924TIP3    H242188   0.768   3.424  11.827  0.2866 -1.6540  0.8373
 6925TIP3   OH242189   3.098   5.505   4.786 -0.5593  0.2747 -0.0249
 6925TIP3    H142190   3.125   5.568   4.719  0.0511 -0.9784 -0.9818
 6925TIP3    H242191   3.178   5.485   4.834 -0.7104  0.1102  0.1614
 6926TIP3   OH242192   4.957   4.971  13.391 -0.1775  0.0452  0.6513
 6926TIP3    H142193   4.888   5.000  13.451 -0.3852  0.2206  0.3341
 6926TIP3    H242194   4.964   5.043  13.328  0.9873  0.4659  1.2529
 6927TIP3   OH242195   4.559   1.332   0.253  0.4793  0.2920 -0.4953
 6927TIP3    H142196   4.605   1.277   0.190 -0.7225 -0.3780 -0.8128
 6927TIP3    H242197   4.507   1.270   0.305 -0.0673  1.0232 -0.1554
 6928TIP3   OH242198   2.881   2.388   4.889  0.9266 -0.2871 -0.2046
 6928TIP3    H142199   2.932   2.411   4.811  3.2254 -1.4867  0.9031
 6928TIP3    H242200   2.819   2.322   4.858  0.8119  0.3312 -1.3272
 6929TIP3   OH242201   0.463   1.001  12.627 -0.5872 -0.2165 -0.1542
 6929TIP3    H142202   0.546   1.049  12.616 -0.6131 -0.6004 -2.2069
 6929TIP3    H242203   0.488   0.909  12.618 -0.7847 -0.5426  2.2615
 6930TIP3   OH242204   0.383   0.436   4.415  0.0966 -0.0125  0.5168
 6930TIP3    H142205   0.440   0.366   4.446 -3.6226 -3.1184  0.7554
 6930TIP3    H242206   0.410   0.451   4.324  2.4157 -0.1091  1.1578
 6931TIP3   OH242207   3.190   0.215  12.511  0.3713  0.1925  0.3963
 6931TIP3    H142208   3.185   0.296  12.561 -0.0975 -0.0093  0.6861
 6931TIP3    H242209   3.111   0.216  12.456  0.6725  0.2195 -0.0372
 6932TIP3   OH242210   4.009   0.264   6.347 -0.2893  0.3265  0.2478
 6932TIP3    H142211   4.005   0.275   6.442 -1.1644 -0.2848  0.2888
 6932TIP3    H242212   4.096   0.295   6.323  0.7951 -1.6688  1.5135
 6933TIP3   OH242213   1.208   3.999   4.138  0.4924  0.2251  0.5570
 6933TIP3    H142214   1.279   3.936   4.122  2.2242  2.0635  0.7861
 6933TIP3    H242215   1.217   4.063   4.067 -0.1901  1.1317  1.2745
 6934TIP3   OH242216   2.617   3.486   4.170 -0.3370 -0.5302  0.1683
 6934TIP3    H142217   2.710   3.472   4.154  0.1148  0.1233  2.1102
 6934TIP3    H242218   2.610   3.577   4.197 -1.6167 -0.4185 -0.4924
 6935TIP3   OH242219   4.706   1.226  12.597 -0.5863  0.3360 -0.2690
 6935TIP3    H142220   4.628   1.264  12.556 -0.4880  0.8743  0.0292
 6935TIP3    H242221   4.779   1.260  12.545 -0.2959  2.8261  1.6359
 6936TIP3   OH242222   3.963   2.752   1.239 -0.1582 -0.0467 -0.1361
 6936TIP3    H142223   3.918   2.836   1.244 -1.2502 -0.5966 -0.5907
 6936TIP3    H242224   4.050   2.773   1.207  0.3104  1.1762  1.8469
 6937TIP3   OH242225   4.635   4.057   4.691 -0.1032  0.2019 -0.0753
 6937TIP3    H142226   4.586   4.006   4.627  1.0527 -1.8679  0.6471
 6937TIP3    H242227   4.571   4.117   4.729 -1.0253  0.7530 -2.4260
 6938TIP3   OH242228   5.360   5.183   5.207  0.7074  0.2889 -0.2619
 6938TIP3    H142229   5.300   5.203   5.279  1.5821  0.9654  0.2799
 6938TIP3    H242230   5.309   5.204   5.128  0.4660  1.5514  0.2095
 6939TIP3   OH242231   1.239   3.974  16.709  0.0946  0.0021  0.0453
 6939TIP3    H142232   1.248   4.058  16.755  0.5549  0.8802 -1.5820
 6939TIP3    H242233   1.325   3.933  16.717 -0.3058 -0.5980  1.3565
 6940TIP3   OH242234   3.752   3.969   6.611  0.3085 -0.0475  0.1237
 6940TIP3    H142235   3.741   3.909   6.685  0.3791  0.6141  0.6769
 6940TIP3    H242236   3.835   3.943   6.570  0.3461 -0.3116  0.3672
 6941TIP3   OH242237   4.975   6.191   6.055 -0.2686 -0.1630 -0.1646
 6941TIP3    H142238   4.981   6.270   6.109  1.6052  0.7903 -1.6897
 6941TIP3    H242239   5.045   6.135   6.087 -0.5426 -0.5130 -0.1738
 6942TIP3   OH242240   5.170   5.510  15.622  0.2823 -0.0485  0.0180
 6942TIP3    H142241   5.112   5.569  15.672 -0.1559 -2.5364  2.5858
 6942TIP3    H242242   5.147   5.422  15.653  2.3739 -1.4330 -2.2005
 6943TIP3   OH242243   1.137   0.323  10.768  0.0349 -0.1144  0.2773
 6943TIP3    H142244   1.225   0.293  10.787  0.8221  2.3898  0.8535
 6943TIP3    H242245   1.149   0.402  10.715 -1.9491 -1.7486 -2.7892
 6944TIP3   OH242246   3.075   3.751   6.857  0.0557  0.1788 -0.1060
 6944TIP3    H142247   3.170   3.745   6.848  0.0799 -0.1717  0.3499
 6944TIP3    H242248   3.041   3.696   6.786  0.1698  1.4832 -1.1773
 6945TIP3   OH242249   2.801   6.025   1.201 -0.3480 -0.0427 -0.1931
 6945TIP3    H142250   2.764   6.050   1.286  0.3893  0.4282 -0.0068
 6945TIP3    H242251   2.823   5.932   1.212 -0.2368  0.0203  0.1464
 6946TIP3   OH242252   2.684   4.778  15.454  0.6747 -0.6086  0.2926
 6946TIP3    H142253   2.706   4.870  15.436  0.5809 -0.9969 -2.0407
 6946TIP3    H242254   2.768   4.732  15.444  0.5971 -0.8529  0.8004
 6947TIP3   OH242255   4.814   4.426  12.701 -0.4526 -0.2000  0.6792
 6947TIP3    H142256   4.835   4.337  12.674 -0.6420  0.0289 -0.2397
 6947TIP3    H242257   4.719   4.426  12.713 -0.6367  0.2537 -0.7385
 6948TIP3   OH242258   5.425   1.361  11.763 -0.3585  0.1819  0.2363
 6948TIP3    H142259   5.502   1.306  11.770 -0.0081  0.8432  1.9067
 6948TIP3    H242260   5.423   1.389  11.671  0.9368 -0.4684  0.0048
 6949TIP3   OH242261   6.141   1.955  14.092 -0.4437  0.3332 -0.1849
 6949TIP3    H142262   6.229   1.918  14.095  0.3667  2.3351  1.7768
 6949TIP3    H242263   6.153   2.042  14.053 -1.6505  0.3949 -0.4292
 6950TIP3   OH242264   4.656   2.676   4.838  0.3762  0.6451 -0.0752
 6950TIP3    H142265   4.728   2.739   4.836 -0.0654  1.1314 -1.7890
 6950TIP3    H242266   4.695   2.594   4.808  0.4764  0.6144  0.1374
 6951TIP3   OH242267   2.998   4.804  14.487  1.0985  0.4555  0.7198
 6951TIP3    H142268   3.000   4.845  14.401  1.8098 -0.8468  0.1141
 6951TIP3    H242269   2.911   4.767  14.494  1.5687 -0.8344 -0.1067
 6952TIP3   OH242270   4.710   3.067  13.580 -0.5093 -0.2591 -0.0573
 6952TIP3    H142271   4.717   3.053  13.675  0.0508 -0.0603 -0.0646
 6952TIP3    H242272   4.791   3.029  13.545 -0.5780 -0.0650 -0.4279
 6953TIP3   OH242273   5.736   1.847   3.917 -0.4615 -0.4347 -0.1188
 6953TIP3    H142274   5.717   1.764   3.961  1.5914 -0.3209  1.0476
 6953TIP3    H242275   5.758   1.908   3.988  0.0760  0.5392 -1.0998
 6954TIP3   OH242276   3.894   1.622   6.615 -0.5733  0.0927  0.1370
 6954TIP3    H142277   3.855   1.564   6.549 -1.9467  1.5081 -0.3190
 6954TIP3    H242278   3.941   1.688   6.564 -0.9174  0.7008  0.6049
 6955TIP3   OH242279   6.259   5.636   3.862 -0.0462 -0.4526 -0.5665
 6955TIP3    H142280   6.314   5.603   3.791  1.9344  1.5383 -0.0132
 6955TIP3    H242281   6.177   5.660   3.820 -0.2739 -2.7874 -1.5282
 6956TIP3   OH242282   3.215   4.345  16.894  0.4879 -0.0948 -0.6772
 6956TIP3    H142283   3.146   4.387  16.944  1.2788  1.1442 -0.5979
 6956TIP3    H242284   3.248   4.276  16.952  0.3524  0.3153 -0.1124
 6957TIP3   OH242285   1.743   2.841   2.073  0.0768 -0.3589  0.2334
 6957TIP3    H142286   1.733   2.875   2.161  0.2673  0.1027  0.0762
 6957TIP3    H242287   1.741   2.746   2.084 -0.1271 -0.3018  0.7060
 6958TIP3   OH242288   5.182   5.879   5.397  0.3108 -0.6657 -0.0948
 6958TIP3    H142289   5.154   5.839   5.315 -0.7390  0.1029 -0.1133
 6958TIP3    H242290   5.224   5.807   5.446 -2.6757 -2.1174  0.4145
 6959TIP3   OH242291   5.078   2.320  13.516 -0.3944 -0.1179 -0.2387
 6959TIP3    H142292   5.086   2.277  13.431  3.1149 -1.8611  0.8807
 6959TIP3    H242293   5.019   2.263  13.567  1.6168 -1.8843  0.1571
 6960TIP3   OH242294   3.525   6.479  12.003  0.0127  0.2026  0.0452
 6960TIP3    H142295   3.441   6.498  12.046  0.1940  0.5532  0.2519
 6960TIP3    H242296   3.591   6.502  12.069  0.2322 -1.8098  0.5568
 6961TIP3   OH242297   2.605   5.333  11.905  0.1807 -0.5718  0.1680
 6961TIP3    H142298   2.549   5.257  11.922 -0.6420  0.0273  0.1518
 6961TIP3    H242299   2.663   5.339  11.981 -0.7224 -0.3503  0.8343
 6962TIP3   OH242300   2.683   2.238  15.761  0.1652 -0.3039  0.6063
 6962TIP3    H142301   2.765   2.275  15.792 -1.1025  2.5088  0.7516
 6962TIP3    H242302   2.617   2.272  15.822 -1.2204 -1.8467  0.0027
 6963TIP3   OH242303   2.722   2.020  12.665  0.1731  0.0763  0.2919
 6963TIP3    H142304   2.732   1.992  12.756 -1.4637 -0.3470  0.3563
 6963TIP3    H242305   2.754   1.945  12.613  1.0050  0.2770  0.5180
 6964TIP3   OH242306   5.729   3.971   2.583  0.2563 -0.3458  0.0295
 6964TIP3    H142307   5.654   3.912   2.572 -0.7286  0.9784 -0.5043
 6964TIP3    H242308   5.761   3.985   2.494  0.7068 -0.3492  0.1922
 6965TIP3   OH242309   2.543   0.842  14.843  0.0611 -0.6030  0.0035
 6965TIP3    H142310   2.475   0.840  14.775 -0.1611 -0.0271  0.2079
 6965TIP3    H242311   2.539   0.931  14.878 -1.0765 -1.4409  2.0463
 6966TIP3   OH242312   2.177   5.110  14.550 -0.1867 -0.2475  0.3048
 6966TIP3    H142313   2.211   5.130  14.462  0.0269  0.9763  0.6563
 6966TIP3    H242314   2.114   5.180  14.568 -0.7922 -0.9147  0.8301
 6967TIP3   OH242315   5.619   4.386  12.784 -0.0632  0.5232  0.4496
 6967TIP3    H142316   5.609   4.477  12.756  0.4370  0.0231 -1.4143
 6967TIP3    H242317   5.530   4.358  12.805 -0.4224  1.0300 -0.3483
 6968TIP3   OH242318   5.038   6.787   1.551  0.4655 -0.2049  0.0654
 6968TIP3    H142319   5.002   6.698   1.552  0.6498 -0.3089 -1.4667
 6968TIP3    H242320   4.973   6.837   1.501  1.3220  0.0936 -0.7536
 6969TIP3   OH242321   3.517   5.790   4.263 -0.1639  0.6371 -0.6090
 6969TIP3    H142322   3.439   5.744   4.234 -0.4137  2.4778 -3.0813
 6969TIP3    H242323   3.588   5.726   4.256 -0.8621 -0.0047 -1.8635
 6970TIP3   OH242324   2.807   4.879  11.195  0.7420 -0.1055  0.2978
 6970TIP3    H142325   2.763   4.826  11.130 -0.3234  0.3077  0.6769
 6970TIP3    H242326   2.850   4.815  11.253  2.2155 -0.4514 -1.1560
 6971TIP3   OH242327   3.867   3.345  11.474  0.1844 -0.1061  0.1047
 6971TIP3    H142328   3.776   3.354  11.504  0.3215 -0.7555  0.7301
 6971TIP3    H242329   3.886   3.428  11.429 -0.0694  0.8347  1.7053
 6972TIP3   OH242330   1.420   0.316   4.817 -0.1717 -0.0925 -0.6005
 6972TIP3    H142331   1.476   0.254   4.770  0.4511  1.7173 -2.2904
 6972TIP3    H242332   1.332   0.282   4.805  0.0844 -0.1936 -2.2312
 6973TIP3   OH242333   0.801   0.145   5.620 -0.1523  0.2241 -0.5065
 6973TIP3    H142334   0.774   0.179   5.706 -0.7076  0.2943 -0.7086
 6973TIP3    H242335   0.867   0.078   5.641  0.9976  1.4672 -0.1177
 6974TIP3   OH242336   4.265   3.936   2.190 -0.5768 -0.1870  0.0371
 6974TIP3    H142337   4.192   3.919   2.131 -0.8407  0.0983  0.2789
 6974TIP3    H242338   4.333   3.973   2.135 -0.8825  0.2316 -0.0606
 6975TIP3   OH242339   3.908   0.014   2.151  0.1177 -0.0144  0.2428
 6975TIP3    H142340   3.878  -0.027   2.070  0.0501  1.2927 -0.4175
 6975TIP3    H242341   3.849   0.088   2.164  1.6895  1.2958  0.0906
 6976TIP3   OH242342   1.726   0.426   0.654 -0.2418 -0.6953 -0.5090
 6976TIP3    H142343   1.760   0.499   0.705 -1.7723  0.2698 -0.8262
 6976TIP3    H242344   1.791   0.412   0.585 -0.3065  0.8877 -0.9079
 6977TIP3   OH242345   0.715   4.962  15.195  0.4766 -0.3413 -0.0539
 6977TIP3    H142346   0.772   4.946  15.120  0.3944 -1.3456  0.0957
 6977TIP3    H242347   0.773   4.956  15.271  0.7655  1.7065 -0.0878
 6978TIP3   OH242348   6.761   4.315   0.059 -0.1464  0.3339 -0.3061
 6978TIP3    H142349   6.833   4.253   0.044 -0.1825  0.8593 -2.9668
 6978TIP3    H242350   6.789   4.395   0.015 -2.7890  0.2310 -2.2974
 6979TIP3   OH242351   0.139   3.596   0.456 -0.4109 -0.1234  0.0057
 6979TIP3    H142352   0.113   3.505   0.448  1.2579 -0.7369  1.2926
 6979TIP3    H242353   0.183   3.616   0.373 -1.0492 -0.3909 -0.4000
 6980TIP3   OH242354   6.326   1.301  10.775  0.6329  0.0585 -0.1429
 6980TIP3    H142355   6.262   1.340  10.835  0.4206  1.4389 -1.2406
 6980TIP3    H242356   6.400   1.278  10.831  0.6021  1.6957  0.6103
 6981TIP3   OH242357   5.956   4.273   2.474  0.2126  0.5209  0.0630
 6981TIP3    H142358   5.969   4.367   2.463  2.7601 -0.2096 -4.1110
 6981TIP3    H242359   6.038   4.241   2.510 -0.5766 -0.1670  1.2942
 6982TIP3   OH242360   5.212   4.286   5.952  0.3160 -0.5092  0.0787
 6982TIP3    H142361   5.289   4.295   6.009  1.1486 -1.8163 -0.7955
 6982TIP3    H242362   5.249   4.264   5.866 -0.8644  2.1228 -1.1839
 6983TIP3   OH242363   5.965   2.560   3.327 -0.5009  0.5596 -0.3249
 6983TIP3    H142364   6.043   2.604   3.359 -0.3093 -1.1678  1.7072
 6983TIP3    H242365   5.899   2.577   3.395 -0.3200 -2.4952  0.6823
 6984TIP3   OH242366   0.932   2.770   1.886  0.0481 -0.4405 -0.1058
 6984TIP3    H142367   1.019   2.765   1.847  0.5755  0.6188  0.9075
 6984TIP3    H242368   0.923   2.688   1.934  1.0357  0.0192  0.8929
 6985TIP3   OH242369   3.226   1.788  13.026 -0.3929  0.1602  0.7476
 6985TIP3    H142370   3.279   1.711  13.007  1.2986  0.9860  1.9613
 6985TIP3    H242371   3.157   1.757  13.085 -0.3274 -0.6045  0.4220
 6986TIP3   OH242372   1.250   5.804  15.634 -0.3066  0.2230 -0.0216
 6986TIP3    H142373   1.256   5.712  15.609  0.3359  0.3715 -0.4479
 6986TIP3    H242374   1.309   5.812  15.710  0.0629  0.3907 -0.3222
 6987TIP3   OH242375   0.756   4.575   0.417 -0.0324  0.2168 -0.0790
 6987TIP3    H142376   0.709   4.658   0.408 -1.2724 -0.5906 -1.0051
 6987TIP3    H242377   0.810   4.569   0.338  0.1630  0.1953  0.0540
 6988TIP3   OH242378   3.175   2.099   3.531  0.3379  0.3268 -0.1124
 6988TIP3    H142379   3.196   2.120   3.622  0.5472  2.1573 -0.5618
 6988TIP3    H242380   3.256   2.062   3.496  0.4106  0.0893  0.3009
 6989TIP3   OH242381   0.619   4.609   2.235 -0.6538 -0.0587 -0.3321
 6989TIP3    H142382   0.665   4.527   2.255  0.0628  0.0459 -1.5436
 6989TIP3    H242383   0.687   4.676   2.235 -1.3393  0.6902  1.4023
 6990TIP3   OH242384   1.573   4.813   3.248 -0.1203  0.5573 -0.0041
 6990TIP3    H142385   1.667   4.796   3.245 -0.4894 -1.5089 -1.6720
 6990TIP3    H242386   1.565   4.908   3.241  1.7875  0.6179 -1.7729
 6991TIP3   OH242387   4.109   2.819   5.804  0.0865 -0.7277 -0.5134
 6991TIP3    H142388   4.171   2.746   5.817  0.9502 -0.1959 -1.5352
 6991TIP3    H242389   4.037   2.780   5.755  0.8194 -0.7824 -1.5743
 6992TIP3   OH242390   2.908   4.276  13.790  0.0033  0.6801  0.4685
 6992TIP3    H142391   2.955   4.199  13.822  0.0201  0.7331  0.5734
 6992TIP3    H242392   2.882   4.322  13.870 -0.7626  0.3223  0.4294
 6993TIP3   OH242393   0.868   3.044  14.118 -0.0736 -1.0277 -0.3016
 6993TIP3    H142394   0.823   3.006  14.043 -0.6903 -1.4372  0.2738
 6993TIP3    H242395   0.900   3.128  14.087 -0.8058 -0.9560 -0.8581
 6994TIP3   OH242396   5.588   3.120   5.394 -0.0833  0.4766  0.1058
 6994TIP3    H142397   5.563   3.063   5.467  0.3750 -0.8406 -0.7596
 6994TIP3    H242398   5.677   3.092   5.371  0.4896  2.1216  0.2335
 6995TIP3   OH242399   3.645   3.463   2.221  0.1262 -0.3853  0.6320
 6995TIP3    H142400   3.563   3.429   2.255 -0.0756  1.3302  1.9308
 6995TIP3    H242401   3.713   3.418   2.271 -0.0786 -0.3901  0.9068
 6996TIP3   OH242402   3.992   6.013  12.493 -0.4797  0.4268 -0.4542
 6996TIP3    H142403   3.921   5.959  12.458 -1.5015  1.2060  0.3650
 6996TIP3    H242404   4.032   6.052  12.415  0.4682 -1.7131 -1.0807
 6997TIP3   OH242405   5.543   2.845   4.649 -0.2708  0.3151 -0.6497
 6997TIP3    H142406   5.583   2.926   4.680 -0.1969  0.4058 -0.9753
 6997TIP3    H242407   5.618   2.790   4.625 -0.3182  0.1258 -0.3721
 6998TIP3   OH242408   2.370   5.940   1.062  0.0605  0.2901 -0.2545
 6998TIP3    H142409   2.372   6.021   1.113 -1.0408  0.0795  0.1437
 6998TIP3    H242410   2.391   5.967   0.973  0.7557  0.8495  0.0780
 6999TIP3   OH242411   5.558   2.718   2.029 -0.3620 -0.0347 -0.0682
 6999TIP3    H142412   5.644   2.743   2.063  1.5567 -3.3595 -2.2603
 6999TIP3    H242413   5.554   2.623   2.039 -2.8446 -0.1966 -2.0903
 7000TIP3   OH242414   1.465   0.272  12.481  0.1530 -0.2447 -0.1469
 7000TIP3    H142415   1.379   0.260  12.521  0.2680 -1.2516 -0.2043
 7000TIP3    H242416   1.452   0.253  12.388 -0.0002  1.5905 -0.5295
 7001TIP3   OH242417   1.722   2.684   4.034 -0.0727 -0.2617 -0.0933
 7001TIP3    H142418   1.677   2.767   4.050  1.8161  0.8960 -0.6608
 7001TIP3    H242419   1.766   2.697   3.950  0.8148 -1.5967  0.1576
 7002TIP3   OH242420   2.596   6.608   1.807 -0.4243 -0.0860 -0.2162
 7002TIP3    H142421   2.530   6.575   1.746  0.3514 -1.7334 -0.1857
 7002TIP3    H242422   2.559   6.589   1.894  0.0010 -0.8467 -0.1984
 7003TIP3   OH242423   4.583   1.152  13.788 -0.3716 -0.4063  0.3692
 7003TIP3    H142424   4.626   1.185  13.867 -1.0625 -0.5892  0.8353
 7003TIP3    H242425   4.642   1.086  13.754 -0.9365 -1.6904  1.8177
 7004TIP3   OH242426   4.133   1.081   0.778 -0.5170  0.0950  0.3146
 7004TIP3    H142427   4.090   0.995   0.772 -1.8778  0.7838 -0.1673
 7004TIP3    H242428   4.132   1.114   0.688 -0.1810  0.6910  0.5310
 7005TIP3   OH242429   0.682   2.408   0.811 -0.1526  0.7416 -0.0274
 7005TIP3    H142430   0.616   2.454   0.759  1.4039  1.3285 -1.5063
 7005TIP3    H242431   0.632   2.372   0.884 -2.1071  1.2652 -1.0445
 7006TIP3   OH242432   0.478   1.843   3.464  0.2262 -0.3297 -0.6242
 7006TIP3    H142433   0.567   1.812   3.480 -0.3950 -1.5301  0.7713
 7006TIP3    H242434   0.443   1.783   3.398 -0.2973 -1.3714  0.5652
 7007TIP3   OH242435   1.526   4.720  12.915 -0.2415  0.2287  0.1576
 7007TIP3    H142436   1.449   4.681  12.874 -1.6342  1.5549  1.4346
 7007TIP3    H242437   1.500   4.811  12.933  1.2687  0.4076  1.5265
 7008TIP3   OH242438   5.372   6.137  14.357  0.4975  0.0058  0.6010
 7008TIP3    H142439   5.415   6.221  14.340 -0.6159  0.8415  1.7976
 7008TIP3    H242440   5.413   6.104  14.436  1.6036 -1.0552 -0.4041
 7009TIP3   OH242441   6.447   4.144   4.040  0.1616 -0.1955  0.0209
 7009TIP3    H142442   6.445   4.220   4.098  0.9336 -0.1796  0.0306
 7009TIP3    H242443   6.539   4.121   4.034  0.0125 -0.6267 -0.6438
 7010TIP3   OH242444   3.187   3.122  16.390 -0.4255 -0.3168 -0.4079
 7010TIP3    H142445   3.163   3.177  16.315  0.3489 -1.8774 -1.8441
 7010TIP3    H242446   3.130   3.045  16.382  1.7567 -1.9079 -1.1789
 7011TIP3   OH242447   4.973   6.732  16.266  0.1325 -0.2382 -0.5738
 7011TIP3    H142448   5.006   6.798  16.205 -0.0242  2.4478  2.1219
 7011TIP3    H242449   4.878   6.738  16.258  0.1365 -0.9588 -1.1663
 7012TIP3   OH242450   3.582   4.331   2.808  0.7009  0.5708  0.2441
 7012TIP3    H142451   3.539   4.266   2.752 -0.5771  1.0746  0.6201
 7012TIP3    H242452   3.675   4.325   2.786  0.1334  1.2683 -2.4756
 7013TIP3   OH242453   5.222   1.151   2.656 -0.5818 -0.3010  0.2631
 7013TIP3    H142454   5.221   1.242   2.686 -1.9190 -0.0595 -0.4778
 7013TIP3    H242455   5.214   1.157   2.561 -1.8364 -1.2227  0.3019
 7014TIP3   OH242456   0.451   0.144  15.417  0.4005  0.2760  0.4806
 7014TIP3    H142457   0.450   0.232  15.454  0.8553 -0.1623  1.5702
 7014TIP3    H242458   0.365   0.108  15.438  0.4341  0.2443  0.5623
 7015TIP3   OH242459   1.424   1.295  17.058  0.0928 -0.0790  0.0397
 7015TIP3    H142460   1.489   1.311  16.989  0.7792  1.2973  0.9750
 7015TIP3    H242461   1.420   1.378  17.106 -0.4661 -0.9880  1.5810
 7016TIP3   OH242462   1.272   6.127  11.589  0.3127 -0.6423  0.6967
 7016TIP3    H142463   1.303   6.105  11.501  0.2862  0.3721  0.4292
 7016TIP3    H242464   1.249   6.219  11.583 -0.7275 -0.8556  1.4797
 7017TIP3   OH242465   0.347   1.036   0.705  0.1283  0.2066 -0.4483
 7017TIP3    H142466   0.424   0.983   0.686  1.0490  1.3213  0.1443
 7017TIP3    H242467   0.370   1.085   0.783 -1.8029 -0.6820  0.7296
 7018TIP3   OH242468   6.405   5.772   2.863  0.5919  0.5065  0.6527
 7018TIP3    H142469   6.364   5.687   2.847  0.0286  0.6652  1.2410
 7018TIP3    H242470   6.339   5.837   2.837  1.4747  0.7846 -0.9662
 7019TIP3   OH242471   0.413   3.293  11.814 -0.0303 -0.1815 -1.0859
 7019TIP3    H142472   0.471   3.352  11.863  1.1626 -2.3784  0.2476
 7019TIP3    H242473   0.472   3.228  11.776 -1.3428 -0.6380 -2.3885
 7020TIP3   OH242474   5.834   6.221   1.182 -0.3466  0.1425 -0.2680
 7020TIP3    H142475   5.828   6.297   1.124  1.1025 -0.1737 -0.8502
 7020TIP3    H242476   5.920   6.228   1.223  0.1835 -1.6471 -1.0023
 7021TIP3   OH242477   3.648   1.886   6.562  0.0009  0.4444 -0.2336
 7021TIP3    H142478   3.644   1.909   6.655  2.2143 -2.5498  0.6948
 7021TIP3    H242479   3.578   1.823   6.549  0.4754 -0.0827 -0.2756
 7022TIP3   OH242480   1.604   0.871   4.311 -0.1832 -0.2653 -0.1567
 7022TIP3    H142481   1.533   0.852   4.250  0.4584 -2.6434 -0.2126
 7022TIP3    H242482   1.583   0.820   4.390  2.1146 -2.1424 -0.6837
 7023TIP3   OH242483   2.809   1.570   0.895 -0.5639 -0.0779 -0.7125
 7023TIP3    H142484   2.835   1.548   0.984  2.6991  2.4200 -0.9522
 7023TIP3    H242485   2.751   1.646   0.904  1.4858  1.5220 -0.8038
 7024TIP3   OH242486   2.420   1.367  11.467  0.0614 -0.3959 -0.0649
 7024TIP3    H142487   2.480   1.399  11.534 -0.7717 -1.8828  1.4227
 7024TIP3    H242488   2.474   1.313  11.410  0.2828 -1.2415  0.9206
 7025TIP3   OH242489   2.905   2.294  12.050  0.1964 -1.1176 -0.4225
 7025TIP3    H142490   2.826   2.280  12.102  0.3213  1.1233  0.4421
 7025TIP3    H242491   2.963   2.221  12.074 -0.3167 -0.9386  1.5110
 7026TIP3   OH242492   2.964   6.303  14.963 -0.0251 -1.1274  0.9376
 7026TIP3    H142493   2.971   6.393  14.994 -1.4294 -0.8655  0.5315
 7026TIP3    H242494   2.948   6.311  14.869 -1.0883 -1.7565  1.0464
 7027TIP3   OH242495   0.719   1.742   3.319 -0.5891  0.5741  0.2863
 7027TIP3    H142496   0.761   1.766   3.402 -0.9533  1.2978  0.2584
 7027TIP3    H242497   0.740   1.649   3.308  1.8875  1.1515 -0.2267
 7028TIP3   OH242498   6.609   3.276   2.481 -0.1273 -0.1092 -0.0588
 7028TIP3    H142499   6.550   3.350   2.468 -0.3880 -0.2221  0.4333
 7028TIP3    H242500   6.620   3.271   2.576  1.3709  0.4480 -0.1990
 7029TIP3   OH242501   6.078   4.305  12.362 -0.2788  0.1319 -0.5159
 7029TIP3    H142502   6.141   4.315  12.291 -0.2117  0.6854 -0.3822
 7029TIP3    H242503   6.001   4.265  12.320 -0.4367  0.9466 -1.0107
 7030TIP3   OH242504   5.295   0.796   2.438  0.1348 -0.4978  0.0833
 7030TIP3    H142505   5.271   0.764   2.525  0.8877  0.9215  0.8347
 7030TIP3    H242506   5.271   0.725   2.378 -1.6872 -0.9285  1.2888
 7031TIP3   OH242507   5.998   5.151  10.526 -0.6981  0.0598 -0.1986
 7031TIP3    H142508   6.088   5.160  10.556 -0.6205 -1.5967  0.0985
 7031TIP3    H242509   5.946   5.198  10.592 -0.1494  0.0770  0.2266
 7032TIP3   OH242510   0.677   5.704   5.872  0.3236  0.1725  0.0822
 7032TIP3    H142511   0.595   5.663   5.900 -1.5514  3.4735 -0.3014
 7032TIP3    H242512   0.729   5.632   5.836 -3.7074 -1.5351 -2.7464
 7033TIP3   OH242513   3.727   2.298   0.438  0.2414 -0.2491  0.0473
 7033TIP3    H142514   3.769   2.312   0.523 -0.0100  2.8690 -0.2697
 7033TIP3    H242515   3.792   2.326   0.374 -0.2986 -0.6868 -0.6970
 7034TIP3   OH242516   6.626   4.602   4.203 -0.1329 -0.2181  0.1708
 7034TIP3    H142517   6.636   4.678   4.260  0.0429 -1.8441  2.3661
 7034TIP3    H242518   6.684   4.535   4.240 -1.1442 -1.8107 -1.0202
 7035TIP3   OH242519   1.474   2.419   4.743  0.3260 -0.2916 -0.1755
 7035TIP3    H142520   1.397   2.362   4.739  0.2482 -0.0591 -2.2066
 7035TIP3    H242521   1.523   2.387   4.819  0.9172 -3.9179 -1.9874
 7036TIP3   OH242522   1.798   1.096   3.208 -0.1458 -0.5233  0.1022
 7036TIP3    H142523   1.759   1.101   3.120 -0.2285 -0.8038  0.1238
 7036TIP3    H242524   1.724   1.105   3.268 -0.1756 -1.0419  0.1432
 7037TIP3   OH242525   1.881   5.429  15.083 -0.4210  0.5787 -0.5475
 7037TIP3    H142526   1.906   5.414  15.174 -2.1229 -0.6497 -0.2597
 7037TIP3    H242527   1.805   5.487  15.087  0.5541  1.9571 -1.2876
 7038TIP3   OH242528   4.956   1.530  12.630 -0.6709 -0.4213  0.5369
 7038TIP3    H142529   4.877   1.506  12.581 -1.3693  0.3811  1.2566
 7038TIP3    H242530   4.941   1.496  12.718 -0.1884 -0.3069  0.6637
 7039TIP3   OH242531   2.897   3.813  13.984  0.4340 -0.3167 -0.1783
 7039TIP3    H142532   2.953   3.789  13.910  2.2032  3.0113 -0.0266
 7039TIP3    H242533   2.955   3.806  14.060 -0.7777 -1.6334  0.6435
 7040TIP3   OH242534   0.058   4.935  11.042 -0.0640  0.2049 -0.0732
 7040TIP3    H142535   0.043   4.982  11.124 -1.0798  1.0976 -0.7577
 7040TIP3    H242536   0.011   4.986  10.977  0.8534 -0.4223 -1.2401
 7041TIP3   OH242537   2.661   4.298   5.214 -0.1170  0.0201 -0.3440
 7041TIP3    H142538   2.687   4.250   5.135  1.2490  0.2201 -0.0306
 7041TIP3    H242539   2.568   4.314   5.203  0.5046  2.2208 -3.1260
 7042TIP3   OH242540   5.531   2.660   3.638 -0.5359 -0.1764  0.2532
 7042TIP3    H142541   5.538   2.755   3.643  1.1848 -0.2823  0.2234
 7042TIP3    H242542   5.457   2.645   3.580  0.1739  1.1582 -1.0379
 7043TIP3   OH242543   4.075   4.829   6.185  0.1988 -0.2192  0.0181
 7043TIP3    H142544   4.131   4.824   6.262 -1.7341 -0.9532  1.4406
 7043TIP3    H242545   4.133   4.856   6.114  1.9676  0.8178  1.7952
 7044TIP3   OH242546   1.805   3.840   1.116 -0.2612  1.5103  0.0784
 7044TIP3    H142547   1.735   3.816   1.177 -1.0204  2.3806 -0.4317
 7044TIP3    H242548   1.874   3.776   1.132 -1.9590 -0.5895 -0.8026
 7045TIP3   OH242549   4.450   1.183  14.045 -0.1702 -0.5166 -0.5254
 7045TIP3    H142550   4.474   1.158  14.134 -0.0272 -2.0413 -0.9863
 7045TIP3    H242551   4.394   1.260  14.056  0.4202 -0.2653  0.8368
 7046TIP3   OH242552   6.475   6.466  14.995 -0.8357  0.8964 -0.3400
 7046TIP3    H142553   6.518   6.420  14.922 -0.5493  1.7569 -0.7160
 7046TIP3    H242554   6.501   6.416  15.073  0.1187  0.8868 -0.6569
 7047TIP3   OH242555   4.516   6.546   5.451 -0.5514  0.2564  0.2696
 7047TIP3    H142556   4.517   6.632   5.494  0.9840 -0.3109  1.4171
 7047TIP3    H242557   4.579   6.554   5.379 -0.0084 -0.0584  0.7051
 7048TIP3   OH242558   6.678   4.575  15.178  0.9409 -0.8740  0.7453
 7048TIP3    H142559   6.693   4.639  15.247 -0.0730 -1.3999  1.4744
 7048TIP3    H242560   6.725   4.497  15.207 -0.7592 -1.6037  1.6428
 7049TIP3   OH242561   5.721   4.807  10.918 -0.2031  0.1044  0.3501
 7049TIP3    H142562   5.812   4.812  10.946  0.5125 -0.0125 -1.9086
 7049TIP3    H242563   5.695   4.716  10.935 -0.1931  0.3518  1.7877
 7050TIP3   OH242564   5.365   3.710  16.798 -0.3171  0.8484  0.3307
 7050TIP3    H142565   5.456   3.681  16.790 -0.6851  0.0631 -1.4091
 7050TIP3    H242566   5.322   3.641  16.849  0.1756  1.5093  1.6510
 7051TIP3   OH242567   3.895   5.251  12.387  0.0386  0.2006  0.1082
 7051TIP3    H142568   3.905   5.254  12.292 -1.8300  1.5261 -0.0751
 7051TIP3    H242569   3.940   5.329  12.418  0.9566 -0.4204  0.3541
 7052TIP3   OH242570   2.044   4.311  16.293  0.8018  0.2400 -0.0375
 7052TIP3    H142571   2.110   4.260  16.247 -1.2457 -0.5212 -2.1887
 7052TIP3    H242572   2.002   4.248  16.352 -0.0907 -0.0109 -0.9329
 7053TIP3   OH242573   5.906   0.017  13.895 -0.4538  0.1483 -0.3725
 7053TIP3    H142574   5.892   0.107  13.925 -0.3526  0.2815 -0.7171
 7053TIP3    H242575   5.817  -0.018  13.882 -0.5496 -0.6287  2.1375
 7054TIP3   OH242576   4.024   2.186  13.007 -0.3633  0.3590 -0.5498
 7054TIP3    H142577   3.956   2.250  12.989  0.1193  0.7285 -1.0999
 7054TIP3    H242578   4.105   2.237  13.008 -0.0990 -0.0649  0.1458
 7055TIP3   OH242579   3.063   1.901   1.948  0.0602 -0.2118 -0.2785
 7055TIP3    H142580   3.099   1.814   1.936  0.0297 -0.6942  2.8086
 7055TIP3    H242581   2.987   1.888   2.005 -0.3095  1.7666 -0.2782
 7056TIP3   OH242582   3.187   0.769  17.119  0.0395 -0.0076  0.7617
 7056TIP3    H142583   3.163   0.814  17.200 -0.4424  0.6928  0.2325
 7056TIP3    H242584   3.153   0.825  17.049  3.2395  1.0877 -0.0316
 7057TIP3   OH242585   0.994   3.491  16.119 -0.2735  0.2778  0.6252
 7057TIP3    H142586   0.904   3.503  16.150  0.1783  1.3475  1.5838
 7057TIP3    H242587   1.036   3.438  16.186 -0.4140 -0.9354 -0.2381
 7058TIP3   OH242588   1.748   1.732   5.852  0.6470  0.4919  0.0158
 7058TIP3    H142589   1.812   1.750   5.922  2.6754 -1.0218 -1.3964
 7058TIP3    H242590   1.765   1.641   5.827 -1.5621  0.3213 -0.9472
 7059TIP3   OH242591   0.463   6.423  13.880  0.1680  0.3658 -0.0598
 7059TIP3    H142592   0.533   6.480  13.912  0.6214  1.5305 -2.9269
 7059TIP3    H242593   0.482   6.411  13.787 -1.8081 -1.7465 -0.2465
 7060TIP3   OH242594   1.244   1.826  10.856  0.1473 -0.2435 -0.4997
 7060TIP3    H142595   1.226   1.762  10.787  0.3076  0.0727 -0.8377
 7060TIP3    H242596   1.258   1.908  10.809  0.6270 -0.1047 -0.1126
 7061TIP3   OH242597   2.065   1.887  11.083 -0.7477  0.3476 -0.7256
 7061TIP3    H142598   2.128   1.851  11.021 -1.0618 -1.2936 -0.1220
 7061TIP3    H242599   2.115   1.952  11.134  0.4063 -0.8257 -0.3499
 7062TIP3   OH242600   1.819   4.369   2.557  0.0536  0.1400  0.2753
 7062TIP3    H142601   1.749   4.367   2.621 -0.0960 -1.3926  0.0686
 7062TIP3    H242602   1.864   4.285   2.567  1.0618  0.5797 -0.4661
 7063TIP3   OH242603   1.914   5.133   3.587 -0.2137  0.0113  0.4477
 7063TIP3    H142604   1.866   5.208   3.553 -1.8906 -1.5258 -0.6443
 7063TIP3    H242605   2.006   5.157   3.574 -0.6261  2.9011  2.4096
 7064TIP3   OH242606   4.698   4.222  14.187 -0.6945 -0.6657  0.6090
 7064TIP3    H142607   4.625   4.172  14.222 -1.7515  0.0310 -0.5695
 7064TIP3    H242608   4.660   4.304  14.157  0.8470  0.4218  1.5146
 7065TIP3   OH242609   2.240   1.665  14.457 -0.4422  0.5719  0.4861
 7065TIP3    H142610   2.239   1.640  14.550  0.3035 -1.5182 -0.0486
 7065TIP3    H242611   2.162   1.623  14.420 -0.7152  1.3702  0.1489
 7066TIP3   OH242612   4.734   3.538   4.191 -0.0668 -0.2534  0.3605
 7066TIP3    H142613   4.720   3.600   4.262  1.3713  2.2026 -1.4144
 7066TIP3    H242614   4.693   3.580   4.115  2.3729 -0.7044 -1.2408
 7067TIP3   OH242615   6.164   2.156   3.895  0.0956  0.3345 -0.0726
 7067TIP3    H142616   6.152   2.196   3.809 -1.0139 -1.1724 -0.6367
 7067TIP3    H242617   6.175   2.063   3.876 -1.2684 -0.1641  1.4843
 7068TIP3   OH242618   1.287   4.155  15.056  0.2679  0.0084  0.1801
 7068TIP3    H142619   1.255   4.105  14.981  0.8407 -0.4643  0.2472
 7068TIP3    H242620   1.233   4.235  15.057 -0.5468 -0.5359 -0.0130
 7069TIP3   OH242621   4.211   4.830   4.658 -0.0627  0.3436 -0.0849
 7069TIP3    H142622   4.306   4.840   4.661  0.0273 -0.5911  3.2629
 7069TIP3    H242623   4.180   4.903   4.606  2.4365  1.3018 -0.2764
 7070TIP3   OH242624   4.569   0.079  15.993  0.3156 -0.1166 -0.6799
 7070TIP3    H142625   4.490   0.030  15.972  0.3312 -0.8914  0.9691
 7070TIP3    H242626   4.618   0.082  15.911 -0.1936 -1.9510 -1.0866
 7071TIP3   OH242627   5.773   1.144   5.186  0.2211  0.4119  0.3413
 7071TIP3    H142628   5.835   1.145   5.113 -0.7247 -1.7269 -0.5143
 7071TIP3    H242629   5.798   1.068   5.238 -2.2322 -1.0021 -0.5076
 7072TIP3   OH242630   3.396   3.545   5.846  0.1440  0.3158  0.1648
 7072TIP3    H142631   3.408   3.499   5.929  0.5129  0.0705 -0.0238
 7072TIP3    H242632   3.308   3.522   5.818  1.1355 -2.0861 -1.0576
 7073TIP3   OH242633   4.752   0.940  10.897 -0.1521 -0.0346  0.0270
 7073TIP3    H142634   4.701   0.891  10.961 -0.9373 -1.5772 -1.7269
 7073TIP3    H242635   4.818   0.878  10.867 -0.7671  0.1429 -1.7543
 7074TIP3   OH242636   4.829   4.698   3.920 -0.0465  0.3221 -0.0050
 7074TIP3    H142637   4.751   4.679   3.868 -1.5670  0.9620  1.9673
 7074TIP3    H242638   4.856   4.614   3.955 -0.9165  0.3421  0.7343
 7075TIP3   OH242639   4.576   6.212  12.818  0.0755 -0.2253 -0.0389
 7075TIP3    H142640   4.536   6.278  12.875  0.3672 -0.4483  0.4263
 7075TIP3    H242641   4.575   6.252  12.731  0.2046  0.3712  0.2317
 7076TIP3   OH242642   5.222   1.003  10.459 -0.6901 -0.2363  0.2919
 7076TIP3    H142643   5.143   1.023  10.511 -1.2063  0.3034 -0.6879
 7076TIP3    H242644   5.214   0.910  10.439 -0.4961 -0.4462  1.1613
 7077TIP3   OH242645   5.407   3.034  14.407  0.0360  1.0068 -0.2013
 7077TIP3    H142646   5.394   2.991  14.323 -0.3852 -0.2192  0.4834
 7077TIP3    H242647   5.446   2.967  14.463 -0.7792  1.4667  0.9281
 7078TIP3   OH242648   2.841   1.140   4.697  0.1873 -0.0870  0.2491
 7078TIP3    H142649   2.798   1.083   4.761  0.0285 -0.1363  0.0974
 7078TIP3    H242650   2.799   1.225   4.709  0.8241  0.1496  0.8792
 7079TIP3   OH242651   1.912   3.130   2.494 -0.5014  0.3632  0.4183
 7079TIP3    H142652   1.869   3.215   2.486  1.0242  1.1606  0.5317
 7079TIP3    H242653   1.978   3.130   2.424 -0.1311 -0.5015  0.7686
 7080TIP3   OH242654   4.899   1.033  10.232  0.2283 -0.1230  0.2931
 7080TIP3    H142655   4.963   0.973  10.194 -0.1548 -1.3853  1.5906
 7080TIP3    H242656   4.885   1.000  10.320  0.1313  1.9986  1.0952
 7081TIP3   OH242657   1.988   6.518  10.841  0.1577 -0.0048 -0.7163
 7081TIP3    H142658   2.057   6.461  10.809  0.8194  0.8982 -0.9215
 7081TIP3    H242659   1.956   6.475  10.920  1.6784  0.0901 -0.0306
 7082TIP3   OH242660   2.382   0.743  14.626 -0.3222  0.2132 -0.3620
 7082TIP3    H142661   2.400   0.748  14.533 -1.0059 -0.5577 -0.5451
 7082TIP3    H242662   2.394   0.650  14.648 -1.9883  0.0500 -0.0828
 7083TIP3   OH242663   4.115   2.543  11.130  0.8698 -0.8417 -0.4065
 7083TIP3    H142664   4.138   2.538  11.037  0.4110 -0.6031 -0.5370
 7083TIP3    H242665   4.160   2.469  11.170  0.3020 -1.5133 -0.9829
 7084TIP3   OH242666   1.489   2.126   3.880  0.4599 -0.2299  0.8440
 7084TIP3    H142667   1.500   2.099   3.971  2.4428 -0.1749  0.6453
 7084TIP3    H242668   1.578   2.131   3.846 -0.3288 -1.7560 -1.5406
 7085TIP3   OH242669   3.472   3.016   3.544  0.0116  0.3628 -0.1499
 7085TIP3    H142670   3.436   3.012   3.632 -1.3050  1.3236 -0.6251
 7085TIP3    H242671   3.511   2.929   3.530 -1.8906 -0.6216  0.4898
 7086TIP3   OH242672   5.771   5.645   4.453 -0.5518 -0.7897 -0.5900
 7086TIP3    H142673   5.832   5.621   4.522  0.1551 -0.0331 -0.9517
 7086TIP3    H242674   5.805   5.603   4.374  0.1064  0.5255 -1.0125
 7087TIP3   OH242675   3.417   4.909  11.474 -0.0184 -0.2760 -0.3127
 7087TIP3    H142676   3.442   4.904  11.566 -0.2652  1.7664 -0.1181
 7087TIP3    H242677   3.500   4.911  11.427  0.1094 -1.4542 -0.1669
 7088TIP3   OH242678   2.232   4.403  10.433 -0.0059 -0.1136  0.4356
 7088TIP3    H142679   2.289   4.327  10.420 -0.5533 -0.3129 -0.8363
 7088TIP3    H242680   2.176   4.379  10.506  0.0273 -0.8045  0.2318
 7089TIP3   OH242681   0.356   2.660  15.154 -0.7255  0.4769  0.3394
 7089TIP3    H142682   0.283   2.654  15.215 -0.0919  1.9388  1.2642
 7089TIP3    H242683   0.335   2.596  15.085 -0.6482 -2.4298  2.9189
 7090TIP3   OH242684   5.421   5.589  11.208  0.4373  0.1276 -0.8186
 7090TIP3    H142685   5.455   5.558  11.292 -1.4220  0.0367 -0.0678
 7090TIP3    H242686   5.472   5.667  11.189 -0.3242  1.1910  1.3072
 7091TIP3   OH242687   2.265   6.749   3.688 -0.4672  0.5777  0.1512
 7091TIP3    H142688   2.238   6.838   3.663  0.6434  0.0484 -3.2198
 7091TIP3    H242689   2.191   6.694   3.664 -0.4001  0.3787  0.4088
 7092TIP3   OH242690   3.516   6.159   3.154  0.1627 -0.3824 -0.2331
 7092TIP3    H142691   3.603   6.126   3.132  1.1512  0.4401  2.2990
 7092TIP3    H242692   3.503   6.134   3.245 -1.3748  1.3899  0.0670
 7093TIP3   OH242693   6.725   2.259   0.075  0.3078  0.2080 -0.2996
 7093TIP3    H142694   6.660   2.302   0.131 -1.1503  1.7063 -3.0109
 7093TIP3    H242695   6.798   2.321   0.072  0.1300  0.4124 -0.4984
 7094TIP3   OH242696   3.051   5.914   4.280  0.4187  0.3613 -0.1751
 7094TIP3    H142697   3.087   5.876   4.200  0.0480  1.3831 -0.8528
 7094TIP3    H242698   3.122   5.966   4.316  0.3222  0.5912 -0.3126
 7095TIP3   OH242699   6.583   0.336  16.285 -0.2115  0.4481 -0.0283
 7095TIP3    H142700   6.624   0.278  16.349 -0.6332 -0.0549 -0.2114
 7095TIP3    H242701   6.499   0.294  16.265 -0.3160  0.8792 -0.5107
 7096TIP3   OH242702   0.010   6.275   2.490  0.1704  0.6145 -0.2478
 7096TIP3    H142703  -0.057   6.302   2.427  1.9034  1.3029 -1.8328
 7096TIP3    H242704  -0.002   6.180   2.499 -1.0863  0.7504 -0.4152
 7097TIP3   OH242705   1.788   3.725  16.169 -0.5821  0.2512  0.1341
 7097TIP3    H142706   1.849   3.743  16.241  0.1036  0.8711 -0.5949
 7097TIP3    H242707   1.775   3.811  16.128 -1.1631 -0.0624 -0.3338
 7098TIP3   OH242708   5.477   1.453  11.510  0.7168  0.1359 -0.4658
 7098TIP3    H142709   5.554   1.502  11.482 -0.6120  1.5223 -1.7622
 7098TIP3    H242710   5.407   1.483  11.453 -0.7539 -1.2745  0.5443
 7099TIP3   OH242711   0.613   5.325  15.493  0.2106  0.1787 -0.2489
 7099TIP3    H142712   0.534   5.347  15.444  0.3797  1.0768 -0.1162
 7099TIP3    H242713   0.675   5.295  15.426  0.5038  1.5734 -0.6093
 7100TIP3   OH242714   1.198   6.603   0.613 -0.7263  0.2751  0.5592
 7100TIP3    H142715   1.269   6.540   0.626 -1.3801 -0.8046 -0.9181
 7100TIP3    H242716   1.118   6.552   0.628 -1.2181  1.1135  0.7937
 7101TIP3   OH242717   4.842   3.408   0.920 -0.3508  0.1002  0.2873
 7101TIP3    H142718   4.863   3.485   0.867  1.2291 -0.2744  0.3407
 7101TIP3    H242719   4.765   3.370   0.878 -0.7474  1.3352 -0.1272
 7102TIP3   OH242720   5.343   2.584   1.742 -0.5199 -0.4672  0.1968
 7102TIP3    H142721   5.323   2.629   1.660  0.9596  2.3100  1.3023
 7102TIP3    H242722   5.293   2.632   1.808  1.5801 -0.0157  1.5008
 7103TIP3   OH242723   6.093   6.289  12.406 -0.0017 -0.3415  0.2017
 7103TIP3    H142724   6.161   6.330  12.353 -0.3517  1.0389  0.7973
 7103TIP3    H242725   6.037   6.362  12.433 -1.3803 -1.3909  0.1977
 7104TIP3   OH242726   6.094   3.320  17.137  0.3526 -0.3063 -0.2008
 7104TIP3    H142727   6.028   3.282  17.195  0.7409  0.0261  0.4528
 7104TIP3    H242728   6.065   3.410  17.125  0.4776 -0.2711 -0.2349
 7105TIP3   OH242729   1.920   3.649  17.085  0.1821  0.3507 -0.2837
 7105TIP3    H142730   1.865   3.617  17.013  1.1625 -1.1419 -0.4014
 7105TIP3    H242731   1.954   3.733  17.054 -0.1437  0.1607 -1.1744
 7106TIP3   OH242732   5.467   5.090  16.065 -0.0057  0.0863  0.4200
 7106TIP3    H142733   5.501   5.113  15.979  0.0395  1.2731  0.7507
 7106TIP3    H242734   5.434   5.172  16.101 -1.2315 -0.6427  0.9986
 7107TIP3   OH242735   4.236   6.256  16.502  0.3797  0.2359 -0.9450
 7107TIP3    H142736   4.256   6.248  16.409  1.5805  1.9076 -0.8554
 7107TIP3    H242737   4.282   6.335  16.530 -0.5940  0.1799  0.9028
 7108TIP3   OH242738   3.374   0.720  13.396 -0.3555  0.0737 -0.4466
 7108TIP3    H142739   3.366   0.637  13.349 -2.5781  0.0053 -0.0102
 7108TIP3    H242740   3.286   0.757  13.395  0.7260  2.7788 -1.2188
 7109TIP3   OH242741   0.944   4.659   1.957 -0.8223  0.1606  0.1861
 7109TIP3    H142742   0.865   4.622   1.919 -0.3420  0.4209 -1.0785
 7109TIP3    H242743   1.014   4.635   1.896  0.1951 -0.6460  1.6281
 7110TIP3   OH242744   0.696   0.685   0.035  0.3011 -0.5609  0.4246
 7110TIP3    H142745   0.769   0.663   0.094  0.1633 -0.2277  0.7177
 7110TIP3    H242746   0.724   0.765  -0.008 -0.5722  0.4600  1.7092
 7111TIP3   OH242747   2.781   5.655   3.533  0.1204 -0.2829  0.1099
 7111TIP3    H142748   2.856   5.634   3.588  0.4865 -0.3992 -0.4312
 7111TIP3    H242749   2.810   5.728   3.479 -0.2882 -0.0718  0.1711
 7112TIP3   OH242750   1.811   0.231   4.467 -0.0750  0.2438  0.3369
 7112TIP3    H142751   1.831   0.139   4.486  1.2388  0.2784 -0.8717
 7112TIP3    H242752   1.762   0.229   4.385  1.2108  0.7409 -0.4448
 7113TIP3   OH242753   2.340   4.002  14.493  0.6195  0.3590 -0.3911
 7113TIP3    H142754   2.290   4.063  14.547  0.4726  0.2534 -0.4070
 7113TIP3    H242755   2.375   4.056  14.423 -0.3218  0.2570 -0.9535
 7114TIP3   OH242756   5.695   4.634   0.822  0.0684  0.4292 -0.0434
 7114TIP3    H142757   5.662   4.554   0.863 -1.1894  0.4502 -1.0101
 7114TIP3    H242758   5.759   4.668   0.885 -2.1118  0.6888  2.0981
 7115TIP3   OH242759   2.156   4.081   5.872 -0.1031 -0.0255  0.3550
 7115TIP3    H142760   2.082   4.141   5.871 -1.6903 -1.9505  0.6908
 7115TIP3    H242761   2.200   4.097   5.956 -2.6531 -1.8654  2.0943
 7116TIP3   OH242762   2.119   4.157  13.803  0.1306  0.1166 -0.1367
 7116TIP3    H142763   2.088   4.190  13.719 -0.2027 -1.1647 -0.5365
 7116TIP3    H242764   2.214   4.169  13.800  0.0515  0.6567 -0.4375
 7117TIP3   OH242765   4.882   1.181  10.816 -0.3269  0.5759 -0.0687
 7117TIP3    H142766   4.925   1.212  10.896 -2.4030  2.3124  0.4333
 7117TIP3    H242767   4.850   1.094  10.838  1.2298  0.0560  0.1785
 7118TIP3   OH242768   5.639   1.880  12.154  0.1786  1.2689 -0.1418
 7118TIP3    H142769   5.545   1.898  12.155 -0.4276 -1.6690  1.1218
 7118TIP3    H242770   5.665   1.895  12.063 -2.7708 -3.5421 -1.9805
 7119TIP3   OH242771   0.426   1.413   4.923  0.6233  0.1518 -0.4366
 7119TIP3    H142772   0.360   1.473   4.887 -0.0477 -0.2478  0.1241
 7119TIP3    H242773   0.456   1.363   4.847  0.8201  0.8467 -0.8237
 7120TIP3   OH242774   4.846   5.921   0.925  0.1408 -0.3201  0.2008
 7120TIP3    H142775   4.893   5.955   1.001  0.6679  2.3319 -1.2357
 7120TIP3    H242776   4.908   5.860   0.884  0.5040 -0.4475  0.9284
 7121TIP3   OH242777   2.512   0.839  15.561 -0.0920 -0.2230  0.0289
 7121TIP3    H142778   2.482   0.815  15.474  2.3637 -0.3780 -0.7899
 7121TIP3    H242779   2.518   0.934  15.559 -2.0821 -0.0588  0.7331
 7122TIP3   OH242780   3.975   1.054  14.004 -0.0553 -0.6333  0.3158
 7122TIP3    H142781   4.045   1.086  13.947 -1.7437  1.3968 -0.6613
 7122TIP3    H242782   3.980   1.110  14.082 -1.5098  0.5211 -0.3936
 7123TIP3   OH242783   4.041   6.412  13.226  0.2107  0.3486  1.2243
 7123TIP3    H142784   4.063   6.500  13.196 -0.4598  0.3154  0.6115
 7123TIP3    H242785   3.962   6.424  13.279  0.3885  0.1794  1.5260
 7124TIP3   OH242786   2.415   2.740   2.048 -0.0389 -0.1751  0.3929
 7124TIP3    H142787   2.450   2.819   2.007 -0.9185  1.0729  2.0402
 7124TIP3    H242788   2.491   2.701   2.093  0.7153 -1.0555 -1.5547
 7125TIP3   OH242789   2.441   1.801   6.155 -0.4104 -0.7854  0.6067
 7125TIP3    H142790   2.362   1.816   6.208 -0.0236  2.0731  0.4109
 7125TIP3    H242791   2.500   1.754   6.214 -1.2851 -0.6682  1.5872
 7126TIP3   OH242792   0.731   6.396   2.359  0.5808 -0.1726 -0.4311
 7126TIP3    H142793   0.739   6.409   2.453 -2.9622  2.4829 -0.4145
 7126TIP3    H242794   0.734   6.301   2.348 -0.8522 -0.6248  2.5567
 7127TIP3   OH242795   0.510   4.113  13.639 -0.4726 -0.7729  0.4528
 7127TIP3    H142796   0.535   4.204  13.623 -1.0128 -0.6999  0.0224
 7127TIP3    H242797   0.586   4.074  13.682  0.1848 -0.4163 -0.3762
 7128TIP3   OH242798   3.922   1.124   3.267 -0.0076 -0.6907 -0.6512
 7128TIP3    H142799   3.912   1.098   3.175  0.4151 -0.4263 -0.7731
 7128TIP3    H242800   3.837   1.106   3.307 -0.7974  0.9812 -1.5290
 7129TIP3   OH242801   3.948   1.123  11.206 -0.5802 -0.0579  0.1359
 7129TIP3    H142802   3.927   1.098  11.116 -1.7228 -1.0919  0.6656
 7129TIP3    H242803   4.021   1.067  11.230  0.8800  1.4552 -0.7232
 7130TIP3   OH242804   5.717   2.967  17.067 -0.4542 -0.0667  0.4732
 7130TIP3    H142805   5.657   2.954  17.140  0.3398 -2.9376  0.6910
 7130TIP3    H242806   5.794   2.914  17.089  0.6133  0.5991 -1.5211
 7131TIP3   OH242807   4.754   3.615   2.260  0.2215  0.0559 -0.4211
 7131TIP3    H142808   4.731   3.703   2.233 -0.2380 -0.5509 -2.1039
 7131TIP3    H242809   4.709   3.602   2.343 -1.0145  0.8328 -0.9683
 7132TIP3   OH242810   3.861   0.833   2.191 -0.0942 -0.7432 -0.5836
 7132TIP3    H142811   3.826   0.827   2.279 -1.3017 -1.9866 -1.1199
 7132TIP3    H242812   3.907   0.750   2.177  2.9088  0.7326  0.0009
 7133TIP3   OH242813   1.258   4.965   2.087  0.0629 -0.4528  0.2878
 7133TIP3    H142814   1.188   4.923   2.138 -0.5545 -0.8321 -0.8688
 7133TIP3    H242815   1.227   5.054   2.073 -0.1672 -0.6042 -0.1748
 7134TIP3   OH242816   2.067   3.106  14.665  0.6568 -0.8144 -0.1286
 7134TIP3    H142817   1.988   3.057  14.645  0.0267 -0.2662  0.9916
 7134TIP3    H242818   2.119   3.047  14.719  0.2422 -0.5517  0.5687
 7135TIP3   OH242819   4.246   5.898   6.420 -0.6776  0.4346 -0.9412
 7135TIP3    H142820   4.195   5.936   6.492 -0.9955  1.2921 -1.6198
 7135TIP3    H242821   4.235   5.959   6.348  1.0023  0.4244 -1.2191
 7136TIP3   OH242822   0.155   6.399   5.101 -0.3201  0.0646  0.6039
 7136TIP3    H142823   0.063   6.375   5.101 -0.5120  0.7706  0.7168
 7136TIP3    H242824   0.181   6.397   5.009 -0.8067  1.1752  0.4354
 7137TIP3   OH242825   3.443   2.781  15.627 -0.3192  0.3924  0.4491
 7137TIP3    H142826   3.457   2.850  15.562  2.6661  1.5438  2.1931
 7137TIP3    H242827   3.453   2.826  15.711 -1.4581 -1.5809  1.6752
 7138TIP3   OH242828   2.790   0.910  14.746 -0.7925  0.6561  0.2508
 7138TIP3    H142829   2.758   0.999  14.758 -2.3554  0.0318  0.7647
 7138TIP3    H242830   2.724   0.854  14.787 -1.0650 -0.9092 -2.2291
 7139TIP3   OH242831   4.084   6.618   3.499 -0.7665 -0.0536 -0.7565
 7139TIP3    H142832   4.091   6.648   3.590 -0.8183  0.3014 -0.8689
 7139TIP3    H242833   4.068   6.524   3.506  1.3642 -0.4225 -0.4232
 7140TIP3   OH242834   1.244   5.036  11.996  0.3776  0.5830 -0.9386
 7140TIP3    H142835   1.302   5.112  11.987  1.1904  0.3632  1.8896
 7140TIP3    H242836   1.290   4.978  12.056 -2.6150  0.2793  1.1853
 7141TIP3   OH242837   5.807   0.858  11.118 -0.4216 -0.6356 -0.4926
 7141TIP3    H142838   5.764   0.923  11.062  0.7166  1.3314  0.8538
 7141TIP3    H242839   5.899   0.883  11.118  0.0576 -2.3514 -0.0683
 7142TIP3   OH242840   0.657   0.603  11.146 -0.1476 -0.3466  0.2027
 7142TIP3    H142841   0.746   0.571  11.162  0.7046  1.5809 -0.4842
 7142TIP3    H242842   0.661   0.643  11.059 -1.1052  1.6350  1.0221
 7143TIP3   OH242843   6.353   3.073   0.268  0.2526 -0.2631 -0.5034
 7143TIP3    H142844   6.447   3.060   0.256  0.2623 -0.7809  0.1390
 7143TIP3    H242845   6.330   3.138   0.202  1.2579  0.6570  0.0366
 7144TIP3   OH242846   0.457   5.791  13.050  0.2662 -0.0803  0.2764
 7144TIP3    H142847   0.549   5.796  13.077  0.3226 -0.3379  0.1347
 7144TIP3    H242848   0.417   5.870  13.086  0.9387  0.9305 -1.1411
 7145TIP3   OH242849   3.359   1.617  16.425 -0.4096 -0.4330  0.4933
 7145TIP3    H142850   3.393   1.687  16.368 -2.0872  0.8169  1.0002
 7145TIP3    H242851   3.400   1.635  16.510 -0.9988  0.0817  0.6771
 7146TIP3   OH242852   1.502   6.399  10.485 -0.8238 -0.1901  0.0035
 7146TIP3    H142853   1.544   6.409  10.570 -1.5647 -1.3271  0.5136
 7146TIP3    H242854   1.532   6.474  10.434  0.7272 -0.2459  0.8049
 7147TIP3   OH242855   5.930   3.895  11.784 -0.3593 -0.0303  0.5393
 7147TIP3    H142856   5.917   3.880  11.690  3.3725  1.8017 -0.3469
 7147TIP3    H242857   5.859   3.955  11.808 -1.1210 -0.2026 -1.1956
 7148TIP3   OH242858   5.120   3.876  13.509  0.0754 -0.5507  0.9156
 7148TIP3    H142859   5.060   3.817  13.463  1.2123 -0.2531 -1.0149
 7148TIP3    H242860   5.066   3.951  13.533 -0.2103  0.0168 -1.3893
 7149TIP3   OH242861   3.062   6.145  16.645 -0.3416  0.5528  0.3663
 7149TIP3    H142862   3.068   6.237  16.669  0.2116  0.9267 -1.1588
 7149TIP3    H242863   3.042   6.146  16.551 -0.8946 -0.8751  0.4568
 7150TIP3   OH242864   4.728   1.730   4.228  0.3071  0.3551 -0.3981
 7150TIP3    H142865   4.762   1.780   4.154 -0.1375 -1.3026 -1.7335
 7150TIP3    H242866   4.770   1.645   4.222 -1.0299 -0.3764  0.2535
 7151TIP3   OH242867   1.410   6.130   1.217 -0.5093  0.4267  0.0408
 7151TIP3    H142868   1.379   6.167   1.135  0.7231  1.3094 -0.0345
 7151TIP3    H242869   1.340   6.147   1.279 -0.4334  1.8967 -0.2579
 7152TIP3   OH242870   1.833   1.495  12.579 -0.3652  0.1663 -0.1455
 7152TIP3    H142871   1.857   1.521  12.668 -0.6322  0.3749 -0.1350
 7152TIP3    H242872   1.746   1.457  12.587 -0.2924 -0.0324 -0.2800
 7153TIP3   OH242873   2.285   5.584  15.535  0.5308 -0.4558 -0.0034
 7153TIP3    H142874   2.338   5.508  15.511 -0.3564 -0.9123 -0.5412
 7153TIP3    H242875   2.196   5.550  15.543  0.3369  0.2707  1.0624
 7154TIP3   OH242876   0.415   4.113  12.932 -0.0928  0.1869 -0.2144
 7154TIP3    H142877   0.454   4.091  13.017 -0.7581  1.3930  0.4152
 7154TIP3    H242878   0.481   4.168  12.890  0.5121 -0.9347 -0.7606
 7155TIP3   OH242879   0.715   5.544   0.044 -0.2235 -0.3476  0.3953
 7155TIP3    H142880   0.703   5.449   0.050  0.6839 -0.4063  1.2095
 7155TIP3    H242881   0.723   5.560  -0.050 -1.7583 -0.8979  0.1388
 7156TIP3   OH242882   4.311   4.397  11.728  0.0366 -0.7572  0.0554
 7156TIP3    H142883   4.216   4.387  11.723 -0.0863  0.1393  0.4271
 7156TIP3    H242884   4.345   4.308  11.736 -0.7196 -1.1444 -0.9289
 7157TIP3   OH242885   2.618   5.893  13.107  0.3540  0.0322  0.0119
 7157TIP3    H142886   2.695   5.905  13.162  0.5060 -1.3925  0.1280
 7157TIP3    H242887   2.544   5.897  13.167  0.3194  1.5466 -0.1185
 7158TIP3   OH242888   6.462   6.055   2.353 -0.4234 -0.2890  0.0349
 7158TIP3    H142889   6.500   6.138   2.324  1.1437 -0.9803  0.0714
 7158TIP3    H242890   6.523   6.022   2.419 -0.9480 -1.5533 -0.0968
 7159TIP3   OH242891   5.766   5.739  17.147 -0.2386  0.2082 -0.1865
 7159TIP3    H142892   5.792   5.831  17.149  0.4008  0.0295  3.5462
 7159TIP3    H242893   5.673   5.740  17.168 -0.9103  0.1334 -2.9600
 7160TIP3   OH242894   2.667   4.933  14.234  0.1503 -0.1064 -0.1473
 7160TIP3    H142895   2.732   4.979  14.180 -0.6273  0.0529 -0.9770
 7160TIP3    H242896   2.665   4.845  14.198  0.0388 -0.1575 -0.0136
 7161TIP3   OH242897   5.852   0.653   5.769 -0.4028  0.6410  0.4809
 7161TIP3    H142898   5.847   0.582   5.833 -2.7096 -0.1573 -0.5070
 7161TIP3    H242899   5.792   0.626   5.699  0.2680  2.5981 -0.8914
 7162TIP3   OH242900   6.755   6.581   5.258 -0.0236 -0.0750  0.2953
 7162TIP3    H142901   6.782   6.489   5.256 -0.6127 -0.2496  0.4423
 7162TIP3    H242902   6.668   6.582   5.217  0.1432  0.4737 -0.0618
 7163TIP3   OH242903   0.857   5.059   4.822 -0.7710 -0.1146  0.5393
 7163TIP3    H142904   0.829   4.984   4.874 -0.1823 -0.7347 -0.0385
 7163TIP3    H242905   0.909   5.022   4.751 -1.4250  0.7392 -0.4123
 7164TIP3   OH242906   0.193   0.104  14.086 -0.5180  0.3313  0.3805
 7164TIP3    H142907   0.183   0.158  14.164  1.4050  1.3129 -0.0369
 7164TIP3    H242908   0.143   0.149  14.018 -1.4276 -0.0445  0.7804
 7165TIP3   OH242909   6.352   2.547  11.603 -0.5824  0.0860  0.1661
 7165TIP3    H142910   6.408   2.603  11.549 -0.4382 -1.4368 -1.3259
 7165TIP3    H242911   6.263   2.577  11.584 -0.4075  0.9592  0.7213
 7166TIP3   OH242912   5.651   0.005   5.973 -0.8344 -0.4976  0.3057
 7166TIP3    H142913   5.634  -0.088   5.985 -1.8075 -0.5357 -1.1871
 7166TIP3    H242914   5.595   0.049   6.037 -2.7712 -0.8333 -1.1174
 7167TIP3   OH242915   5.838   1.116  13.903 -0.3440 -0.0573  0.2461
 7167TIP3    H142916   5.829   1.179  13.831  1.2056 -0.2488 -0.1200
 7167TIP3    H242917   5.858   1.033  13.860 -0.1426 -0.3235  0.8539
 7168TIP3   OH242918   1.545   4.051  11.273 -0.4395 -0.1398 -0.0186
 7168TIP3    H142919   1.570   3.959  11.267  1.8407  0.5779 -2.2430
 7168TIP3    H242920   1.628   4.098  11.279 -1.4717  1.8954 -1.1512
 7169TIP3   OH242921   6.453   3.057  11.020 -0.6075 -0.5651 -0.2443
 7169TIP3    H142922   6.427   3.039  10.930 -0.4250 -0.1890 -0.3740
 7169TIP3    H242923   6.480   3.149  11.020 -0.0953 -0.7081  0.0686
 7170TIP3   OH242924   1.129   6.194   2.577 -0.3856  0.0285  0.1174
 7170TIP3    H142925   1.085   6.125   2.527  1.2052 -0.6034 -0.4500
 7170TIP3    H242926   1.098   6.181   2.667 -2.8695  0.8523 -0.5766
 7171TIP3   OH242927   2.017   1.032   4.774 -0.2159 -0.0317 -0.7046
 7171TIP3    H142928   1.987   1.083   4.698  0.2210 -1.3092 -1.7647
 7171TIP3    H242929   2.110   1.016   4.756  0.0652  0.2404  0.4552
 7172TIP3   OH242930   5.967   3.791   6.241 -0.4122 -0.5816 -0.0567
 7172TIP3    H142931   5.955   3.703   6.277  0.6237 -1.4814 -1.8487
 7172TIP3    H242932   6.060   3.795   6.218 -0.4841  0.9308 -0.1314
 7173TIP3   OH242933   0.599   5.829   6.547  0.8499  0.3243  0.0326
 7173TIP3    H142934   0.675   5.886   6.554 -0.1755  1.8944 -1.4013
 7173TIP3    H242935   0.534   5.880   6.500 -0.3643 -1.7504 -0.6277
 7174TIP3   OH242936   4.695   4.038  15.896 -0.2518 -0.0469  0.0677
 7174TIP3    H142937   4.709   3.955  15.940  0.7267  0.1869  0.2072
 7174TIP3    H242938   4.645   4.015  15.817  0.1828 -0.7890  0.0066
 7175TIP3   OH242939   5.647   0.773   2.605 -0.1626  0.0527  0.2747
 7175TIP3    H142940   5.665   0.845   2.666 -0.0215  0.8762 -0.7351
 7175TIP3    H242941   5.552   0.778   2.590  0.1240  1.2373 -1.2777
 7176TIP3   OH242942   2.036   1.434   0.818 -0.5821  0.1269  0.5446
 7176TIP3    H142943   1.950   1.406   0.851 -1.2499  1.3789 -0.0883
 7176TIP3    H242944   2.047   1.522   0.852 -1.3112  1.4797 -2.5761
 7177TIP3   OH242945   1.072   2.041   5.497  0.0100 -0.0475 -0.0418
 7177TIP3    H142946   1.143   2.055   5.435  0.2756  0.6870  0.4146
 7177TIP3    H242947   1.003   1.999   5.446  1.2513 -1.9425 -0.1971
 7178TIP3   OH242948   5.826   5.719   2.093  0.3505  0.4906  0.0524
 7178TIP3    H142949   5.846   5.627   2.110  1.7827  1.1302  1.9287
 7178TIP3    H242950   5.795   5.753   2.177 -1.5076  1.4165 -0.9508
 7179TIP3   OH242951   2.759   3.301  12.227  0.4990 -0.2546 -0.3717
 7179TIP3    H142952   2.751   3.364  12.298 -0.1209 -1.0481  0.2619
 7179TIP3    H242953   2.730   3.218  12.265  0.6031 -0.7704 -1.4140
 7180TIP3   OH242954   6.562   6.358   1.798  0.1829 -0.0968  0.0751
 7180TIP3    H142955   6.639   6.401   1.760 -0.3167  0.1246 -0.6835
 7180TIP3    H242956   6.490   6.380   1.740 -0.4852 -0.2278  0.8392
 7181TIP3   OH242957   0.162   1.984   2.169  0.1028 -1.1177  0.0554
 7181TIP3    H142958   0.107   1.942   2.103 -1.1156  0.3700  0.1115
 7181TIP3    H242959   0.100   2.031   2.225  1.4817  1.1128 -0.2634
 7182TIP3   OH242960   0.019   1.160   3.529  0.0914 -0.0977  0.1356
 7182TIP3    H142961   0.085   1.158   3.459  0.4483 -2.2885  0.5066
 7182TIP3    H242962   0.065   1.129   3.607 -1.3268 -1.5228  0.4325
 7183TIP3   OH242963   1.404   2.250   0.828  0.2500 -0.3180 -0.2559
 7183TIP3    H142964   1.423   2.343   0.838  0.1845 -0.1764 -1.3913
 7183TIP3    H242965   1.447   2.225   0.746  0.0945 -1.2418 -0.0637
 7184TIP3   OH242966   0.111   5.216   1.777 -0.1802  0.0477 -0.8798
 7184TIP3    H142967   0.073   5.169   1.852 -1.0965 -0.7648 -1.8340
 7184TIP3    H242968   0.205   5.217   1.794 -0.5730  1.9247  1.4408
 7185TIP3   OH242969   0.667   1.078  14.282  0.2810  0.3579  0.0518
 7185TIP3    H142970   0.667   1.165  14.321  0.0040  0.4053 -0.0548
 7185TIP3    H242971   0.575   1.052  14.280  0.3512  0.1107 -0.0204
 7186TIP3   OH242972   1.504   0.961   2.439 -0.1678  0.0322  0.1176
 7186TIP3    H142973   1.588   0.930   2.471  0.6612  0.0009 -1.9786
 7186TIP3    H242974   1.446   0.958   2.515  1.8292  0.4858  1.7072
 7187TIP3   OH242975   5.354   1.151   0.443 -0.0515 -0.0524  0.1727
 7187TIP3    H142976   5.333   1.214   0.375  0.7630  0.7833  0.6864
 7187TIP3    H242977   5.289   1.167   0.512  1.2799  1.4798  1.0927
 7188TIP3   OH242978   3.757   4.285  15.496 -0.3331  0.1525  0.2573
 7188TIP3    H142979   3.786   4.333  15.418  0.6166 -0.8360 -0.0271
 7188TIP3    H242980   3.751   4.351  15.565  0.2732  0.7901 -0.2952
 7189TIP3   OH242981   2.573   4.464   2.134 -0.6473 -0.2095  0.0817
 7189TIP3    H142982   2.572   4.468   2.039 -2.0571 -1.5226  0.0159
 7189TIP3    H242983   2.582   4.555   2.163 -1.7756  0.3388 -1.2831
 7190TIP3   OH242984   2.054   2.461  12.690  0.4846  0.0402 -0.3623
 7190TIP3    H142985   2.106   2.489  12.615  0.7114  1.9207  0.4559
 7190TIP3    H242986   2.052   2.538  12.748 -1.0487 -0.8319  0.7975
 7191TIP3   OH242987   1.117   5.872   0.534 -0.1244  0.0805 -0.0500
 7191TIP3    H142988   1.117   5.953   0.586 -1.0736  0.3742 -0.4979
 7191TIP3    H242989   1.165   5.809   0.588 -1.2411  0.3297  1.2566
 7192TIP3   OH242990   0.900   2.369   2.286 -0.1784  0.2128 -0.2082
 7192TIP3    H142991   0.805   2.366   2.282 -0.1626 -0.8041 -0.0233
 7192TIP3    H242992   0.925   2.284   2.323  0.5864  2.2740  4.3226
 7193TIP3   OH242993   5.548   1.064   5.848  0.1206  0.0286 -0.0267
 7193TIP3    H142994   5.521   0.983   5.803  0.8952 -0.4375  0.3359
 7193TIP3    H242995   5.589   1.117   5.779 -0.3084  0.0706 -0.2486
 7194TIP3   OH242996   5.918   2.967  16.332  0.2818  0.2090  0.1267
 7194TIP3    H142997   5.825   2.958  16.350 -0.0089 -1.0672 -1.8511
 7194TIP3    H242998   5.955   3.005  16.412 -2.0244  1.3568  0.6738
 7195TIP3   OH242999   4.566   0.184   5.504 -0.1908 -0.4757 -1.1212
 7195TIP3    H143000   4.530   0.272   5.515 -0.5360 -0.6900 -0.4819
 7195TIP3    H243001   4.499   0.137   5.456 -1.0043 -1.0063  0.4738
 7196TIP3   OH243002   4.262   4.681   0.205 -0.2581  0.5916  0.0336
 7196TIP3    H143003   4.210   4.643   0.276  2.4405 -0.1539  1.6507
 7196TIP3    H243004   4.287   4.606   0.151 -0.1626  0.8499 -0.2854
 7197TIP3   OH243005   6.031   2.917  17.161  0.1451 -0.2866 -0.4439
 7197TIP3    H143006   6.091   2.960  17.222 -0.4893  0.1309 -0.1006
 7197TIP3    H243007   6.088   2.878  17.095  0.8106 -0.2350  0.0903
 7198TIP3   OH243008   2.064   1.217   0.233  0.1345 -0.0931  0.3501
 7198TIP3    H143009   2.086   1.131   0.198  1.5595  0.5767 -0.4265
 7198TIP3    H243010   2.147   1.251   0.267 -0.4719  0.8686  0.8863
 7199TIP3   OH243011   0.801   1.770   0.849 -0.5267  0.6747  0.4034
 7199TIP3    H143012   0.824   1.717   0.925 -0.2890 -0.9870 -0.8140
 7199TIP3    H243013   0.709   1.749   0.831 -0.0974 -0.2434 -0.7906
 7200TIP3   OH243014   5.705   3.196  12.259 -0.3170 -0.0501  0.9646
 7200TIP3    H143015   5.794   3.230  12.269 -0.4027  1.0588 -1.6685
 7200TIP3    H243016   5.714   3.121  12.200 -1.1808  0.4866  0.1238
 7201TIP3   OH243017   5.881   3.129   0.540  0.2767  0.0864 -0.1697
 7201TIP3    H143018   5.927   3.207   0.571  0.9636 -0.2789 -0.2593
 7201TIP3    H243019   5.881   3.138   0.444  1.6737 -0.7499 -0.2636
 7202TIP3   OH243020   2.240   2.601   3.027 -0.0764 -0.3151  0.0575
 7202TIP3    H143021   2.254   2.539   2.956 -3.8497 -1.7613  0.4490
 7202TIP3    H243022   2.246   2.687   2.986 -0.8295 -1.0973 -1.7145
 7203TIP3   OH243023   1.283   0.857  14.170  0.3686 -0.2024  0.0705
 7203TIP3    H143024   1.242   0.836  14.254  2.5469  0.3639  1.3330
 7203TIP3    H243025   1.319   0.774  14.139 -0.3368 -0.3891 -0.2549
 7204TIP3   OH243026   3.942   1.374   6.411  0.2704 -0.0918  0.2956
 7204TIP3    H143027   3.863   1.410   6.452  0.8858  0.2334  1.2241
 7204TIP3    H243028   3.926   1.381   6.317  0.4706  2.9216  0.4156
 7205TIP3   OH243029   5.582   2.503   4.106  0.2403  0.7657  0.2273
 7205TIP3    H143030   5.552   2.525   4.194  1.9063  1.5854  0.6057
 7205TIP3    H243031   5.517   2.543   4.048 -1.3774 -0.5569  1.0602
 7206TIP3   OH243032   4.644   2.342   4.900 -0.2120 -0.0527 -0.5078
 7206TIP3    H143033   4.583   2.376   4.965 -1.1962  0.7433 -1.8156
 7206TIP3    H243034   4.663   2.253   4.929  0.1039  0.6036  1.3640
 7207TIP3   OH243035   0.602   2.666  17.229 -0.5497  0.0102  0.4827
 7207TIP3    H143036   0.614   2.656  17.135 -1.5759  0.8842  0.2536
 7207TIP3    H243037   0.678   2.621  17.268  2.0528  3.0911 -0.8340
 7208TIP3   OH243038   0.624   1.561   4.331  0.9210  0.0904 -0.4665
 7208TIP3    H143039   0.651   1.631   4.392  0.7828  0.9181 -1.3435
 7208TIP3    H243040   0.705   1.538   4.285  0.9885 -0.4103 -0.0976
 7209TIP3   OH243041   0.778   3.095   0.177  0.1396  0.2469  0.1092
 7209TIP3    H143042   0.868   3.122   0.191 -0.4027  1.4123  1.4349
 7209TIP3    H243043   0.726   3.159   0.225 -1.2979 -1.6483  1.1168
 7210TIP3   OH243044   6.604   6.486   1.392  0.2091 -0.2604 -0.0811
 7210TIP3    H143045   6.520   6.447   1.370  0.5379 -0.3020 -1.3139
 7210TIP3    H243046   6.584   6.575   1.421 -0.3205 -0.5136  0.3184
 7211TIP3   OH243047   3.995   5.191   5.835 -0.1653 -0.3206 -0.1188
 7211TIP3    H143048   4.001   5.242   5.754  0.1698 -0.9966 -0.5221
 7211TIP3    H243049   3.902   5.195   5.859 -0.3057 -0.2971 -0.6561
 7212TIP3   OH243050   0.852   4.255   5.245 -0.9340  0.0294  0.2465
 7212TIP3    H143051   0.757   4.260   5.236 -0.9380 -1.1438 -0.4851
 7212TIP3    H243052   0.882   4.344   5.228 -1.6777 -0.1923 -2.5083
 7213TIP3   OH243053   2.751   6.388  13.394  0.6839  0.4723 -0.4150
 7213TIP3    H143054   2.808   6.390  13.318 -0.2490  0.1037 -1.1392
 7213TIP3    H243055   2.662   6.385  13.357  0.2231  0.3841  0.6805
 7214TIP3   OH243056   4.625   3.110   6.957  0.4860 -0.5165  0.4452
 7214TIP3    H143057   4.611   3.199   6.924  1.0217 -1.2261 -1.8058
 7214TIP3    H243058   4.622   3.055   6.879 -0.1924 -2.5337  1.8523
 7215TIP3   OH243059   2.815   5.438  11.749  0.7696  0.1195 -0.2522
 7215TIP3    H143060   2.781   5.418  11.662 -0.7914 -0.9011  0.5518
 7215TIP3    H243061   2.748   5.404  11.809  0.6509  2.9249  1.3043
 7216TIP3   OH243062   4.196   4.947   2.435 -0.4398 -0.2797 -0.1958
 7216TIP3    H143063   4.164   4.857   2.425  0.2526 -0.6073  0.4730
 7216TIP3    H243064   4.138   4.999   2.380 -1.2188 -1.0583 -0.1346
 7217TIP3   OH243065   2.365   4.034  15.773  0.7435 -0.4099 -0.1077
 7217TIP3    H143066   2.277   4.071  15.776  2.0110  2.7352 -0.1013
 7217TIP3    H243067   2.424   4.109  15.784  3.4253 -2.6995  2.3395
 7218TIP3   OH243068   4.201   4.772  12.926  0.0275  0.0816  0.0775
 7218TIP3    H143069   4.112   4.745  12.949 -0.0371  0.3492  0.1347
 7218TIP3    H243070   4.193   4.818  12.843  0.1691 -0.2672 -0.1292
 7219TIP3   OH243071   1.044   2.530  14.909  0.2809  0.7783  0.4311
 7219TIP3    H143072   1.113   2.488  14.959  0.9824  1.5857  0.1645
 7219TIP3    H243073   1.037   2.618  14.947 -2.4994 -0.1613  2.2769
 7220TIP3   OH243074   1.561   6.117  15.456 -0.0314  0.5506  0.7487
 7220TIP3    H143075   1.556   6.029  15.419  0.5810  0.5007  0.7773
 7220TIP3    H243076   1.654   6.138  15.457 -0.2943  1.8892 -0.8803
 7221TIP3   OH243077   0.054   6.181  13.873 -0.6396  0.2989 -0.4856
 7221TIP3    H143078  -0.024   6.143  13.914 -0.5810  0.9294  0.2099
 7221TIP3    H243079   0.101   6.105  13.838 -1.1980 -0.1528 -0.2725
 7222TIP3   OH243080   0.014   5.099   3.416 -0.1505 -0.4585 -0.0630
 7222TIP3    H143081  -0.042   5.124   3.343 -1.8113 -0.6005  1.1546
 7222TIP3    H243082  -0.046   5.068   3.484  1.4439 -1.3755  0.9556
 7223TIP3   OH243083   5.647   3.942  15.181 -0.2703 -0.0345  0.0524
 7223TIP3    H143084   5.712   4.011  15.189 -1.2894  1.2255 -1.9865
 7223TIP3    H243085   5.693   3.870  15.139 -0.0082  0.6610 -0.8882
 7224TIP3   OH243086   3.091   5.267  13.957 -0.3350  0.2773 -0.2592
 7224TIP3    H143087   3.070   5.348  13.912  0.3157  0.1841 -0.7299
 7224TIP3    H243088   3.133   5.212  13.891  3.2807  1.2190  1.1483
 7225TIP3   OH243089   6.063   6.732   3.812  1.0605 -0.5568  0.0833
 7225TIP3    H143090   6.023   6.659   3.860  1.8014  0.2193  1.9430
 7225TIP3    H243091   6.003   6.750   3.740 -1.3041 -0.1795  2.1134
 7226TIP3   OH243092   3.185   2.891  13.496  0.2159  0.4073 -0.0602
 7226TIP3    H143093   3.213   2.968  13.447  1.2062 -1.1591 -2.0232
 7226TIP3    H243094   3.089   2.893  13.493  0.1894  2.5435  1.5081
 7227TIP3   OH243095   4.527   6.722   4.122  0.4199 -0.0717 -0.0589
 7227TIP3    H143096   4.574   6.649   4.163 -1.0117 -1.7600 -1.3573
 7227TIP3    H243097   4.452   6.737   4.179  1.8962  1.9219  1.4333
 7228TIP3   OH243098   5.359   4.161   3.533 -0.2155 -0.1626 -0.2855
 7228TIP3    H143099   5.399   4.229   3.479 -0.4855  0.8804  0.8196
 7228TIP3    H243100   5.351   4.200   3.620 -1.4828 -1.1687  0.0716
 7229TIP3   OH243101   5.548   4.045   4.017 -0.8628 -0.2651  0.0998
 7229TIP3    H143102   5.567   4.030   4.110  0.5961 -0.7661 -0.2724
 7229TIP3    H243103   5.469   3.994   4.000 -0.8932 -0.5137  0.9577
 7230TIP3   OH243104   3.942   0.607   0.262 -0.0844  0.8877 -0.0434
 7230TIP3    H143105   3.971   0.556   0.187 -0.8956 -1.0878  0.9229
 7230TIP3    H243106   3.957   0.549   0.337 -2.1138  1.6185  0.9664
 7231TIP3   OH243107   6.382   5.395   3.094  0.3517 -0.5144  0.5892
 7231TIP3    H143108   6.290   5.379   3.115  0.3532 -1.0466  0.1971
 7231TIP3    H243109   6.385   5.397   2.999  0.9083 -1.4708  0.5844
 7232TIP3   OH243110   2.521   3.192   5.253  0.3103 -0.0328  0.6541
 7232TIP3    H143111   2.468   3.127   5.206  1.5501 -1.6479  1.4668
 7232TIP3    H243112   2.564   3.142   5.322  2.4740  1.3656  0.3397
 7233TIP3   OH243113   2.991   5.472   5.552  0.3950  0.2826  0.4027
 7233TIP3    H143114   3.082   5.500   5.552  0.5868 -0.3290  1.7998
 7233TIP3    H243115   2.941   5.554   5.560  0.8430  0.5478  0.4760
 7234TIP3   OH243116   2.997   6.750   2.487 -0.3821  0.2414 -0.3414
 7234TIP3    H143117   2.902   6.750   2.477 -0.4545 -0.8966  0.3314
 7234TIP3    H243118   3.030   6.698   2.414 -0.2373  1.1189 -0.9048
 7235TIP3   OH243119   0.086   5.720   5.022  0.2828  0.1708 -0.1476
 7235TIP3    H143120   0.117   5.803   5.057  1.3374 -0.1030 -0.4074
 7235TIP3    H243121   0.108   5.723   4.929  0.5874 -0.5044 -0.1045
 7236TIP3   OH243122   2.775   0.104  13.754  0.9292  0.3646 -0.2449
 7236TIP3    H143123   2.819   0.146  13.829  1.2580  0.0481 -0.2591
 7236TIP3    H243124   2.684   0.132  13.762  1.1055  0.9191 -0.1366
 7237TIP3   OH243125   1.998   2.382   3.693 -0.3982  0.1472 -0.1278
 7237TIP3    H143126   1.914   2.357   3.733 -0.4821 -0.1819 -0.5085
 7237TIP3    H243127   1.995   2.478   3.691 -0.0211  0.2088  1.4558
 7238TIP3   OH243128   5.607   2.580   5.792 -1.2855 -0.1276  0.4367
 7238TIP3    H143129   5.598   2.638   5.867 -1.2341  0.9350 -0.3722
 7238TIP3    H243130   5.537   2.606   5.732 -0.5535 -0.1433 -0.4321
 7239TIP3   OH243131   2.881   2.107  15.460 -0.0565  0.6908  0.1539
 7239TIP3    H143132   2.859   2.020  15.491 -2.2845  1.1900  0.0974
 7239TIP3    H243133   2.949   2.093  15.394  0.7011 -0.8397  1.2250
 7240TIP3   OH243134   4.697   6.683   0.023 -0.6237 -0.7058  0.4664
 7240TIP3    H143135   4.673   6.627   0.097 -1.4435 -0.3979  0.4376
 7240TIP3    H243136   4.664   6.769   0.046  1.1463 -0.0838  0.7678
 7241TIP3   OH243137   1.060   4.073   2.998 -0.2079 -0.6396  0.2241
 7241TIP3    H143138   1.106   4.098   3.078  0.6064 -1.3168 -0.0251
 7241TIP3    H243139   1.006   3.998   3.025 -1.6401  0.5350  0.6595
 7242TIP3   OH243140   4.961   2.695   4.483 -0.2462  0.3743 -0.0035
 7242TIP3    H143141   4.870   2.683   4.511  0.7267  0.5254  3.4413
 7242TIP3    H243142   4.976   2.624   4.420 -3.3442  1.6187 -2.2295
 7243TIP3   OH243143   3.418   3.407   2.755 -0.3166  0.0853  0.1067
 7243TIP3    H143144   3.364   3.486   2.751 -2.1243 -1.0130  1.9858
 7243TIP3    H243145   3.498   3.430   2.708 -0.5028  3.2973  1.2641
 7244TIP3   OH243146   3.542   3.446  10.722  0.6580 -0.2102 -0.0845
 7244TIP3    H143147   3.607   3.450  10.652  2.5549 -0.4853  1.6269
 7244TIP3    H243148   3.578   3.501  10.791 -0.6056 -0.9040  1.1488
 7245TIP3   OH243149   3.581   4.143  16.937  0.5064  0.0039  0.1712
 7245TIP3    H143150   3.656   4.111  16.887  0.7487 -1.1533  1.2382
 7245TIP3    H243151   3.540   4.207  16.880  1.9858  0.2483 -0.6581
 7246TIP3   OH243152   6.013   1.696  16.499  0.1821 -0.0736 -0.0255
 7246TIP3    H143153   6.057   1.631  16.444 -1.2088 -0.7745 -0.3380
 7246TIP3    H243154   5.980   1.646  16.574 -0.9581  0.2474 -0.3052
 7247TIP3   OH243155   5.627   0.416  14.918 -0.1095 -0.4295  0.4835
 7247TIP3    H143156   5.629   0.428  15.013 -1.7221 -1.8052  0.7106
 7247TIP3    H243157   5.536   0.431  14.893  0.9403  3.4800 -1.3810
 7248TIP3   OH243158   4.821   3.871  15.242 -0.1376 -0.2367 -0.4464
 7248TIP3    H143159   4.780   3.787  15.220 -0.4885 -0.3129  0.4824
 7248TIP3    H243160   4.880   3.889  15.169  0.1847 -1.4534 -0.4901
 7249TIP3   OH243161   5.191   1.971  12.522 -0.0995 -0.0559 -0.2854
 7249TIP3    H143162   5.275   2.012  12.504 -0.2185 -0.0019 -0.7133
 7249TIP3    H243163   5.145   2.033  12.579  0.1508 -0.0884 -0.0492
 7250TIP3   OH243164   1.217   6.299   3.301  0.1189 -0.2596  0.1931
 7250TIP3    H143165   1.256   6.212   3.297  3.1623  1.0316  0.6819
 7250TIP3    H243166   1.195   6.319   3.210  2.1665 -0.3561 -0.3534
 7251TIP3   OH243167   5.776   5.087  13.873  0.0046 -0.3469 -0.0798
 7251TIP3    H143168   5.689   5.051  13.888  0.3319 -0.9682  0.3537
 7251TIP3    H243169   5.785   5.157  13.938  1.0116 -2.3318  1.9771
 7252TIP3   OH243170   0.491   1.285  15.159  0.2014  0.0676  0.1423
 7252TIP3    H143171   0.443   1.269  15.078  0.3641  1.2954 -0.1976
 7252TIP3    H243172   0.424   1.282  15.227 -0.1019  0.1473 -0.1530
 7253TIP3   OH243173   1.523   0.344   4.466  0.0532  0.2803  0.2666
 7253TIP3    H143174   1.430   0.324   4.477  0.3612 -1.3290  0.0331
 7253TIP3    H243175   1.532   0.372   4.375 -0.3431  1.3257  0.5391
 7254TIP3   OH243176   0.341   1.431  12.123  0.3499 -0.3202  0.0010
 7254TIP3    H143177   0.299   1.506  12.081  0.8167 -0.7536 -1.2512
 7254TIP3    H243178   0.422   1.466  12.160  1.6243 -0.6037 -2.4092
 7255TIP3   OH243179   3.046   4.028  17.007 -0.1069  0.3793  0.4672
 7255TIP3    H143180   3.127   4.078  17.014 -0.4292  0.8860  0.5643
 7255TIP3    H243181   3.066   3.943  17.046  0.5265  0.3286  0.0287
 7256TIP3   OH243182   4.028   2.724   3.545 -0.4135 -0.1448 -0.5485
 7256TIP3    H143183   4.044   2.644   3.595 -1.8948 -0.2392 -0.1946
 7256TIP3    H243184   3.940   2.751   3.571 -0.6293  0.6166 -2.0015
 7257TIP3   OH243185   4.122   4.001  16.711  0.0529 -0.0128  0.0242
 7257TIP3    H143186   4.089   4.010  16.622  0.8285 -1.2895 -0.4197
 7257TIP3    H243187   4.155   4.087  16.734 -0.5268  0.4280 -0.7818
 7258TIP3   OH243188   3.440   0.728  15.806 -0.2406 -0.0059 -0.0901
 7258TIP3    H143189   3.408   0.746  15.717  0.7637 -2.7841 -1.0898
 7258TIP3    H243190   3.377   0.666  15.841 -1.2214  1.8950  1.5854
 7259TIP3   OH243191   2.447   2.027  12.279 -0.3368  0.0993 -0.0207
 7259TIP3    H143192   2.406   1.941  12.263  0.2363 -0.4162  1.2193
 7259TIP3    H243193   2.379   2.077  12.323 -0.5879  0.2087 -0.5213
 7260TIP3   OH243194   0.940   1.179  12.058  0.3032 -0.2121 -0.1975
 7260TIP3    H143195   0.915   1.093  12.024  0.5429 -0.3687  0.0202
 7260TIP3    H243196   0.859   1.230  12.055 -0.2008 -0.9002  1.0599
 7261TIP3   OH243197   6.451   5.533  11.644  0.7698  0.2277  0.2305
 7261TIP3    H143198   6.517   5.465  11.658  0.5452 -0.1100 -0.3401
 7261TIP3    H243199   6.369   5.485  11.632  0.4448  0.6402  0.7885
 7262TIP3   OH243200   2.881   2.359   5.733 -0.2880  0.1243  0.5125
 7262TIP3    H143201   2.834   2.358   5.816 -2.8620  0.6419 -0.9011
 7262TIP3    H243202   2.901   2.267   5.716 -0.3361 -0.0475  1.3502
 7263TIP3   OH243203   2.700   3.961  16.860 -0.3068  0.0624  0.2244
 7263TIP3    H143204   2.761   4.022  16.902 -0.6885  1.2608 -0.9153
 7263TIP3    H243205   2.616   4.007  16.859 -1.3794 -1.7473  2.1652
 7264TIP3   OH243206   5.218   2.527  11.435 -0.7359 -0.2419  0.6333
 7264TIP3    H143207   5.219   2.455  11.372 -0.0136 -0.3663  0.7810
 7264TIP3    H243208   5.141   2.579  11.411 -0.4500 -0.2716 -0.3689
 7265TIP3   OH243209   1.872   3.677  12.379  0.2652 -0.0319 -0.5155
 7265TIP3    H143210   1.804   3.739  12.354 -0.6907 -1.3313 -1.1407
 7265TIP3    H243211   1.890   3.627  12.299 -0.5105 -2.0106  0.5199
 7266TIP3   OH243212   3.994   5.558  15.402 -0.1221 -0.4492  0.1996
 7266TIP3    H143213   3.965   5.480  15.449  0.6026 -1.2787 -0.7241
 7266TIP3    H243214   4.029   5.525  15.319  2.0448  0.6790  0.6435
 7267TIP3   OH243215   5.395   3.216   4.596 -0.4144  0.3777 -0.3754
 7267TIP3    H143216   5.302   3.195   4.593 -0.0026 -1.5147 -0.5984
 7267TIP3    H243217   5.400   3.306   4.562 -2.1573  0.5518 -0.2367
 7268TIP3   OH243218   5.785   6.619  13.281  0.1705 -0.6599 -0.5270
 7268TIP3    H143219   5.868   6.601  13.325 -0.7095 -1.4617  0.8041
 7268TIP3    H243220   5.781   6.553  13.211  0.2590 -1.1451 -0.0757
 7269TIP3   OH243221   1.733   3.444   2.118 -0.5322  0.7035 -0.6454
 7269TIP3    H143222   1.666   3.467   2.182 -0.5009 -0.8392 -0.0338
 7269TIP3    H243223   1.722   3.350   2.104  1.2947  0.4921 -0.7792
 7270TIP3   OH243224   1.743   5.190  15.059 -0.2421  0.0570 -0.0283
 7270TIP3    H143225   1.695   5.201  15.141  2.7619 -1.8188  2.0995
 7270TIP3    H243226   1.791   5.272  15.047 -2.8022  1.4196 -1.4669
 7271TIP3   OH243227   0.953   4.664  14.690 -0.1040  0.0079 -0.1238
 7271TIP3    H143228   0.868   4.635  14.725 -0.2460 -0.5213 -0.9188
 7271TIP3    H243229   1.001   4.583  14.672  0.4297  0.3034 -0.0389
 7272TIP3   OH243230   4.939   3.981  17.024  0.5818 -0.4060 -0.2647
 7272TIP3    H143231   4.985   4.013  17.102  1.7338 -0.0794 -1.0750
 7272TIP3    H243232   4.895   4.058  16.988 -0.5565 -0.7006  0.4614
 7273TIP3   OH243233   0.698   1.330  12.671 -0.1639  0.2138  0.1694
 7273TIP3    H143234   0.671   1.262  12.609 -1.3822  1.1952 -0.3946
 7273TIP3    H243235   0.649   1.408  12.644  0.5592  1.0861  1.3443
 7274TIP3   OH243236   5.942   5.305  13.161 -0.3318 -0.0048 -0.2036
 7274TIP3    H143237   6.037   5.299  13.174 -0.2322  1.1743 -0.3317
 7274TIP3    H243238   5.929   5.289  13.068 -0.1151  1.2265 -0.4550
 7275TIP3   OH243239   4.365   4.453   2.876  0.1632 -0.0124 -0.0344
 7275TIP3    H143240   4.453   4.434   2.845  0.0543 -0.0031 -0.3518
 7275TIP3    H243241   4.330   4.368   2.903  0.6328  0.1300  1.0411
 7276TIP3   OH243242   3.511   5.474   1.662 -0.0574 -0.2770  0.3679
 7276TIP3    H143243   3.542   5.551   1.710  0.7613 -0.1222 -0.3839
 7276TIP3    H243244   3.420   5.494   1.641  0.5990  1.2355 -1.2342
 7277TIP3   OH243245   4.892   1.395  14.576  0.0127 -0.7085 -0.2066
 7277TIP3    H143246   4.952   1.369  14.645 -0.1442 -2.1720 -0.5944
 7277TIP3    H243247   4.860   1.481  14.602  2.4402  0.1907 -0.1271
 7278TIP3   OH243248   4.425   6.161   4.373 -0.6939  0.0987 -0.7903
 7278TIP3    H143249   4.439   6.068   4.390 -1.0893  0.0913 -0.4854
 7278TIP3    H243250   4.510   6.193   4.341 -0.7542 -0.5105 -1.5661
 7279TIP3   OH243251   5.020   2.559   1.534 -0.0489 -0.4140  0.0437
 7279TIP3    H143252   4.934   2.518   1.533  0.1440 -0.8059 -1.1379
 7279TIP3    H243253   5.051   2.546   1.624 -1.0656 -0.5771  0.3831
 7280TIP3   OH243254   4.871   0.344   5.371  0.2860  0.3372  0.4554
 7280TIP3    H143255   4.786   0.343   5.415 -0.2243 -0.2230 -0.5526
 7280TIP3    H243256   4.913   0.424   5.404 -0.7087  0.7316  0.7915
 7281TIP3   OH243257   0.846   3.771  14.483  0.0909 -0.0078 -0.6042
 7281TIP3    H143258   0.807   3.716  14.551 -0.9765  1.2418 -0.1763
 7281TIP3    H243259   0.771   3.803  14.432  0.5384  2.2339  0.0792
 7282TIP3   OH243260   3.874   2.957  11.881  0.6492  0.1890  0.2974
 7282TIP3    H143261   3.828   3.023  11.830  2.0320  1.3783  0.5725
 7282TIP3    H243262   3.935   2.917  11.818  0.6049 -0.0515  0.4078
 7283TIP3   OH243263   5.041   5.718   4.686  0.1810 -0.1659 -0.5401
 7283TIP3    H143264   5.030   5.629   4.719  0.7055  1.2519  3.7715
 7283TIP3    H243265   4.951   5.748   4.669 -0.0585 -1.1691 -1.0675
 7284TIP3   OH243266   5.543   6.639  11.100 -0.0958  0.3348  0.2954
 7284TIP3    H143267   5.593   6.652  11.019 -1.0343  2.2565  0.0009
 7284TIP3    H243268   5.501   6.554  11.088 -0.9265  0.9806 -1.6550
 7285TIP3   OH243269   4.079   6.620  12.489  0.9656 -0.9027  0.3267
 7285TIP3    H143270   4.014   6.666  12.437  0.4969 -0.8674  0.9372
 7285TIP3    H243271   4.100   6.680  12.561  0.5551 -1.5135  0.9728
 7286TIP3   OH243272   5.941   4.622   4.225 -0.4138  0.5102  0.0007
 7286TIP3    H143273   6.028   4.613   4.264 -0.6997  1.3470  0.8658
 7286TIP3    H243274   5.890   4.550   4.262 -0.0686 -0.0287 -0.5704
 7287TIP3   OH243275   1.285   1.633  11.051 -0.3309  0.3764 -0.0934
 7287TIP3    H143276   1.294   1.698  10.981 -2.1539 -0.2179 -0.9081
 7287TIP3    H243277   1.247   1.556  11.008  0.0628 -0.5723  1.2228
 7288TIP3   OH243278   2.665   2.876  10.460 -0.1695 -0.4484  0.0445
 7288TIP3    H143279   2.672   2.786  10.428 -0.8886 -0.3643 -0.3625
 7288TIP3    H243280   2.592   2.873  10.522  0.8461 -0.4905  1.2639
 7289TIP3   OH243281   2.651   3.359   5.481  0.2400 -0.2204 -0.3884
 7289TIP3    H143282   2.560   3.389   5.477 -0.1973 -1.4068  0.4923
 7289TIP3    H243283   2.656   3.289   5.417  0.4587 -0.3612 -0.2169
 7290TIP3   OH243284   4.591   3.978  15.347 -0.9429  0.7623  0.2421
 7290TIP3    H143285   4.686   3.971  15.342 -0.9317  1.7432 -1.8190
 7290TIP3    H243286   4.575   4.059  15.395 -0.6817  1.4189 -0.7418
 7291TIP3   OH243287   3.140   0.757   2.918 -0.2537  0.3078 -0.4080
 7291TIP3    H143288   3.159   0.831   2.860 -1.6662 -0.5082 -1.9692
 7291TIP3    H243289   3.107   0.689   2.860  0.0269 -1.2020  1.1441
 7292TIP3   OH243290   0.412   3.013  14.106 -0.5800 -0.2990 -0.7462
 7292TIP3    H143291   0.373   2.937  14.150  0.3387 -0.6950 -0.6064
 7292TIP3    H243292   0.482   3.041  14.164  1.4804 -1.6071 -2.5371
 7293TIP3   OH243293   4.676   6.745   3.565 -0.6566  0.4515  0.2806
 7293TIP3    H143294   4.768   6.752   3.591 -0.4064  2.0249 -0.9505
 7293TIP3    H243295   4.668   6.802   3.488 -2.3615 -0.7054 -0.4248
 7294TIP3   OH243296   4.279   3.506   5.256 -0.3433  0.0978  0.6777
 7294TIP3    H143297   4.288   3.569   5.328  0.4895  0.5995  0.1539
 7294TIP3    H243298   4.277   3.421   5.298 -0.1447  0.4062  1.3192
 7295TIP3   OH243299   0.915   2.490   3.899  0.1567  0.6056  0.4905
 7295TIP3    H143300   0.991   2.531   3.859 -0.2903  2.3371  1.3691
 7295TIP3    H243301   0.930   2.396   3.889  1.4997  0.9647 -1.0044
 7296TIP3   OH243302   2.717   3.209   1.050 -1.1515  0.2843  0.1259
 7296TIP3    H143303   2.690   3.118   1.040 -1.6999  0.3884  0.5811
 7296TIP3    H243304   2.654   3.245   1.113  0.7027  0.2417  2.0738
 7297TIP3   OH243305   3.823   3.640   4.562  0.3119 -0.0273 -0.2561
 7297TIP3    H143306   3.909   3.680   4.552  0.5874 -0.4955  0.2383
 7297TIP3    H243307   3.814   3.625   4.656  1.1399 -3.1350 -0.6133
 7298TIP3   OH243308   5.644   6.114  12.937  0.1783  0.4406  0.4958
 7298TIP3    H143309   5.621   6.121  13.029 -1.2190  1.7107  0.0701
 7298TIP3    H243310   5.731   6.154  12.931 -0.0067  0.9491  1.1525
 7299TIP3   OH243311   0.767   1.358  15.667 -0.4908  0.2988  0.2282
 7299TIP3    H143312   0.781   1.446  15.704  0.0946  0.5732 -0.6279
 7299TIP3    H243313   0.838   1.306  15.704  1.3131  1.0545 -2.0301
 7300TIP3   OH243314   4.755   1.857  11.686 -0.3751 -0.7743  0.2096
 7300TIP3    H143315   4.721   1.918  11.752 -0.1369  0.4058 -0.7354
 7300TIP3    H243316   4.677   1.824  11.642 -0.4147  1.4876 -1.5624
 7301TIP3   OH243317   6.148   4.526  13.532 -0.0407  0.0159  0.1507
 7301TIP3    H143318   6.201   4.605  13.542  1.3982 -0.8134 -0.6663
 7301TIP3    H243319   6.120   4.527  13.441 -1.2790  0.3437  0.5310
 7302TIP3   OH243320   0.476   2.476   5.338 -0.0567 -0.1423 -0.0811
 7302TIP3    H143321   0.434   2.530   5.271  2.4531  1.9446 -0.0296
 7302TIP3    H243322   0.456   2.520   5.421  0.0683 -0.5723  0.1791
 7303TIP3   OH243323   4.481   2.463  12.932  1.4001 -0.1815  0.1560
 7303TIP3    H143324   4.443   2.466  12.845  1.7662 -0.8173 -0.0254
 7303TIP3    H243325   4.545   2.534  12.933  0.1083  0.9982  0.5157
 7304TIP3   OH243326   5.869   5.038   2.246  0.0926  0.3102  0.3300
 7304TIP3    H143327   5.791   5.033   2.190  0.0608  0.1319  0.3883
 7304TIP3    H243328   5.936   5.079   2.191 -0.7814  2.9036  1.1142
 7305TIP3   OH243329   2.179   2.711  16.256  0.7466 -0.5185 -0.0297
 7305TIP3    H143330   2.172   2.621  16.224  3.3098 -0.5144 -0.7398
 7305TIP3    H243331   2.216   2.760  16.183  0.9611  0.7834  0.9197
 7306TIP3   OH243332   5.814   2.360  13.221 -0.1294 -0.1900  0.2081
 7306TIP3    H143333   5.881   2.422  13.192 -0.3516 -0.1731 -0.2858
 7306TIP3    H243334   5.733   2.392  13.181 -0.3600 -0.4320  0.4783
 7307TIP3   OH243335   5.373   0.325   2.010  0.4497 -0.0856 -0.2402
 7307TIP3    H143336   5.437   0.360   1.948  0.3417 -0.9913 -0.8719
 7307TIP3    H243337   5.323   0.401   2.039  0.8341  0.4117 -0.8730
 7308TIP3   OH243338   3.890   1.682  14.721 -0.0733 -0.1081 -0.0166
 7308TIP3    H143339   3.935   1.636  14.649  1.0164 -1.7790  1.6879
 7308TIP3    H243340   3.927   1.644  14.800 -1.0004  1.9893  1.4506
 7309TIP3   OH243341   4.159   3.496  11.624 -0.3060  0.1529  0.0557
 7309TIP3    H143342   4.142   3.485  11.717 -2.4012  1.2565 -0.1543
 7309TIP3    H243343   4.232   3.557  11.620  1.7560 -2.1859  0.9816
 7310TIP3   OH243344   3.729   4.144   5.127 -0.4457 -0.0091  0.2282
 7310TIP3    H143345   3.685   4.061   5.108 -1.4835  0.6965 -0.5327
 7310TIP3    H243346   3.701   4.203   5.057 -1.0334  1.4539  1.6484
 7311TIP3   OH243347   4.489   4.527  15.452  0.0466  0.2245 -0.1418
 7311TIP3    H143348   4.553   4.502  15.385 -0.7484  2.4618 -1.8106
 7311TIP3    H243349   4.466   4.445  15.495 -0.2805 -1.4850 -3.4238
 7312TIP3   OH243350   0.351   0.600   3.593  0.5140 -0.0890  0.0606
 7312TIP3    H143351   0.368   0.536   3.523  1.9785  0.5097 -0.1487
 7312TIP3    H243352   0.281   0.561   3.645  0.6150 -1.3406 -0.7250
 7313TIP3   OH243353   3.923   1.703   1.332 -0.0280  0.6994 -0.3605
 7313TIP3    H143354   3.963   1.682   1.417 -0.0306  1.9378 -0.0425
 7313TIP3    H243355   3.829   1.696   1.348 -0.0137  0.4993 -0.3707
 7314TIP3   OH243356   5.774   5.347   1.238  0.0310 -0.2026  0.2556
 7314TIP3    H143357   5.751   5.303   1.320  0.7196 -0.8082  0.1198
 7314TIP3    H243358   5.865   5.324   1.222  0.2746  0.9216 -0.0407
 7315TIP3   OH243359   1.052   4.165   4.294 -0.4216  0.3676  0.1416
 7315TIP3    H143360   0.960   4.148   4.276 -0.2472  0.3180 -0.7252
 7315TIP3    H243361   1.099   4.107   4.235  0.1688  0.4696  0.5082
 7316TIP3   OH243362   5.017   2.980   0.555  0.0984 -0.3401  0.1641
 7316TIP3    H143363   5.070   3.060   0.547  1.0250 -1.0911 -1.4506
 7316TIP3    H243364   4.983   2.983   0.644 -0.0860  1.9925  0.0533
 7317TIP3   OH243365   5.224   5.334   3.504  0.0399 -0.5309  0.6143
 7317TIP3    H143366   5.267   5.264   3.456  0.0767 -1.3940  1.8686
 7317TIP3    H243367   5.161   5.289   3.561 -1.4868  0.6111 -0.1394
 7318TIP3   OH243368   4.145   3.317  16.658 -0.5308 -0.2463 -0.1271
 7318TIP3    H143369   4.124   3.411  16.664  2.2571  0.3677  0.9769
 7318TIP3    H243370   4.181   3.306  16.570 -1.3865 -0.3901 -0.4572
 7319TIP3   OH243371   5.533   4.936  14.809  0.8537 -0.3465  0.1219
 7319TIP3    H143372   5.624   4.946  14.838  0.5835  1.8825  0.2908
 7319TIP3    H243373   5.534   4.957  14.716  0.4205  0.2017  0.2392
 7320TIP3   OH243374   4.974   2.708  14.525 -0.7043 -0.5976 -0.6370
 7320TIP3    H143375   5.038   2.762  14.479 -0.5079 -0.6794 -0.4596
 7320TIP3    H243376   4.963   2.750  14.610  0.5412 -1.6559  0.0588
 7321TIP3   OH243377   1.381   6.462  12.388  0.0533 -0.2624  0.2970
 7321TIP3    H143378   1.419   6.375  12.395 -0.1254 -0.6597 -2.9375
 7321TIP3    H243379   1.329   6.459  12.307  0.6505  3.0370 -0.2725
 7322TIP3   OH243380   1.935   2.843   0.898  0.3607  0.0240 -0.1581
 7322TIP3    H143381   1.885   2.916   0.935  1.9612  0.0802  1.9733
 7322TIP3    H243382   1.891   2.824   0.815 -0.8918  2.5263 -0.1226
 7323TIP3   OH243383   1.057   4.762  15.134  0.1768 -0.6106  0.6185
 7323TIP3    H143384   1.101   4.686  15.097  0.2004 -0.3343  0.0845
 7323TIP3    H243385   0.967   4.732  15.150  0.1556 -0.7114  0.3011
 7324TIP3   OH243386   4.728   3.984  13.714  0.1192 -0.7884 -0.6233
 7324TIP3    H143387   4.685   4.002  13.630 -0.2025  1.3654 -0.0084
 7324TIP3    H243388   4.818   4.016  13.702 -0.2188  0.4445  0.2096
 7325TIP3   OH243389   1.390   0.822  13.532  0.2801 -0.1998  0.0367
 7325TIP3    H143390   1.416   0.913  13.518 -0.3411  0.3623  2.3316
 7325TIP3    H243391   1.459   0.770  13.490  1.8779  1.3220  0.7308
 7326TIP3   OH243392   4.619   3.144   3.612  0.1989  0.4086  0.0627
 7326TIP3    H143393   4.601   3.050   3.614  3.1152 -0.2182 -0.0680
 7326TIP3    H243394   4.562   3.177   3.543 -0.8851 -1.2596  0.1145
 7327TIP3   OH243395   5.967   3.378   6.003 -0.1474 -0.4740  0.1800
 7327TIP3    H143396   6.013   3.385   6.087 -0.7642  0.6900  0.4247
 7327TIP3    H243397   5.915   3.458   5.998  1.3488  0.3949 -2.1847
 7328TIP3   OH243398   5.534   0.081  13.024 -0.1013  0.0689 -0.4541
 7328TIP3    H143399   5.469   0.060  13.091 -0.5835  0.0727 -0.9246
 7328TIP3    H243400   5.487   0.077  12.941 -0.3538  3.4616 -0.5464
 7329TIP3   OH243401   3.670   5.028  12.451  0.3393  0.0042 -0.3054
 7329TIP3    H143402   3.636   5.087  12.519 -0.3017 -0.2213 -0.4218
 7329TIP3    H243403   3.742   5.077  12.411 -0.3785  0.8419 -0.6044
 7330TIP3   OH243404   3.902   5.645  16.679  0.5001  0.5283  0.8045
 7330TIP3    H143405   3.867   5.642  16.768  2.3274  2.2867  1.6446
 7330TIP3    H243406   3.863   5.723  16.640  2.0817  1.5304  1.1681
 7331TIP3   OH243407   2.355   4.359  11.851  0.1529 -0.6497 -0.2947
 7331TIP3    H143408   2.410   4.436  11.866 -0.8398  0.1965 -0.9440
 7331TIP3    H243409   2.347   4.319  11.938  0.6487 -0.0103  0.0519
 7332TIP3   OH243410   1.708   2.550  13.414 -0.1707  0.0330 -0.0653
 7332TIP3    H143411   1.625   2.598  13.423  0.3102  1.1399 -1.3372
 7332TIP3    H243412   1.721   2.544  13.319  1.6804  0.6948  0.1396
 7333TIP3   OH243413   4.777   2.857  16.572  0.0097 -0.0598 -0.1155
 7333TIP3    H143414   4.745   2.834  16.485 -1.5000  0.2032  0.3603
 7333TIP3    H243415   4.698   2.867  16.625  0.7282  2.9042  0.5098
 7334TIP3   OH243416   0.459   0.139   4.504 -0.3554 -0.0059 -0.2754
 7334TIP3    H143417   0.376   0.091   4.508  0.7871 -2.0285 -0.1094
 7334TIP3    H243418   0.493   0.135   4.593  2.1566 -3.3530 -1.2683
 7335TIP3   OH243419   6.034   3.108  12.411  0.1328 -0.4087 -0.5232
 7335TIP3    H143420   6.038   3.044  12.482  0.0733 -0.0058 -0.1529
 7335TIP3    H243421   6.093   3.178  12.438 -2.1150  1.1322  0.5395
 7336TIP3   OH243422   3.876   2.526   3.369 -0.2095  0.3946 -0.1066
 7336TIP3    H143423   3.944   2.564   3.424 -1.3911  0.8445  1.0644
 7336TIP3    H243424   3.820   2.477   3.429 -2.0299  1.6172 -0.7368
 7337TIP3   OH243425   6.631   3.326   0.341 -0.4120  0.1249 -0.3067
 7337TIP3    H143426   6.695   3.371   0.287  0.3067  1.6237  1.7095
 7337TIP3    H243427   6.653   3.233   0.333  4.1523  0.7843  2.8431
 7338TIP3   OH243428   0.835   5.752   3.051  0.3263  0.2478 -0.2700
 7338TIP3    H143429   0.808   5.661   3.041  1.7798 -0.0273 -1.9879
 7338TIP3    H243430   0.774   5.789   3.114 -1.3845 -1.4379 -0.9093
 7339TIP3   OH243431   3.421   6.658   1.841 -0.5520  0.7862  0.0274
 7339TIP3    H143432   3.378   6.702   1.768 -0.2922 -0.6099 -0.9727
 7339TIP3    H243433   3.471   6.587   1.801  2.6336  2.2993  1.1589
 7340TIP3   OH243434   2.574   4.545  15.305 -0.1442 -0.6104 -0.2885
 7340TIP3    H143435   2.663   4.558  15.339 -1.3591  0.4386  2.6987
 7340TIP3    H243436   2.535   4.632  15.305 -1.1462 -1.0425 -1.7334
 7341TIP3   OH243437   3.037   1.218   6.412  0.7452  0.5296 -0.0433
 7341TIP3    H143438   2.958   1.168   6.389  0.8493 -0.1553  1.0699
 7341TIP3    H243439   3.109   1.168   6.373  0.6907  0.8347 -0.5454
 7342TIP3   OH243440   3.711   5.145   2.079  0.4854  0.2201  0.5864
 7342TIP3    H143441   3.767   5.104   2.013  0.2951  0.3514  0.3415
 7342TIP3    H243442   3.750   5.120   2.163  0.6777 -0.0193  0.4263
 7343TIP3   OH243443   0.335   1.265  15.489 -0.1583  0.5216 -0.1351
 7343TIP3    H143444   0.339   1.303  15.576 -1.8197 -0.4892  0.4097
 7343TIP3    H243445   0.333   1.341  15.430 -0.5370  1.2303  0.7782
 7344TIP3   OH243446   4.776   2.832  15.974  0.0457  0.0330  0.2060
 7344TIP3    H143447   4.799   2.812  16.065  0.5636  1.1975  0.3416
 7344TIP3    H243448   4.859   2.832  15.927 -0.2446 -0.7681 -0.3108
 7345TIP3   OH243449   1.976   3.303  12.131 -0.2139 -0.2496  0.1656
 7345TIP3    H143450   1.998   3.229  12.186  3.9526  1.2558  0.7021
 7345TIP3    H243451   2.006   3.278  12.043 -1.9133 -0.5029 -0.3656
 7346TIP3   OH243452   3.380   5.294  13.534  0.2895 -0.1791  0.5015
 7346TIP3    H143453   3.348   5.365  13.590  0.2017  0.7357 -0.6646
 7346TIP3    H243454   3.311   5.284  13.468  1.5294  0.5493 -0.9503
 7347TIP3   OH243455   1.932   2.143  11.798  0.0573  0.1849  0.0342
 7347TIP3    H143456   1.977   2.215  11.754 -0.2781  1.5796  1.8907
 7347TIP3    H243457   1.998   2.107  11.857 -0.5300  0.6736  1.0031
 7348TIP3   OH243458   4.356   2.014  11.110 -0.1168  0.5980 -0.1055
 7348TIP3    H143459   4.441   1.996  11.071 -0.1117 -0.3744  0.3313
 7348TIP3    H243460   4.297   1.950  11.070 -0.5895  1.1145 -0.2344
 7349TIP3   OH243461   2.411   3.397  14.896 -0.3854  0.1651 -0.0488
 7349TIP3    H143462   2.391   3.483  14.860 -0.3112  2.3330  4.6309
 7349TIP3    H243463   2.325   3.361  14.920 -0.3031 -0.3421 -0.5218
 7350TIP3   OH243464   0.295   1.663  12.410  0.5151  0.3070  0.1654
 7350TIP3    H143465   0.274   1.690  12.320  0.1599  1.8038  0.6844
 7350TIP3    H243466   0.255   1.577  12.419  0.5914  0.1248 -1.1298
 7351TIP3   OH243467   3.236   2.363  15.904  0.8692  0.1250 -0.1332
 7351TIP3    H143468   3.254   2.380  15.812 -0.2925  1.4097 -0.1323
 7351TIP3    H243469   3.216   2.449  15.942  1.4699 -0.3655  1.3516
 7352TIP3   OH243470   3.685   1.095  13.553  0.2919 -0.2034 -0.2598
 7352TIP3    H143471   3.627   1.138  13.616 -1.2542  0.1252 -1.8782
 7352TIP3    H243472   3.629   1.033  13.507  0.6128  1.7488 -3.4476
 7353TIP3   OH243473   3.083   1.674   0.156  0.1533  0.0056 -0.3077
 7353TIP3    H143474   2.995   1.635   0.160  0.2313 -0.1211  0.2493
 7353TIP3    H243475   3.141   1.605   0.187  0.2486  0.6820  1.0713
 7354TIP3   OH243476   2.599   3.504   2.048  0.4450 -0.3537  0.0782
 7354TIP3    H143477   2.638   3.447   2.114  1.6570 -1.0737 -1.2294
 7354TIP3    H243478   2.663   3.574   2.035 -1.0009  1.2870  1.6156
 7355TIP3   OH243479   0.721   1.209   4.379  0.1266 -0.2657 -0.2562
 7355TIP3    H143480   0.638   1.167   4.400  0.8644 -2.1675 -1.0372
 7355TIP3    H243481   0.748   1.253   4.459 -0.5471 -1.5115  0.6554
 7356TIP3   OH243482   6.022   3.966  15.667 -0.2959 -0.5227 -0.4342
 7356TIP3    H143483   6.029   3.872  15.687 -0.3785 -0.8816 -1.9933
 7356TIP3    H243484   6.034   4.010  15.751 -1.0875 -1.9714  0.4619
 7357TIP3   OH243485   3.539   6.213  15.698 -0.3916  0.1196  0.1628
 7357TIP3    H143486   3.559   6.288  15.754  0.5226  0.9400 -1.2592
 7357TIP3    H243487   3.450   6.229  15.668 -0.5899  0.0809  0.7113
 7358TIP3   OH243488   3.648   4.551  13.613  0.0266  0.3243 -0.0064
 7358TIP3    H143489   3.711   4.484  13.637  0.2750  0.0699 -1.3697
 7358TIP3    H243490   3.694   4.634  13.628  1.2690  0.1287 -2.5027
 7359TIP3   OH243491   1.282   4.788   0.650 -0.0865 -0.6581  0.1984
 7359TIP3    H143492   1.227   4.828   0.583 -0.0582 -1.3138 -0.2236
 7359TIP3    H243493   1.338   4.859   0.681  0.8688 -0.6752 -1.4505
 7360TIP3   OH243494   5.149   0.557   4.522 -0.5380 -0.6247 -0.0310
 7360TIP3    H143495   5.057   0.555   4.549 -0.3021  0.6461  0.9049
 7360TIP3    H243496   5.146   0.590   4.432 -0.9450  0.1883  0.2750
 7361TIP3   OH243497   4.053   4.407   5.131  0.3552  0.5201 -0.0862
 7361TIP3    H143498   4.139   4.443   5.109  0.6473 -1.9559 -3.5506
 7361TIP3    H243499   4.070   4.314   5.147 -1.3514  0.4646  1.5130
 7362TIP3   OH243500   4.834   1.743  17.126 -0.3923 -0.2146 -0.2774
 7362TIP3    H143501   4.889   1.815  17.157 -0.0896 -0.3987 -0.3813
 7362TIP3    H243502   4.822   1.687  17.203 -0.1431 -0.3554 -0.3408
 7363TIP3   OH243503   5.903   5.167   5.476  0.0878 -0.4927 -0.1139
 7363TIP3    H143504   5.842   5.139   5.408  1.3629 -1.7169 -0.7767
 7363TIP3    H243505   5.860   5.143   5.558 -0.5187 -0.9095 -0.5486
 7364TIP3   OH243506   3.790   4.280   4.083 -0.3777  0.6127  0.3504
 7364TIP3    H143507   3.829   4.365   4.106  2.0669 -0.5379  0.5206
 7364TIP3    H243508   3.697   4.300   4.070  0.3139  3.4884 -0.5064
 7365TIP3   OH243509   3.038   5.203   3.375 -0.1155 -0.1877  0.4418
 7365TIP3    H143510   3.050   5.122   3.425 -0.0182  1.8333  3.8932
 7365TIP3    H243511   2.945   5.224   3.387 -0.0730  0.3532 -0.1849
 7366TIP3   OH243512   3.781   3.558  12.474  0.7984 -0.4742  0.4196
 7366TIP3    H143513   3.689   3.546  12.451  1.2037 -0.4527 -1.2729
 7366TIP3    H243514   3.790   3.652  12.491  0.6172 -0.3979  0.0942
 7367TIP3   OH243515   5.282   3.992  16.417  0.0838  0.7736 -0.0214
 7367TIP3    H143516   5.255   3.943  16.495  0.8947  0.5395  0.1186
 7367TIP3    H243517   5.249   4.081  16.432 -0.4964  0.5188  0.2021
 7368TIP3   OH243518   1.059   0.247  16.015  0.3956  0.0598 -0.4229
 7368TIP3    H143519   1.017   0.167  15.982 -0.0974 -0.0175  0.3684
 7368TIP3    H243520   1.018   0.318  15.966 -0.9700  0.0188  0.5998
 7369TIP3   OH243521   6.530   5.809   4.905  0.5832 -0.5499 -0.3145
 7369TIP3    H143522   6.566   5.751   4.973  1.4560 -0.3341 -0.5831
 7369TIP3    H243523   6.445   5.771   4.884  0.2157 -0.5092  1.0344
 7370TIP3   OH243524   0.718   0.305  11.781  0.1233  0.7583  0.0849
 7370TIP3    H143525   0.811   0.304  11.804  0.3313 -0.2563 -0.8239
 7370TIP3    H243526   0.693   0.397  11.790  1.0517  0.9417  0.9530
 7371TIP3   OH243527   1.532   4.844   4.166 -0.1180 -1.0455  0.0239
 7371TIP3    H143528   1.539   4.779   4.235  3.5544 -1.9663 -1.1406
 7371TIP3    H243529   1.607   4.828   4.109 -0.2000  2.9641 -1.3719
 7372TIP3   OH243530   2.697   4.342  16.251 -0.1159  0.1414  0.3087
 7372TIP3    H143531   2.700   4.429  16.211 -0.1870  0.3569  0.7652
 7372TIP3    H243532   2.604   4.322  16.257 -0.1026  0.0771  0.2936
 7373TIP3   OH243533   3.674   5.673   0.917 -0.2661  0.2214 -0.2219
 7373TIP3    H143534   3.688   5.707   1.005 -1.4799  0.3459 -0.0787
 7373TIP3    H243535   3.721   5.734   0.860  1.3917 -0.4322  0.4067
 7374TIP3   OH243536   0.841   5.219   4.109  0.8694  0.2668 -0.2117
 7374TIP3    H143537   0.777   5.259   4.168 -0.9049  0.9206 -2.4870
 7374TIP3    H243538   0.904   5.176   4.167 -1.5963 -0.3346  2.1151
 7375TIP3   OH243539   3.771   2.847   4.113  0.4755  0.1158 -0.1005
 7375TIP3    H143540   3.709   2.869   4.183  0.9207 -0.2291  0.3961
 7375TIP3    H243541   3.781   2.929   4.065  0.1948  0.3649  0.2590
 7376TIP3   OH243542   4.691   6.433   1.701 -0.0719  0.0374 -0.2776
 7376TIP3    H143543   4.675   6.400   1.613  1.0312  0.5048 -0.6559
 7376TIP3    H243544   4.715   6.355   1.752 -1.8534 -0.4162 -0.0928
 7377TIP3   OH243545   6.650   5.762  11.542  0.5674  0.0445 -0.4554
 7377TIP3    H143546   6.742   5.778  11.560  0.2942  1.0025  0.1409
 7377TIP3    H243547   6.604   5.799  11.618 -0.3193 -0.1330 -0.8960
 7378TIP3   OH243548   4.833   5.800   3.933  0.4997 -0.7393  0.8159
 7378TIP3    H143549   4.911   5.831   3.978  0.9023  0.3176 -0.5490
 7378TIP3    H243550   4.866   5.750   3.859 -0.1244 -0.9689  0.6898
 7379TIP3   OH243551   4.930   1.615   0.637  0.5162  0.7844  0.1575
 7379TIP3    H143552   4.992   1.685   0.658 -0.1121  0.6455  2.6401
 7379TIP3    H243553   4.981   1.552   0.585  2.4856  0.6561  2.1695
 7380TIP3   OH243554   6.258   3.538   3.456  0.0664  0.7112  0.9662
 7380TIP3    H143555   6.268   3.572   3.367  1.5720  2.8067  1.8602
 7380TIP3    H243556   6.179   3.580   3.489 -0.4158  0.0391  0.6764
 7381TIP3   OH243557   0.042   1.082  17.167  0.1284 -1.1049 -0.5149
 7381TIP3    H143558  -0.004   1.118  17.092 -0.9030 -1.2416  0.0383
 7381TIP3    H243559   0.089   1.006  17.133 -1.8325 -2.2860 -0.6743
 7382TIP3   OH243560   0.997   5.911   2.855 -0.2340  0.0863  0.1334
 7382TIP3    H143561   0.940   5.860   2.912  1.4708  1.1946  2.9228
 7382TIP3    H243562   1.086   5.884   2.879  0.5569  1.4146 -1.1970
 7383TIP3   OH243563   2.459   5.359   5.020  0.2427 -0.5636 -0.0016
 7383TIP3    H143564   2.446   5.450   4.995  1.1924 -0.3147  0.3941
 7383TIP3    H243565   2.375   5.317   5.003 -0.7489  0.7708  1.5177
 7384TIP3   OH243566   1.549   5.973   3.196 -0.3157  0.5681 -0.3325
 7384TIP3    H143567   1.593   5.900   3.153  0.0938  1.0477 -0.7341
 7384TIP3    H243568   1.527   6.033   3.125  0.9091  1.6534  0.1884
 7385TIP3   OH243569   1.977   3.123  13.243  0.4270 -0.4093  0.0387
 7385TIP3    H143570   1.984   3.077  13.327  0.7482 -1.8421 -0.7583
 7385TIP3    H243571   2.065   3.119  13.207  0.3378  0.4084 -0.2769
 7386TIP3   OH243572   4.147   4.271   4.033 -0.0344  0.2046 -1.0726
 7386TIP3    H143573   4.198   4.256   4.113 -0.2065  1.2666 -0.7632
 7386TIP3    H243574   4.056   4.269   4.061 -0.0563  2.3924 -0.9138
 7387TIP3   OH243575   3.564   1.271   4.963 -0.0430 -0.8174 -0.3676
 7387TIP3    H143576   3.522   1.264   5.049  0.1519  2.0810 -0.0059
 7387TIP3    H243577   3.494   1.301   4.905  0.3901 -0.5723 -0.7664
 7388TIP3   OH243578   6.136   3.857   4.918 -0.2758  0.4251 -0.2409
 7388TIP3    H143579   6.104   3.816   4.838 -1.2103  1.1050 -0.2197
 7388TIP3    H243580   6.157   3.784   4.976  1.1707 -0.0894 -1.3883
 7389TIP3   OH243581   5.667   4.157  13.049  0.0588 -0.0298 -0.6767
 7389TIP3    H143582   5.628   4.244  13.047  0.5007  0.1429 -1.9295
 7389TIP3    H243583   5.751   4.167  13.003  0.5779 -0.8839  0.0615
 7390TIP3   OH243584   2.568   1.208  11.328 -0.3325 -0.6021 -0.0801
 7390TIP3    H143585   2.664   1.207  11.330 -0.2329  0.5034 -2.4258
 7390TIP3    H243586   2.545   1.163  11.247 -1.7615 -0.2538  0.1180
 7391TIP3   OH243587   6.635   2.696  17.205  0.2511  0.3283 -0.0919
 7391TIP3    H143588   6.547   2.668  17.232  1.2095 -0.9121  1.7957
 7391TIP3    H243589   6.646   2.782  17.245  0.3474 -0.0254  0.6425
 7392TIP3   OH243590   3.530   5.345   0.431 -0.4895  0.5252 -0.0853
 7392TIP3    H143591   3.586   5.283   0.478  1.3085  1.8214 -0.4753
 7392TIP3    H243592   3.463   5.290   0.390  0.0939 -0.9822  0.9160
 7393TIP3   OH243593   0.865   2.927  16.176  0.1105 -0.3417  0.3550
 7393TIP3    H143594   0.775   2.894  16.171  0.2667 -0.7752  0.4479
 7393TIP3    H243595   0.916   2.854  16.212  0.9297 -0.9386 -1.9393
 7394TIP3   OH243596   1.768   4.289   0.323 -0.3645  0.0357 -0.0290
 7394TIP3    H143597   1.831   4.285   0.395  0.8588 -2.5562 -1.1618
 7394TIP3    H243598   1.814   4.249   0.249 -2.3860  0.6168 -1.6423
 7395TIP3   OH243599   1.274   2.871  12.424  0.5456 -0.1047  0.3824
 7395TIP3    H143600   1.358   2.873  12.468  0.5310  0.3286  0.3941
 7395TIP3    H243601   1.264   2.781  12.394  0.2389 -0.5663  1.8521
 7396TIP3   OH243602   6.091   1.293   4.420 -0.1145  0.4366 -0.4948
 7396TIP3    H143603   6.125   1.251   4.499 -0.6017  0.4479 -0.2765
 7396TIP3    H243604   6.084   1.386   4.443 -2.3509  0.1155  0.1951
 7397TIP3   OH243605   6.247   4.576   6.374  0.1978 -0.7057 -0.2994
 7397TIP3    H143606   6.162   4.619   6.389  0.8676  0.1257  1.2233
 7397TIP3    H243607   6.301   4.644   6.335  0.2750 -1.1389 -0.9504
 7398TIP3   OH243608   1.655   3.879   0.781  0.5740  0.4793  0.3923
 7398TIP3    H143609   1.582   3.823   0.807  0.4426 -0.2697 -1.4792
 7398TIP3    H243610   1.618   3.939   0.717  1.4423  0.5550 -0.0540
 7399TIP3   OH243611   4.034   3.957   4.501  0.4562 -0.4329  0.9468
 7399TIP3    H143612   4.033   3.862   4.495  0.9400 -0.3685 -0.1112
 7399TIP3    H243613   4.126   3.982   4.490  0.2430  0.1965  0.5483
 7400TIP3   OH243614   3.374   3.067   2.660  0.4937  0.3156 -0.1731
 7400TIP3    H143615   3.310   3.138   2.653  0.6119  0.7949  2.7901
 7400TIP3    H243616   3.440   3.087   2.594 -0.3857  1.9947 -0.5672
 7401TIP3   OH243617   2.628   5.924   2.550 -0.7488 -0.2390 -0.4888
 7401TIP3    H143618   2.667   5.962   2.628 -3.1512  1.5121 -0.1005
 7401TIP3    H243619   2.613   5.832   2.573  0.8765 -0.3342  0.2007
 7402TIP3   OH243620   2.091   5.551   4.839 -0.2464 -0.7028 -0.5926
 7402TIP3    H143621   2.034   5.514   4.772  1.4189 -1.0533 -1.8347
 7402TIP3    H243622   2.078   5.495   4.916 -4.0074  1.1328  0.2304
 7403TIP3   OH243623   5.697   4.054  14.267  0.3910 -0.4231  0.0990
 7403TIP3    H143624   5.692   3.964  14.300  0.5560  0.0403  1.3971
 7403TIP3    H243625   5.619   4.063  14.213  0.0017 -1.1256  0.5280
 7404TIP3   OH243626   4.918   5.856  11.229  0.0229  0.0669 -0.7442
 7404TIP3    H143627   4.932   5.848  11.324  1.0127  0.0454 -0.8864
 7404TIP3    H243628   4.934   5.768  11.195  2.1959  0.6199 -1.2294
 7405TIP3   OH243629   2.538   2.856   1.705 -0.1298 -0.1522  0.6176
 7405TIP3    H143630   2.604   2.802   1.748  1.1538 -0.0812 -1.1914
 7405TIP3    H243631   2.509   2.803   1.630 -0.0601  0.9897 -0.2290
 7406TIP3   OH243632   0.182   6.418  14.569 -0.3328  0.2670  0.3327
 7406TIP3    H143633   0.197   6.326  14.591  0.8155  0.8799  2.2348
 7406TIP3    H243634   0.111   6.445  14.627 -0.4684  0.6654 -0.0191
 7407TIP3   OH243635   1.035   0.840  13.949 -0.1796  0.6767  0.0910
 7407TIP3    H143636   1.087   0.843  13.869 -0.1712 -0.3322  0.0508
 7407TIP3    H243637   1.046   0.927  13.988  0.1124  1.0513 -0.8087
 7408TIP3   OH243638   3.431   5.124   5.818  0.7828  0.1646  0.9278
 7408TIP3    H143639   3.351   5.174   5.803 -0.9132 -2.2922  1.5221
 7408TIP3    H243640   3.428   5.053   5.754  3.0046  0.5981  0.2859
 7409TIP3   OH243641   1.434   0.564   3.896 -0.5230  0.1536  0.5472
 7409TIP3    H143642   1.403   0.490   3.948 -0.3800 -0.8163 -0.7192
 7409TIP3    H243643   1.378   0.563   3.818  0.0552  0.8585  0.1171
 7410TIP3   OH243644   3.641   3.820   3.339  0.0248  0.3881 -0.1557
 7410TIP3    H143645   3.708   3.786   3.398 -0.6779 -1.3725 -0.3344
 7410TIP3    H243646   3.577   3.750   3.333 -1.0322  1.4215 -1.2613
 7411TIP3   OH243647   6.515   6.565   3.088  0.3395  0.2005 -0.2697
 7411TIP3    H143648   6.579   6.579   3.018 -0.6442  0.8165 -1.0588
 7411TIP3    H243649   6.455   6.500   3.053  0.1276  0.1484  0.1922
 7412TIP3   OH243650   6.710   1.153   3.017 -0.6151  0.3715  0.1457
 7412TIP3    H143651   6.624   1.132   2.980 -0.0758 -1.8909  0.0759
 7412TIP3    H243652   6.700   1.137   3.110  0.1606 -1.5672 -0.0727
 7413TIP3   OH243653   3.198   0.191  11.189  0.3403 -0.4286 -0.4935
 7413TIP3    H143654   3.171   0.244  11.264  2.1525  0.1223 -0.1999
 7413TIP3    H243655   3.118   0.174  11.141 -0.5421  0.9554  0.4683
 7414TIP3   OH243656   6.033   0.702   1.644 -0.0994  0.3502  0.0883
 7414TIP3    H143657   6.119   0.703   1.603 -0.4041 -1.1448 -0.6590
 7414TIP3    H243658   5.992   0.785   1.618  0.0099 -0.2335 -2.0493
 7415TIP3   OH243659   4.038   4.116  12.521  0.2523  0.3889  0.6726
 7415TIP3    H143660   3.987   4.182  12.474  0.2528  0.2399  0.4580
 7415TIP3    H243661   4.089   4.073  12.452  0.5642  0.4475  0.8710
 7416TIP3   OH243662   5.595   1.043   0.479 -0.0638  0.4824 -0.1324
 7416TIP3    H143663   5.596   1.051   0.575 -0.3603 -0.0232 -0.0842
 7416TIP3    H243664   5.506   1.067   0.455 -1.3142 -3.5036  0.1065
 7417TIP3   OH243665   6.211   3.683  14.678 -0.5543  0.4677 -0.1508
 7417TIP3    H143666   6.217   3.600  14.725 -1.6614  1.1067  1.1747
 7417TIP3    H243667   6.180   3.659  14.591  0.9123 -0.6793 -0.3687
 7418TIP3   OH243668   6.590   4.741   4.954 -0.2809 -0.7733 -0.2525
 7418TIP3    H143669   6.578   4.738   5.049 -2.8460 -0.3918 -0.5136
 7418TIP3    H243670   6.680   4.712   4.939  0.1582 -0.7680  2.2942
 7419TIP3   OH243671   4.495   2.043   0.403 -0.0750 -0.0324  0.4028
 7419TIP3    H143672   4.537   1.965   0.367  0.5622  0.2168  0.5879
 7419TIP3    H243673   4.563   2.111   0.398 -0.4160  0.3457  0.8284
 7420TIP3   OH243674   1.853   0.256  16.178  0.1926 -0.4143 -0.3419
 7420TIP3    H143675   1.923   0.199  16.211  1.6049  0.5633 -1.5464
 7420TIP3    H243676   1.799   0.199  16.124 -0.7137 -1.4725  1.6636
 7421TIP3   OH243677   0.700   3.833   2.143 -0.1718  0.1097  0.0187
 7421TIP3    H143678   0.629   3.817   2.206  1.0500  0.4304  1.4957
 7421TIP3    H243679   0.709   3.929   2.142 -0.2886  0.1127 -0.7647
 7422TIP3   OH243680   6.303   4.510   1.534  0.0385 -0.4811 -0.0478
 7422TIP3    H143681   6.283   4.537   1.444 -1.5105  0.2666  0.5111
 7422TIP3    H243682   6.288   4.416   1.534 -0.4667 -0.4023 -0.4318
 7423TIP3   OH243683   1.572   1.834   0.090 -0.2310  0.5667  0.3208
 7423TIP3    H143684   1.506   1.796   0.148  1.5121 -1.9849  0.7567
 7423TIP3    H243685   1.555   1.795   0.005  1.3141 -0.9784  0.6757
 7424TIP3   OH243686   5.625   0.912  14.592 -0.3323  0.3002  0.1353
 7424TIP3    H143687   5.576   0.991  14.614 -0.9540 -0.1185  0.2612
 7424TIP3    H243688   5.683   0.897  14.666 -2.8028 -1.4182  1.7651
 7425TIP3   OH243689   4.219   5.130  10.529  0.2670  0.2026  0.0417
 7425TIP3    H143690   4.161   5.060  10.499  1.2992 -1.2813  1.4515
 7425TIP3    H243691   4.284   5.086  10.583  1.7185  2.0885 -0.1288
 7426TIP3   OH243692   4.393   5.016   3.224 -0.0770  0.1577  0.3719
 7426TIP3    H143693   4.384   4.961   3.146  0.6875 -0.3360  0.6335
 7426TIP3    H243694   4.452   5.086   3.197 -1.7603  1.3823 -0.2398
 7427TIP3   OH243695   3.234   0.890  11.919  0.0053 -0.2747 -0.0121
 7427TIP3    H143696   3.317   0.901  11.873  0.7478 -0.2606  1.3053
 7427TIP3    H243697   3.256   0.901  12.012 -1.7764  1.4918  0.2273
 7428TIP3   OH243698   1.233   3.894  13.087 -0.5557 -0.4660  0.2246
 7428TIP3    H143699   1.222   3.921  13.178 -0.2947  0.7333 -0.0907
 7428TIP3    H243700   1.268   3.805  13.092 -1.3706 -0.7393  1.2865
 7429TIP3   OH243701   6.537   1.875   0.414 -0.0497 -0.4206 -0.0558
 7429TIP3    H143702   6.588   1.795   0.427  0.4249 -0.3336 -1.3562
 7429TIP3    H243703   6.448   1.845   0.399 -0.1540 -0.6295  0.9259
 7430TIP3   OH243704   1.480   0.409  10.814  0.2723  0.0298  0.4503
 7430TIP3    H143705   1.559   0.417  10.760  1.2604  0.4766  1.9055
 7430TIP3    H243706   1.465   0.315  10.820  1.5878 -0.1489  1.3615
 7431TIP3   OH243707   0.939   5.595   0.816  0.2371  0.0345  0.0281
 7431TIP3    H143708   0.875   5.598   0.744  0.9380 -0.0190 -0.6093
 7431TIP3    H243709   0.887   5.605   0.895 -0.6861 -1.1072 -0.4160
 7432TIP3   OH243710   0.324   5.895  16.566  0.2366 -0.3049 -0.2312
 7432TIP3    H143711   0.404   5.941  16.539  0.4463 -2.1795 -3.0594
 7432TIP3    H243712   0.351   5.804  16.575 -1.1381 -0.6140  0.9335
 7433TIP3   OH243713   1.055   1.411  14.993  0.4392 -0.0802  0.0993
 7433TIP3    H143714   0.985   1.417  15.058  1.2040  0.1071  0.9177
 7433TIP3    H243715   1.014   1.369  14.918 -1.8461  4.1673 -1.2235
 7434TIP3   OH243716   5.878   4.680   1.093  0.3749  0.4520 -0.0399
 7434TIP3    H143717   5.829   4.639   1.165 -0.5002 -0.7731 -1.3077
 7434TIP3    H243718   5.963   4.636   1.095 -0.2791 -0.8854 -0.8839
 7435TIP3   OH243719   6.079   3.432  12.359 -0.4773 -0.2112  0.5931
 7435TIP3    H143720   6.139   3.358  12.367 -0.9964 -0.6534  0.3502
 7435TIP3    H243721   6.122   3.490  12.296 -0.1461 -0.3715  0.6696
 7436TIP3   OH243722   5.460   6.472   3.393  0.3147 -0.4615  0.4496
 7436TIP3    H143723   5.517   6.444   3.321  1.6484 -0.0236  1.3032
 7436TIP3    H243724   5.517   6.526   3.448 -0.6077 -1.0086  1.9642
 7437TIP3   OH243725   2.656   5.118   5.920 -0.1675 -0.1913 -0.3997
 7437TIP3    H143726   2.638   5.063   5.997 -1.3771 -0.6872 -1.0245
 7437TIP3    H243727   2.612   5.201   5.940 -0.4779 -0.3185 -0.5480
 7438TIP3   OH243728   3.474   0.479  11.372 -0.0914  0.1890  0.1757
 7438TIP3    H143729   3.500   0.487  11.280 -1.4709  0.0685 -0.2431
 7438TIP3    H243730   3.408   0.409  11.372 -1.5859  1.5750  0.9411
 7439TIP3   OH243731   3.709   5.124  15.203 -0.2487 -0.4261  0.3608
 7439TIP3    H143732   3.796   5.126  15.164 -0.3049  0.0456  0.2582
 7439TIP3    H243733   3.649   5.144  15.131 -0.5119 -1.5850  0.2379
 7440TIP3   OH243734   6.117   3.973  11.941 -0.1024  0.0907 -0.1225
 7440TIP3    H143735   6.063   3.927  11.877 -2.1131  1.1619  0.7390
 7440TIP3    H243736   6.095   4.066  11.929  2.2305  0.6596 -0.3346
 7441TIP3   OH243737   4.179   3.387   4.552 -0.8815  0.7789  0.4681
 7441TIP3    H143738   4.233   3.315   4.585 -0.3772  0.9018 -0.0621
 7441TIP3    H243739   4.191   3.383   4.457 -0.1000  2.1438  0.5026
 7442TIP3   OH243740   4.881   0.172   3.753 -0.2254  0.2162 -0.4728
 7442TIP3    H143741   4.835   0.181   3.836  0.0887  0.5804 -0.3321
 7442TIP3    H243742   4.864   0.255   3.708 -2.0619 -0.7713 -1.6319
 7443TIP3   OH243743   6.286   2.996   5.158 -0.3393  0.5814  0.7490
 7443TIP3    H143744   6.310   2.920   5.106  0.7280  0.8793  0.7868
 7443TIP3    H243745   6.271   2.962   5.246  0.5101  0.4702  0.8525
 7444TIP3   OH243746   0.140   4.948   2.646  0.6821 -0.0432 -0.1374
 7444TIP3    H143747   0.125   4.887   2.574 -1.9898 -0.4597  0.7085
 7444TIP3    H243748   0.052   4.970   2.677  1.7391  1.2693  2.0505
 7445TIP3   OH243749   3.524   3.898  12.399  0.2454 -0.7517  0.2103
 7445TIP3    H143750   3.548   3.808  12.377 -0.4936 -0.8114 -0.3845
 7445TIP3    H243751   3.501   3.895  12.492 -0.7384 -1.3825 -0.0522
 7446TIP3   OH243752   1.099   0.218  11.404  0.2090  0.0932 -0.4045
 7446TIP3    H143753   1.143   0.289  11.358  1.3490  0.6136  1.4242
 7446TIP3    H243754   1.105   0.242  11.496 -3.0526 -0.3381 -0.0200
 7447TIP3   OH243755   3.161   4.346  12.527  0.6004 -0.6636  0.1891
 7447TIP3    H143756   3.240   4.368  12.575  0.2172 -0.0973  0.5660
 7447TIP3    H243757   3.176   4.257  12.495  1.6580 -0.3055 -0.3063
 7448TIP3   OH243758   5.723   4.598  15.189  0.3742  0.7184 -0.3854
 7448TIP3    H143759   5.818   4.613  15.181  0.2683  1.5496 -0.1516
 7448TIP3    H243760   5.685   4.685  15.181 -0.2611  0.6187  1.2913
 7449TIP3   OH243761   6.388   6.158   0.042  0.7596 -0.4363 -0.6336
 7449TIP3    H143762   6.372   6.120  -0.044 -2.2374 -0.4054 -0.1565
 7449TIP3    H243763   6.375   6.085   0.103  3.1700 -0.5326 -0.1983
 7450TIP3   OH243764   5.576   0.159   6.501  0.0897  0.3475 -0.0683
 7450TIP3    H143765   5.632   0.099   6.453  1.2103  0.8247  0.6268
 7450TIP3    H243766   5.501   0.105   6.528 -0.0129 -0.1846 -1.3660
 7451TIP3   OH243767   6.643   1.276   1.628 -0.1746  0.0732 -0.3011
 7451TIP3    H143768   6.717   1.251   1.573 -0.8772  0.9118 -1.6546
 7451TIP3    H243769   6.668   1.248   1.716  1.5887  0.0145 -0.8008
 7452TIP3   OH243770   4.080   6.666  13.186  0.3233 -0.3267 -0.2241
 7452TIP3    H143771   4.108   6.754  13.160 -1.7782  0.0156 -1.4689
 7452TIP3    H243772   4.003   6.681  13.241 -1.2651 -1.4264 -2.0920
 7453TIP3   OH243773   6.653   6.104   3.898 -0.2515  0.1249  0.7108
 7453TIP3    H143774   6.595   6.181   3.896 -0.0665  0.2555  0.1298
 7453TIP3    H243775   6.622   6.050   3.826 -1.1672 -0.9378  1.8831
 7454TIP3   OH243776   3.390   4.778  15.076 -0.3519  0.5028 -0.2729
 7454TIP3    H143777   3.398   4.846  15.009 -0.3244  1.1026  0.3355
 7454TIP3    H243778   3.371   4.826  15.157 -1.8663 -0.3284 -0.1285
 7455TIP3   OH243779   4.367   5.197   4.690 -0.5465 -0.3337  0.5478
 7455TIP3    H143780   4.387   5.143   4.614  1.6289  1.4408 -0.1954
 7455TIP3    H243781   4.280   5.168   4.719 -1.2458 -1.2664 -2.3794
 7456TIP3   OH243782   4.883   2.009   5.590 -0.0847 -0.3227  0.3722
 7456TIP3    H143783   4.835   2.075   5.540  1.0713  0.6795  0.5592
 7456TIP3    H243784   4.816   1.964   5.640 -0.9587  0.3493 -0.1667
 7457TIP3   OH243785   2.304   4.427  14.879 -0.6239  0.2110 -0.4639
 7457TIP3    H143786   2.294   4.501  14.818 -0.3438  0.2354 -0.4809
 7457TIP3    H243787   2.355   4.462  14.951 -0.1111 -0.0819 -0.6781
 7458TIP3   OH243788   1.312   0.670  14.964 -0.7782  0.5378  0.2535
 7458TIP3    H143789   1.261   0.692  14.886 -0.0393  0.8967 -0.1461
 7458TIP3    H243790   1.296   0.577  14.979 -1.7063  0.6925  0.2656
 7459TIP3   OH243791   1.555   4.610  15.261  0.0694  0.5160  0.1291
 7459TIP3    H143792   1.464   4.580  15.260  0.1289  0.2888  1.1268
 7459TIP3    H243793   1.591   4.576  15.343  1.2518  0.0184 -0.5719
 7460TIP3   OH243794   1.573   4.315   1.127 -0.1666 -0.2292  0.2589
 7460TIP3    H143795   1.612   4.239   1.171 -1.6707 -1.6060 -0.7200
 7460TIP3    H243796   1.575   4.292   1.034  2.4743  2.4328 -0.3984
 7461TIP3   OH243797   0.913   5.396   2.450  0.3243  0.1320  0.7200
 7461TIP3    H143798   0.836   5.379   2.396 -0.4864  0.8494  1.6224
 7461TIP3    H243799   0.943   5.309   2.477  2.2028 -0.4015 -2.8313
 7462TIP3   OH243800   2.951   5.457  12.614 -0.4654 -0.3700 -0.2752
 7462TIP3    H143801   2.880   5.413  12.660 -1.1111  1.0685  0.1317
 7462TIP3    H243802   3.022   5.460  12.679 -1.9414  3.1737  1.3192
 7463TIP3   OH243803   5.288   2.466   0.980  0.2361  0.1258  0.2490
 7463TIP3    H143804   5.255   2.556   0.988  1.5456  0.5190  1.6518
 7463TIP3    H243805   5.240   2.417   1.046  0.4914  0.1068  0.4239
 7464TIP3   OH243806   1.593   5.120   2.952  0.1119 -0.3255  0.2494
 7464TIP3    H143807   1.531   5.048   2.946  1.2461 -1.3595  0.7158
 7464TIP3    H243808   1.679   5.079   2.940  0.7224  1.0603 -0.2738
 7465TIP3   OH243809   1.758   6.733   5.813 -0.6015  0.3832  0.2720
 7465TIP3    H143810   1.776   6.777   5.730 -2.4010  1.6578  0.5199
 7465TIP3    H243811   1.754   6.803   5.877 -1.3006 -0.3632  1.0608
 7466TIP3   OH243812   2.929   3.041  13.453 -0.4256  0.5600  0.2427
 7466TIP3    H143813   2.937   3.135  13.434 -2.1238  0.4781 -0.9889
 7466TIP3    H243814   2.967   2.998  13.376 -1.1588  0.2394  0.0570
 7467TIP3   OH243815   1.376   0.888   4.168 -0.4098  0.3777  0.0564
 7467TIP3    H143816   1.316   0.813   4.167  0.7305 -0.5503 -2.1464
 7467TIP3    H243817   1.343   0.945   4.098 -0.4153  1.2536  0.7675
 7468TIP3   OH243818   3.658   4.679  15.551 -0.2926  0.5061  0.5470
 7468TIP3    H143819   3.629   4.674  15.642 -1.2305 -0.1793  0.2066
 7468TIP3    H243820   3.578   4.676  15.499  0.2421  0.7969 -0.3179
 7469TIP3   OH243821   4.186   4.101   5.639 -0.4895  0.5890  0.2783
 7469TIP3    H143822   4.271   4.059   5.651 -0.9846 -0.6828 -0.4687
 7469TIP3    H243823   4.155   4.068   5.554 -1.3282  1.7378  0.1212
 7470TIP3   OH243824   0.820   6.340   2.611 -0.3144  0.8492  0.0117
 7470TIP3    H143825   0.824   6.299   2.697 -0.9817  0.3082 -0.2067
 7470TIP3    H243826   0.859   6.275   2.552 -0.6902  0.8306 -0.2228
 7471TIP3   OH243827   6.097   1.034   2.838 -0.2710 -0.2529 -0.1891
 7471TIP3    H143828   6.027   1.088   2.875 -0.9694  1.2571 -3.5906
 7471TIP3    H243829   6.129   0.983   2.913 -1.3476  2.9301  2.5821
 7472TIP3   OH243830   6.357   0.148   0.169 -0.1480 -0.5122 -0.0729
 7472TIP3    H143831   6.290   0.085   0.195  0.0953 -1.0778 -0.7922
 7472TIP3    H243832   6.385   0.119   0.082  1.0939 -0.3489  0.2549
 7473TIP3   OH243833   4.549   1.653   0.103  0.7398  0.1365 -0.3729
 7473TIP3    H143834   4.547   1.599   0.023 -2.3317  3.0287 -2.3915
 7473TIP3    H243835   4.496   1.604   0.166 -0.9436  0.1232 -1.7651
 7474TIP3   OH243836   2.182   6.231   1.651 -0.0123 -0.5674 -0.0895
 7474TIP3    H143837   2.152   6.317   1.680  0.1058  0.1074 -1.9120
 7474TIP3    H243838   2.109   6.196   1.600  1.0533 -0.2497 -1.8889
 7475TIP3   OH243839   6.399   2.448   1.213  0.5710 -0.5169 -0.0467
 7475TIP3    H143840   6.425   2.496   1.292 -0.6579 -0.4108  0.3047
 7475TIP3    H243841   6.432   2.501   1.141  1.0276 -0.2159  0.3766
 7476TIP3   OH243842   3.196   1.965  11.740 -0.3114 -0.2189  0.0575
 7476TIP3    H143843   3.240   1.912  11.806 -0.7704 -3.2094 -1.9182
 7476TIP3    H243844   3.117   1.997  11.784  0.8707  0.3360  1.8359
 7477TIP3   OH243845   4.861   1.664   6.094  0.5919  0.1144 -0.1924
 7477TIP3    H143846   4.783   1.718   6.081 -0.3409 -1.0197  0.5791
 7477TIP3    H243847   4.874   1.662   6.189 -0.2286 -2.1523 -0.0906
 7478TIP3   OH243848   0.242   5.784   5.813 -0.4322  0.0552 -0.7421
 7478TIP3    H143849   0.172   5.831   5.767 -0.6126 -1.4235 -2.0148
 7478TIP3    H243850   0.196   5.714   5.859 -0.1425  0.9826  1.0056
 7479TIP3   OH243851   3.009   4.622   4.090  0.0118 -0.6460 -0.7984
 7479TIP3    H143852   2.920   4.621   4.056  0.2653  0.6051 -1.5310
 7479TIP3    H243853   3.059   4.671   4.025  0.7316  0.8540  0.8194
 7480TIP3   OH243854   6.262   5.730   5.756  0.2522 -0.8753 -0.2778
 7480TIP3    H143855   6.183   5.679   5.774 -0.6371  1.1373  1.8834
 7480TIP3    H243856   6.334   5.668   5.766 -0.9036 -2.0929  0.6823
 7481TIP3   OH243857   2.727   5.262   5.040 -0.6115  0.0707 -0.0078
 7481TIP3    H143858   2.770   5.300   4.963 -1.2363  1.4128  0.2821
 7481TIP3    H243859   2.635   5.288   5.030 -0.8922 -0.6769  0.6363
 7482TIP3   OH243860   6.776   1.327  12.088  0.0424 -0.0224 -0.5076
 7482TIP3    H143861   6.708   1.296  12.028  0.3028  2.3379 -2.0846
 7482TIP3    H243862   6.849   1.266  12.075 -0.7100 -0.8510 -0.9225
 7483TIP3   OH243863   2.247   2.287  13.779  0.4885  0.6313  0.2682
 7483TIP3    H143864   2.321   2.323  13.729  0.4275  0.3423 -0.0359
 7483TIP3    H243865   2.171   2.303  13.724  0.5874 -0.8279 -0.3333
 7484TIP3   OH243866   2.803   5.845   4.188 -0.2312 -0.3144  0.2752
 7484TIP3    H143867   2.779   5.923   4.140 -1.2827 -1.9945 -2.0114
 7484TIP3    H243868   2.891   5.863   4.222 -0.1778  1.5418 -0.8485
 7485TIP3   OH243869   4.855   1.000  12.795  0.7997  0.4198 -0.6673
 7485TIP3    H143870   4.926   1.033  12.739 -0.2069  1.0450 -1.5862
 7485TIP3    H243871   4.792   0.962  12.734 -1.1356  2.6269 -0.1090
 7486TIP3   OH243872   4.301   2.092   3.295  1.0012 -0.5754 -0.6155
 7486TIP3    H143873   4.221   2.051   3.262  1.0465  0.1192 -1.5888
 7486TIP3    H243874   4.359   2.018   3.316 -0.5397 -1.1700  1.8033
 7487TIP3   OH243875   3.654   4.789   0.417  0.1761  0.4655  0.1353
 7487TIP3    H143876   3.706   4.866   0.394 -1.3604  0.8731 -2.0981
 7487TIP3    H243877   3.718   4.720   0.430  1.4225  1.5202 -0.2746
 7488TIP3   OH243878   1.145   2.332   1.503  0.5473  0.7606  0.2885
 7488TIP3    H143879   1.172   2.393   1.572  0.0576  0.4184  0.7865
 7488TIP3    H243880   1.077   2.380   1.455  1.2405  1.1934 -0.2790
 7489TIP3   OH243881   5.876   1.386  10.507  0.0337  0.1815  0.4426
 7489TIP3    H143882   5.944   1.449  10.485  0.3749  0.0089  0.9940
 7489TIP3    H243883   5.911   1.337  10.582 -0.6844  0.0787  0.7231
 7490TIP3   OH243884   1.114   4.508  13.478  0.3664  0.4948 -0.1701
 7490TIP3    H143885   1.071   4.423  13.472  1.7570 -0.1028 -1.9850
 7490TIP3    H243886   1.202   4.489  13.512  0.7242  1.1830 -0.6931
 7491TIP3   OH243887   2.404   4.772   5.765 -0.3905 -0.0856  0.7260
 7491TIP3    H143888   2.493   4.783   5.733 -0.6778 -0.8496 -0.3341
 7491TIP3    H243889   2.385   4.854   5.811  0.1620  0.8641 -0.7000
 7492TIP3   OH243890   1.112   4.960  13.946 -0.6007 -0.1957  0.6952
 7492TIP3    H143891   1.199   4.923  13.961 -1.0385 -1.3594  0.4509
 7492TIP3    H243892   1.126   5.054  13.938  0.7880 -0.4859 -0.4574
 7493TIP3   OH243893   5.317   1.926   5.062  0.0503  0.6258  0.0510
 7493TIP3    H143894   5.286   1.971   5.140 -0.0095 -0.8613  0.8975
 7493TIP3    H243895   5.237   1.901   5.015  0.0590  0.4046  0.1540
 7494TIP3   OH243896   4.572   2.626  16.906  0.0452  0.4124 -0.4371
 7494TIP3    H143897   4.638   2.562  16.882 -0.8399 -0.4545 -0.5948
 7494TIP3    H243898   4.538   2.595  16.990  0.4010  1.3046  0.0521
 7495TIP3   OH243899   6.606   5.619  11.036  0.0199 -0.3533 -0.2726
 7495TIP3    H143900   6.557   5.679  11.092  1.0260 -0.6355  0.9288
 7495TIP3    H243901   6.628   5.671  10.958  0.4948  0.6862  0.5579
 7496TIP3   OH243902   4.507   2.565   3.523  0.1973  0.1527 -0.3571
 7496TIP3    H143903   4.488   2.476   3.494  1.6865 -0.1465 -0.4445
 7496TIP3    H243904   4.602   2.568   3.530  0.1798  1.8718 -0.7689
 7497TIP3   OH243905   2.767   4.413  15.836  0.1978  0.0640  0.5265
 7497TIP3    H143906   2.790   4.326  15.869 -0.2577 -0.0125  0.6521
 7497TIP3    H243907   2.773   4.405  15.741  0.2670 -0.0753  0.5416
 7498TIP3   OH243908   3.661   4.078  17.195  0.4357 -0.8870 -0.0826
 7498TIP3    H143909   3.634   4.111  17.109  0.9444 -1.0211 -0.3001
 7498TIP3    H243910   3.580   4.062  17.242  0.1943  1.3265  0.2770
 7499TIP3   OH243911   2.322   0.607  11.762 -0.1534  0.5128  0.4650
 7499TIP3    H143912   2.410   0.599  11.725 -0.0856 -1.2319  0.9138
 7499TIP3    H243913   2.336   0.607  11.857 -0.6602 -0.6302  0.5577
 7500TIP3   OH243914   6.646   5.433  10.686  0.4501  0.7336 -0.5462
 7500TIP3    H143915   6.617   5.465  10.601 -1.7597  0.0059 -0.0946
 7500TIP3    H243916   6.568   5.438  10.742  0.0571 -4.8540 -0.2804
 7501TIP3   OH243917   2.446   1.437  12.306  0.5315  0.0963  0.0383
 7501TIP3    H143918   2.462   1.485  12.224  0.8368 -0.3984 -0.1938
 7501TIP3    H243919   2.374   1.484  12.347 -0.8936 -0.7576 -1.4176
 7502TIP3   OH243920   5.308   3.325   0.939  0.0303  0.2432 -0.3315
 7502TIP3    H143921   5.333   3.251   0.883 -0.5723  0.1968 -0.5460
 7502TIP3    H243922   5.215   3.337   0.922  0.1146  1.0164 -0.2472
 7503TIP3   OH243923   2.585   5.525   5.510 -0.0033  0.6522 -0.1955
 7503TIP3    H143924   2.493   5.544   5.526  0.8217  3.9558  1.0037
 7503TIP3    H243925   2.596   5.540   5.416 -0.5245  1.0277 -0.1990
 7504TIP3   OH243926   5.979   0.139  16.629 -0.0315 -0.1868 -0.0754
 7504TIP3    H143927   5.967   0.121  16.722  3.7179  0.5921  0.6371
 7504TIP3    H243928   6.054   0.085  16.604 -1.7269 -1.2967 -2.9642
 7505TIP3   OH243929   1.864   0.865  13.397  0.0452  0.5685 -0.2012
 7505TIP3    H143930   1.810   0.917  13.457  1.9407  2.1890  0.1520
 7505TIP3    H243931   1.906   0.930  13.341 -1.8570 -0.9312 -3.5028
 7506TIP3   OH243932   6.000   0.576  12.158 -0.4044 -0.8657  0.3317
 7506TIP3    H143933   5.962   0.508  12.101 -1.4531 -0.1557  0.1656
 7506TIP3    H243934   6.004   0.654  12.102 -0.0835 -0.5414  0.8058
 7507TIP3   OH243935   1.852   2.610  14.272 -0.5133 -0.3967  0.1038
 7507TIP3    H143936   1.929   2.572  14.314 -0.1240 -0.3100 -0.5388
 7507TIP3    H243937   1.880   2.631  14.183 -1.0771  0.2807  0.0855
 7508TIP3   OH243938   1.309   0.439  12.953  0.1210 -0.7059 -0.3958
 7508TIP3    H143939   1.220   0.412  12.929 -0.3080  0.1149  0.2558
 7508TIP3    H243940   1.360   0.425  12.873 -0.4980 -1.6067 -0.6430
 7509TIP3   OH243941   4.971   3.907  14.408  0.0256  0.5292 -0.0645
 7509TIP3    H143942   4.964   3.947  14.495  1.0051  0.5005  0.0334
 7509TIP3    H243943   5.022   3.970  14.357 -1.0647  0.8233 -0.7878
 7510TIP3   OH243944   6.052   2.541  13.165 -0.1902  0.2876  0.3697
 7510TIP3    H143945   6.101   2.618  13.134  2.0164 -0.8559  0.8985
 7510TIP3    H243946   6.001   2.573  13.239  0.1752  1.4085  0.1501
 7511TIP3   OH243947   1.709   3.549  11.932 -0.0753 -0.0461 -0.1103
 7511TIP3    H143948   1.722   3.471  11.879  0.2711  0.0212 -0.1317
 7511TIP3    H243949   1.679   3.616  11.870 -0.0002 -0.0595 -0.1620
 7512TIP3   OH243950   4.686   5.133  10.786  0.2826 -0.2097 -0.0278
 7512TIP3    H143951   4.703   5.059  10.844  0.6397 -0.6854 -0.7310
 7512TIP3    H243952   4.770   5.180  10.781  0.5145 -0.6978 -0.8896
 7513TIP3   OH243953   6.170   2.180  11.894  0.1074  0.0154  0.1709
 7513TIP3    H143954   6.216   2.264  11.894 -0.4242  0.3175 -1.1873
 7513TIP3    H243955   6.101   2.191  11.960  0.1804  0.5756  0.1606
 7514TIP3   OH243956   0.671   2.728   1.489 -0.2355 -0.2954 -0.0857
 7514TIP3    H143957   0.651   2.773   1.571  1.5864 -1.0000  0.7759
 7514TIP3    H243958   0.752   2.769   1.458 -0.0006 -1.1759 -0.6622
 7515TIP3   OH243959   2.005   2.437  15.480 -0.1242  0.9004 -0.5685
 7515TIP3    H143960   2.018   2.484  15.398 -1.7946  0.2782 -1.2033
 7515TIP3    H243961   1.983   2.348  15.454  2.5934 -0.1778  0.6283
 7516TIP3   OH243962   5.949   6.247  15.829  0.2786 -0.3558 -0.4529
 7516TIP3    H143963   6.028   6.299  15.841 -0.6805  1.5973 -2.4315
 7516TIP3    H243964   5.897   6.264  15.908  0.1918  1.3508 -0.8530
 7517TIP3   OH243965   3.773   0.916  12.623  0.8505  0.2136 -0.6558
 7517TIP3    H143966   3.795   0.924  12.530  0.0642  2.7793 -0.6575
 7517TIP3    H243967   3.789   1.003  12.659  0.3264 -0.5235  1.4422
 7518TIP3   OH243968   3.460   4.707  14.384 -0.0749  0.4479 -0.1334
 7518TIP3    H143969   3.441   4.660  14.303 -2.3717  0.0188  0.6269
 7518TIP3    H243970   3.400   4.782  14.383 -0.0726  0.4726  1.1468
 7519TIP3   OH243971   4.960   1.740  12.443  0.0432 -0.6622  0.3401
 7519TIP3    H143972   5.031   1.800  12.465 -0.6852  0.8011 -1.1206
 7519TIP3    H243973   4.942   1.692  12.524  0.1105  1.6757  1.7911
 7520TIP3   OH243974   2.615   5.571   2.308 -0.0384 -0.3334  0.5662
 7520TIP3    H143975   2.615   5.661   2.275  1.3259  0.6353  3.0891
 7520TIP3    H243976   2.684   5.528   2.257  1.5047  0.9225  1.5533
 7521TIP3   OH243977   4.463   6.120  16.085 -0.0729  0.3979  0.0113
 7521TIP3    H143978   4.418   6.097  16.003 -1.1409  0.3074  0.6163
 7521TIP3    H243979   4.516   6.196  16.062  0.2393 -0.0936 -0.9602
 7522TIP3   OH243980   0.310   1.099   0.333  0.5781  0.3833  0.1532
 7522TIP3    H143981   0.373   1.037   0.299  0.2345  0.3218 -0.3783
 7522TIP3    H243982   0.268   1.137   0.255  1.4177  1.9379  0.4364
 7523TIP3   OH243983   2.828   0.425   2.382  0.0213  0.0412 -0.9012
 7523TIP3    H143984   2.830   0.378   2.465  1.3133  0.4966 -0.6766
 7523TIP3    H243985   2.745   0.397   2.342 -0.3795 -0.5589  0.3042
 7524TIP3   OH243986   6.495   4.211  14.276 -0.4001 -0.3131 -0.0418
 7524TIP3    H143987   6.562   4.231  14.341 -0.1679 -0.9492 -0.0834
 7524TIP3    H243988   6.433   4.154  14.321 -1.6659  1.3988  0.4159
 7525TIP3   OH243989   2.774   4.240  14.255 -0.2965  0.3242  0.2157
 7525TIP3    H143990   2.824   4.217  14.333  1.7632  0.6528 -0.9694
 7525TIP3    H243991   2.751   4.156  14.215  1.8179  0.1863 -0.7659
 7526TIP3   OH243992   3.940   3.355   3.731 -0.6616 -0.4866  0.4948
 7526TIP3    H143993   3.915   3.447   3.737  0.8370 -0.1263  1.2735
 7526TIP3    H243994   3.927   3.333   3.639 -0.2363  0.7349  0.1306
 7527TIP3   OH243995   4.207   5.298   5.215  0.0035 -0.0182  0.5308
 7527TIP3    H143996   4.254   5.378   5.239  1.3826 -0.9705  1.0250
 7527TIP3    H243997   4.230   5.235   5.282  0.3983 -1.3855 -0.8581
 7528TIP3   OH243998   2.685   4.547  16.550  0.0429 -0.6789 -0.7619
 7528TIP3    H143999   2.706   4.605  16.623  1.6734 -0.7822 -1.1416
 7528TIP3    H244000   2.624   4.597  16.496 -0.8539 -0.4469  0.4347
 7529TIP3   OH244001   0.204   2.405   0.055 -0.1638  0.0562  0.1226
 7529TIP3    H144002   0.259   2.470   0.099  1.1804  0.2292 -1.7628
 7529TIP3    H244003   0.262   2.331   0.040 -1.0408 -0.6156  0.0501
 7530TIP3   OH244004   4.766   2.902   2.067 -0.0033  0.1059  0.1552
 7530TIP3    H144005   4.788   2.879   1.977 -1.2427  1.9777 -0.6607
 7530TIP3    H244006   4.843   2.948   2.100  0.4847 -0.6571  0.0805
 7531TIP3   OH244007   1.390   3.047   4.531  0.2158 -0.2781  0.1255
 7531TIP3    H144008   1.455   3.059   4.601 -0.2312  0.6823  0.3842
 7531TIP3    H244009   1.333   3.124   4.537 -1.5595 -1.5966  0.5320
 7532TIP3   OH244010   3.159   3.683  13.901  0.4398  0.3858  0.1993
 7532TIP3    H144011   3.204   3.764  13.927  1.1556  0.3167 -0.7663
 7532TIP3    H244012   3.191   3.666  13.812  0.0039 -0.7526  0.2530
 7533TIP3   OH244013   3.347   6.074  11.738  0.2744  0.2561  0.1901
 7533TIP3    H144014   3.344   6.158  11.784  0.1066  0.3692 -0.0292
 7533TIP3    H244015   3.257   6.059  11.709  0.1897 -0.2729  0.7218
 7534TIP3   OH244016   1.455   3.439   5.823  0.1026  0.2717  0.3376
 7534TIP3    H144017   1.441   3.457   5.915  3.5130 -2.4315  1.5038
 7534TIP3    H244018   1.524   3.500   5.797 -0.8118  0.9908 -0.4190
 7535TIP3   OH244019   1.618   3.915  11.563  0.2062  0.1238 -0.3576
 7535TIP3    H144020   1.676   3.987  11.539 -0.4062  0.9125  0.4827
 7535TIP3    H244021   1.636   3.847  11.498 -1.9083  2.4498 -3.5028
 7536TIP3   OH244022   2.932   6.000   3.736  0.4550  0.5328  0.0694
 7536TIP3    H144023   2.954   6.056   3.811  1.0341 -0.4189  0.6292
 7536TIP3    H244024   2.842   6.024   3.713 -0.2173 -0.1100  1.9436
 7537TIP3   OH244025   0.936   1.290  16.961  0.2451  0.1257  0.5257
 7537TIP3    H144026   0.844   1.279  16.936  0.0252  0.5709  1.1285
 7537TIP3    H244027   0.964   1.369  16.914  0.5209 -0.3946 -0.1981
 7538TIP3   OH244028   0.655   4.006  12.118  0.5267  1.1490  0.5447
 7538TIP3    H144029   0.722   4.068  12.090  1.8433 -0.3526  0.2695
 7538TIP3    H244030   0.589   4.059  12.162  2.5086  2.5327  1.9418
 7539TIP3   OH244031   2.825   2.142  14.407 -0.4723 -0.0168 -0.8747
 7539TIP3    H144032   2.825   2.206  14.478 -0.9803  0.8500 -1.6421
 7539TIP3    H244033   2.835   2.195  14.328  0.4524 -1.0020 -1.4265
 7540TIP3   OH244034   1.020   6.747   2.259  0.0268  0.0444  0.0629
 7540TIP3    H144035   1.109   6.776   2.281  0.6586 -0.7584 -1.3274
 7540TIP3    H244036   0.995   6.802   2.185  0.3882 -1.4202 -1.1878
 7541TIP3   OH244037   3.342   3.964   6.106  0.2494 -0.1184  0.7484
 7541TIP3    H144038   3.368   4.027   6.039  1.1454 -1.4355 -0.1539
 7541TIP3    H244039   3.305   4.018   6.176 -0.2642  1.3043 -0.5879
 7542TIP3   OH244040   6.268   1.042  16.465 -0.2814 -0.0841 -0.3187
 7542TIP3    H144041   6.351   1.023  16.420  0.1928  1.1473  0.0024
 7542TIP3    H244042   6.270   0.985  16.542  0.6772  0.5440  0.1379
 7543TIP3   OH244043   2.362   2.706   2.378  0.0587 -0.1235  0.1255
 7543TIP3    H144044   2.347   2.628   2.431 -0.5371 -0.5901 -0.7154
 7543TIP3    H244045   2.445   2.689   2.334 -0.4431 -0.6195 -0.6393
 7544TIP3   OH244046   5.056   0.399   2.144  0.3540 -0.3945 -0.4717
 7544TIP3    H144047   4.997   0.473   2.158  1.8220  0.6926  0.2804
 7544TIP3    H244048   5.030   0.335   2.210  0.0247  0.0809 -0.1331
 7545TIP3   OH244049   0.303   6.435  16.686 -0.3414  0.0036 -0.4521
 7545TIP3    H144050   0.372   6.454  16.623  1.7220  0.6742  1.9589
 7545TIP3    H244051   0.275   6.521  16.718 -0.1329 -0.4016  0.8524
 7546TIP3   OH244052   5.257   4.948   0.433 -0.3454  0.1055 -0.2269
 7546TIP3    H144053   5.235   4.910   0.518  0.1248 -0.4183 -0.3376
 7546TIP3    H244054   5.350   4.928   0.421  0.2039  2.2607  0.2216
 7547TIP3   OH244055   4.553   3.726   2.888 -0.3552 -0.4623 -0.4473
 7547TIP3    H144056   4.624   3.763   2.836 -1.1099  0.6123 -0.7348
 7547TIP3    H244057   4.598   3.673   2.954  0.7524  0.6819 -0.2456
 7548TIP3   OH244058   4.750   5.216  15.554 -0.6848  0.1896  0.1631
 7548TIP3    H144059   4.712   5.228  15.641  2.5777 -0.0469  1.6800
 7548TIP3    H244060   4.843   5.237  15.565  0.0472 -1.1243 -2.9886
 7549TIP3   OH244061   2.641   1.598  16.184  0.0080 -0.8069  0.1181
 7549TIP3    H144062   2.596   1.519  16.216  0.6105 -1.2892 -0.2358
 7549TIP3    H244063   2.581   1.669  16.207  0.2619 -1.1687  2.0684
 7550TIP3   OH244064   3.630   3.903   1.478  0.0910  0.5055 -0.2359
 7550TIP3    H144065   3.548   3.942   1.509  1.4774  1.8294  1.9215
 7550TIP3    H244066   3.676   3.974   1.435  1.6750  0.7368  1.7707
 7551TIP3   OH244067   4.899   2.253  11.483 -0.2145 -0.0368 -0.4101
 7551TIP3    H144068   4.954   2.268  11.407  0.0691 -1.6592 -0.5586
 7551TIP3    H244069   4.834   2.189  11.453 -0.3668 -0.3585  0.5827
 7552TIP3   OH244070   4.872   0.764   3.758 -0.3776  0.7217  0.9152
 7552TIP3    H144071   4.941   0.758   3.692  0.2094 -0.5903  1.6379
 7552TIP3    H244072   4.797   0.718   3.719 -0.1463  0.2581  1.0179
 7553TIP3   OH244073   1.919   1.846  15.084  0.0502  0.2590 -0.5736
 7553TIP3    H144074   1.912   1.753  15.107 -0.8233  0.3520 -0.4246
 7553TIP3    H244075   1.931   1.846  14.989  1.5968 -0.0520 -0.3959
 7554TIP3   OH244076   1.708   4.268   3.503  0.0446 -0.1766  0.2250
 7554TIP3    H144077   1.799   4.272   3.475  0.1567 -0.7489  0.4895
 7554TIP3    H244078   1.667   4.207   3.442 -0.4228  0.9223 -0.5735
 7555TIP3   OH244079   2.471   2.568   3.305 -0.4041  0.1856 -0.0957
 7555TIP3    H144080   2.523   2.546   3.381  0.5593  0.2213 -0.7347
 7555TIP3    H244081   2.380   2.557   3.333 -0.0066 -2.0774  0.3460
 7556TIP3   OH244082   0.790   5.171   5.790 -0.0281  0.1134  0.0587
 7556TIP3    H144083   0.784   5.091   5.843  1.3745  0.5899  0.9481
 7556TIP3    H244084   0.780   5.242   5.853  3.1437  0.7279 -0.0365
 7557TIP3   OH244085   6.119   0.963   1.844 -0.4248 -0.3562 -0.5394
 7557TIP3    H144086   6.087   1.033   1.787 -1.2906  0.1247  0.5058
 7557TIP3    H244087   6.182   0.914   1.791 -1.0227  0.2423 -1.8016
 7558TIP3   OH244088   2.608   3.896   5.008  0.1204 -0.2917  0.4520
 7558TIP3    H144089   2.626   3.990   5.021 -0.0878 -0.2160  0.1931
 7558TIP3    H244090   2.688   3.862   4.969  0.2968 -0.2761  0.7926
 7559TIP3   OH244091   2.556   3.815   1.322 -0.0194  0.4055  0.0401
 7559TIP3    H144092   2.509   3.808   1.239 -2.3317 -1.2115  1.4293
 7559TIP3    H244093   2.512   3.887   1.368  0.2721  0.3008  0.4795
 7560TIP3   OH244094   5.916   4.529  13.959 -0.0097 -0.5311 -0.3241
 7560TIP3    H144095   5.853   4.566  13.897  0.5147  1.0064  0.0437
 7560TIP3    H244096   5.988   4.498  13.905 -0.5510 -1.2123 -0.6545
 7561TIP3   OH244097   3.960   3.976   0.542  0.3496  0.2783  0.2406
 7561TIP3    H144098   3.973   3.992   0.449  0.5178 -1.8879 -0.1330
 7561TIP3    H244099   3.991   4.055   0.585  0.2410  1.3088 -1.5415
 7562TIP3   OH244100   4.899   1.022   3.179  0.4007  0.0739  0.5740
 7562TIP3    H144101   4.840   0.975   3.120  2.2529 -1.1047 -0.3738
 7562TIP3    H244102   4.869   0.999   3.267 -0.2703 -0.8557  0.1022
 7563TIP3   OH244103   2.356   5.933  16.446  0.2234  0.4638 -0.3435
 7563TIP3    H144104   2.371   5.993  16.519  1.0396  0.3907 -0.4410
 7563TIP3    H244105   2.335   5.849  16.488  2.5172 -0.0582 -0.1331
 7564TIP3   OH244106   1.907   2.849  15.298  0.0386 -0.4014 -0.6724
 7564TIP3    H144107   1.844   2.838  15.370  0.5943 -0.6964 -0.2252
 7564TIP3    H244108   1.860   2.901  15.233 -0.3916  0.0658  0.0064
 7565TIP3   OH244109   1.430   4.750  16.566 -0.2630  0.2431 -0.0097
 7565TIP3    H144110   1.402   4.807  16.638 -1.7594 -1.7277  1.0094
 7565TIP3    H244111   1.448   4.666  16.607 -0.1042 -0.6182 -1.7842
 7566TIP3   OH244112   1.724   0.720  11.945 -0.6065 -0.1698 -0.0074
 7566TIP3    H144113   1.771   0.709  11.862  1.7251 -2.1948  1.4829
 7566TIP3    H244114   1.778   0.781  11.995 -1.2523 -0.0400  0.5345
 7567TIP3   OH244115   3.149   4.492   3.816 -0.2778  0.9068 -0.2432
 7567TIP3    H144116   3.134   4.584   3.834  2.4867  0.9227  2.5097
 7567TIP3    H244117   3.075   4.447   3.858 -0.9644  1.7964 -0.4900
 7568TIP3   OH244118   0.278   2.417  16.615  0.4727 -0.4123  0.2582
 7568TIP3    H144119   0.224   2.348  16.576 -0.5534  0.0470  0.8361
 7568TIP3    H244120   0.277   2.398  16.708 -0.0769  0.5488  0.4570
 7569TIP3   OH244121   6.228   5.079   3.132  0.2931  0.3697 -0.3701
 7569TIP3    H144122   6.255   5.131   3.208  0.3868  2.2905 -1.6898
 7569TIP3    H244123   6.297   5.013   3.123  2.3735  2.5530 -1.0934
 7570TIP3   OH244124   5.585   0.522   3.564 -0.1167 -0.5638 -0.3268
 7570TIP3    H144125   5.677   0.514   3.538 -0.1216  0.8521 -0.7825
 7570TIP3    H244126   5.541   0.454   3.513  0.4799 -0.3890 -1.0928
 7571TIP3   OH244127   6.207   3.235  10.992 -0.2028  0.8561 -0.4899
 7571TIP3    H144128   6.127   3.258  11.040  1.2278  1.6299  1.6252
 7571TIP3    H244129   6.244   3.319  10.966  0.7436  0.5897 -0.0364
 7572TIP3   OH244130   1.571   5.225  13.833  0.2807  0.8582 -0.2172
 7572TIP3    H144131   1.540   5.313  13.851  0.2499  0.4631  1.7570
 7572TIP3    H244132   1.615   5.232  13.748  2.8407  3.4121  1.2348
 7573TIP3   OH244133   3.639   3.119   5.757  0.3060  0.6154  0.3434
 7573TIP3    H144134   3.605   3.203   5.726  0.7040  0.3256 -0.8732
 7573TIP3    H244135   3.586   3.054   5.712 -0.9793  0.1882  2.3659
 7574TIP3   OH244136   5.094   1.436  13.898  0.2964 -0.3468  0.1641
 7574TIP3    H144137   5.144   1.504  13.853  0.9223  0.5756  2.1718
 7574TIP3    H244138   5.146   1.357  13.889  0.7673 -0.0105 -0.1115
 7575TIP3   OH244139   6.273   1.214   2.690  0.1276 -0.1366  0.5275
 7575TIP3    H144140   6.262   1.133   2.740 -2.2403  1.0731  2.0806
 7575TIP3    H244141   6.184   1.236   2.661  0.9678  1.0817 -1.1931
 7576TIP3   OH244142   3.012   4.696   1.517  0.5836 -0.0358  0.6698
 7576TIP3    H144143   2.946   4.750   1.472 -0.8474 -0.6279  2.0040
 7576TIP3    H244144   3.069   4.664   1.447 -0.6476  0.3567 -0.5410
 7577TIP3   OH244145   6.733   5.387  11.307 -0.1632  0.0364 -0.1308
 7577TIP3    H144146   6.805   5.449  11.316 -0.0751 -0.3211  1.9720
 7577TIP3    H244147   6.654   5.441  11.300  0.1954  0.4092 -1.4057
 7578TIP3   OH244148   5.510   3.436   2.260  0.7387  0.3081 -0.1192
 7578TIP3    H144149   5.459   3.409   2.336  1.6005  0.4130  0.5042
 7578TIP3    H244150   5.530   3.355   2.214 -0.0590  0.2756 -0.4058
 7579TIP3   OH244151   3.215   1.207   2.700  0.3236 -0.2749 -0.2984
 7579TIP3    H144152   3.238   1.180   2.611  1.0719  0.4734 -0.3399
 7579TIP3    H244153   3.282   1.167   2.755  0.1820 -0.2814 -0.1321
 7580TIP3   OH244154   2.061   0.354   2.719 -0.5781  0.2598 -0.0299
 7580TIP3    H144155   2.091   0.357   2.810  2.4158 -2.2049 -0.8270
 7580TIP3    H244156   2.139   0.378   2.668 -1.4573 -1.0239 -2.0194
 7581TIP3   OH244157   2.216   3.636  13.337 -0.5641 -0.3216 -0.2877
 7581TIP3    H144158   2.238   3.584  13.414  0.6611 -0.7896 -0.9364
 7581TIP3    H244159   2.121   3.649  13.342 -0.2036  1.7259  2.5981
 7582TIP3   OH244160   5.782   3.339   4.309 -0.4794  0.0428 -0.4096
 7582TIP3    H144161   5.806   3.383   4.391  0.0329  1.4450 -1.2804
 7582TIP3    H244162   5.696   3.374   4.287 -1.0934 -1.1574  0.0947
 7583TIP3   OH244163   3.806   0.149   0.273  0.7825 -0.3434  0.2310
 7583TIP3    H144164   3.725   0.108   0.303  0.2410 -1.2100 -2.3166
 7583TIP3    H244165   3.778   0.230   0.231  1.0678 -1.3943 -2.0254
 7584TIP3   OH244166   0.888   2.511   3.613 -0.6185 -0.5338 -0.6394
 7584TIP3    H144167   0.880   2.493   3.707  0.1978 -1.5926 -0.7642
 7584TIP3    H244168   0.898   2.606   3.608  1.0422 -0.6265  0.4986
 7585TIP3   OH244169   1.630   4.117   3.784  0.1901 -0.1194  0.1116
 7585TIP3    H144170   1.649   4.135   3.876  1.6087  0.7296 -0.3293
 7585TIP3    H244171   1.668   4.191   3.737  0.1305 -0.9164 -1.2188
 7586TIP3   OH244172   1.463   3.244  16.927 -0.7631 -0.4045 -0.2655
 7586TIP3    H144173   1.419   3.303  16.989  0.5179  0.6451 -0.3434
 7586TIP3    H244174   1.477   3.298  16.849  0.8471 -0.6635 -0.1654
 7587TIP3   OH244175   0.645   6.158   1.658  0.0358  0.4945 -0.5568
 7587TIP3    H144176   0.686   6.226   1.605 -1.3049  0.8566 -1.1236
 7587TIP3    H244177   0.697   6.157   1.739  0.5928  1.5786 -0.8934
 7588TIP3   OH244178   2.117   0.545   6.398  0.0205  0.4591  0.2472
 7588TIP3    H144179   2.098   0.453   6.419  0.2155  0.5217  0.6953
 7588TIP3    H244180   2.177   0.540   6.324  2.1110  0.1670  1.9023
 7589TIP3   OH244181   6.666   5.919  15.412  0.5851  0.3840 -0.3738
 7589TIP3    H144182   6.625   5.837  15.441  0.5304  1.2351  2.0721
 7589TIP3    H244183   6.736   5.891  15.354 -0.4039 -1.3321 -0.7973
 7590TIP3   OH244184   4.354   2.262   6.110  0.3628  0.4495 -0.0152
 7590TIP3    H144185   4.399   2.179   6.092  2.0301  1.2964  0.1927
 7590TIP3    H244186   4.409   2.306   6.175 -0.9123  1.3982  0.4623
 7591TIP3   OH244187   3.707   3.539  16.287 -0.3034 -0.2272  0.2389
 7591TIP3    H144188   3.636   3.476  16.297  0.7420 -1.4345  0.2382
 7591TIP3    H244189   3.663   3.624  16.281 -1.9544 -1.1925 -2.8615
 7592TIP3   OH244190   1.476   2.810   4.302  0.0589 -0.2895 -0.6008
 7592TIP3    H144191   1.404   2.866   4.331  2.1423  2.7890 -1.0820
 7592TIP3    H244192   1.461   2.797   4.208 -0.5349 -0.6642 -0.4489
 7593TIP3   OH244193   3.468   1.295   1.022 -0.0362 -0.6835  0.1224
 7593TIP3    H144194   3.383   1.318   0.985  0.7461 -0.7412 -1.7609
 7593TIP3    H244195   3.448   1.226   1.085 -1.2907 -1.3471 -0.9581
 7594TIP3   OH244196   4.683   4.611  15.251  0.1064  0.4533 -0.1744
 7594TIP3    H144197   4.710   4.703  15.255  2.2388 -0.1010 -1.3279
 7594TIP3    H244198   4.683   4.590  15.158  1.4378 -1.2179  0.1791
 7595TIP3   OH244199   5.091   1.686   6.391  0.3408 -0.2370 -0.4777
 7595TIP3    H144200   5.061   1.734   6.468 -1.3723 -0.8111 -0.7714
 7595TIP3    H244201   5.179   1.721   6.374  0.6992 -0.0330  1.6639
 7596TIP3   OH244202   3.084   4.427   3.537  0.1733  0.0244 -0.5392
 7596TIP3    H144203   3.123   4.461   3.617  0.6169  1.5101 -1.3748
 7596TIP3    H244204   2.990   4.439   3.548  0.2133 -0.0592 -0.1176
 7597TIP3   OH244205   4.507   4.049  12.356  0.1600 -0.3278  0.4100
 7597TIP3    H144206   4.534   4.107  12.285 -0.0364  0.3585  0.8923
 7597TIP3    H244207   4.447   3.987  12.315  1.6412 -1.2249 -0.4589
 7598TIP3   OH244208   3.452   1.938   5.839 -0.5247 -0.5502  0.4119
 7598TIP3    H144209   3.499   2.004   5.788 -1.6511 -0.7503 -0.9221
 7598TIP3    H244210   3.521   1.889   5.883  0.4097  0.4600  0.1019
 7599TIP3   OH244211   0.136   5.846  13.587  0.5691  0.6918  0.0270
 7599TIP3    H144212   0.176   5.885  13.665 -0.1760  1.3535  0.0845
 7599TIP3    H244213   0.042   5.865  13.596  0.9051  4.2601 -2.9922
 7600TIP3   OH244214   1.450   2.411   2.878  0.2567  0.0721  0.1335
 7600TIP3    H144215   1.522   2.472   2.861  0.4249  0.3954  1.8190
 7600TIP3    H244216   1.459   2.343   2.812  1.3647  0.7708 -0.4489
 7601TIP3   OH244217   3.511   1.958   0.996  0.0399 -0.0279  0.1120
 7601TIP3    H144218   3.439   1.895   0.998 -0.5862  0.6811  0.3593
 7601TIP3    H244219   3.578   1.920   1.053  0.5925 -1.5353 -1.4772
 7602TIP3   OH244220   3.746   6.543   1.432 -0.2269 -0.5414 -0.0868
 7602TIP3    H144221   3.806   6.617   1.442 -1.4163  0.4054  0.0945
 7602TIP3    H244222   3.689   6.568   1.359  1.7070 -2.8710 -2.4943
 7603TIP3   OH244223   1.243   6.554  13.537 -0.2558  0.2862 -0.0648
 7603TIP3    H144224   1.231   6.629  13.596 -0.5442  1.2412 -1.2989
 7603TIP3    H244225   1.160   6.549  13.489  0.1589 -0.1743 -0.7329
 7604TIP3   OH244226   2.823   3.236  12.962  0.9011 -0.3601  0.4411
 7604TIP3    H144227   2.768   3.303  13.002 -0.5411 -2.1634  1.5642
 7604TIP3    H244228   2.880   3.285  12.903 -0.7260  1.7629  0.5328
 7605TIP3   OH244229   5.449   6.106  15.881  0.1696  0.8135  0.2868
 7605TIP3    H144230   5.484   6.111  15.970 -0.8620 -0.0551  0.7459
 7605TIP3    H244231   5.519   6.142  15.826  0.8832  1.1879  1.4197
 7606TIP3   OH244232   6.212   5.518   2.390  0.2316  0.1841 -1.0180
 7606TIP3    H144233   6.183   5.430   2.413  0.0465  0.1003 -1.5768
 7606TIP3    H244234   6.195   5.526   2.296 -1.5439  1.4667 -0.6362
 7607TIP3   OH244235   6.101   2.164   0.143 -0.4860 -0.0426  1.4618
 7607TIP3    H144236   6.017   2.118   0.138 -0.9310  0.8267  0.8394
 7607TIP3    H244237   6.130   2.152   0.234 -0.6041 -1.5270  1.3187
 7608TIP3   OH244238   6.746   2.453  13.079  0.1036  0.2121  0.2683
 7608TIP3    H144239   6.825   2.493  13.043 -0.7824  0.9725 -0.8638
 7608TIP3    H244240   6.710   2.402  13.007 -1.8446  1.9871 -0.0454
 7609TIP3   OH244241   4.263   4.516   0.685  0.1624 -1.2483 -0.1431
 7609TIP3    H144242   4.185   4.571   0.680 -0.4817 -1.9641  1.6147
 7609TIP3    H244243   4.274   4.482   0.596  0.1425  1.0985 -1.0659
 7610TIP3   OH244244   5.458   2.600  11.358  0.5270 -0.0576 -0.1697
 7610TIP3    H144245   5.368   2.573  11.377  0.8786 -0.2823  1.2884
 7610TIP3    H244246   5.498   2.610  11.444  1.6401  0.9371 -0.7894
 7611TIP3   OH244247   2.556   4.075   1.397  0.1348  0.3819 -0.5263
 7611TIP3    H144248   2.641   4.048   1.433  0.2759  1.1607 -0.2686
 7611TIP3    H244249   2.543   4.164   1.431 -0.9226  0.1524 -0.3327
 7612TIP3   OH244250   3.151   2.671   0.488  0.6161 -0.2661 -0.2881
 7612TIP3    H144251   3.096   2.747   0.509  1.4811  0.0546  0.8078
 7612TIP3    H244252   3.094   2.596   0.504  0.3387  0.0820  0.4060
 7613TIP3   OH244253   3.183   3.113   0.951  0.0347  0.1837  0.4817
 7613TIP3    H144254   3.122   3.175   0.991  0.1388  0.3381  0.4016
 7613TIP3    H244255   3.131   3.070   0.882 -0.1138 -0.0081  0.7120
 7614TIP3   OH244256   5.135   1.591  10.662  0.1762  0.3539  0.0061
 7614TIP3    H144257   5.076   1.530  10.617  2.6064 -0.3552 -2.2977
 7614TIP3    H244258   5.178   1.538  10.729  0.1968  0.2515 -0.0899
 7615TIP3   OH244259   3.571   3.219   5.108  0.3608  0.3106  0.1495
 7615TIP3    H144260   3.484   3.185   5.127  1.5953 -3.2592 -0.2455
 7615TIP3    H244261   3.571   3.231   5.013  0.1498  0.8049  0.2098
 7616TIP3   OH244262   1.631   0.694  13.428 -0.3213 -0.1891  0.0865
 7616TIP3    H144263   1.649   0.619  13.371  1.3179  0.9573 -0.9226
 7616TIP3    H244264   1.702   0.756  13.411 -2.0702  1.9424  0.3397
 7617TIP3   OH244265   3.761   1.960  16.611  0.1544  0.2435  0.2952
 7617TIP3    H144266   3.691   1.955  16.547 -0.4554 -1.0313  1.0457
 7617TIP3    H244267   3.741   2.039  16.662 -1.2458 -0.5970  1.0799
 7618TIP3   OH244268   0.119   3.811   3.324  0.0875 -0.4722 -0.1402
 7618TIP3    H144269   0.184   3.868   3.365  1.0627 -1.5813 -0.1121
 7618TIP3    H244270   0.168   3.762   3.258  0.0664 -3.7857  2.1503
 7619TIP3   OH244271   5.745   5.422   2.927 -0.1110  0.1122  0.2543
 7619TIP3    H144272   5.756   5.369   3.007 -0.7440 -0.0051  0.2623
 7619TIP3    H244273   5.796   5.501   2.945  1.4181 -0.7787 -0.0336
 7620TIP3   OH244274   6.754   6.661  15.459 -0.1861  0.4042 -0.6912
 7620TIP3    H144275   6.661   6.685  15.459 -0.0823  0.8274 -0.0608
 7620TIP3    H244276   6.764   6.602  15.384 -0.8333  0.8442 -1.1269
 7621TIP3   OH244277   3.575   1.947   4.605 -0.5219  0.5193 -0.7059
 7621TIP3    H144278   3.644   1.926   4.542 -0.2233 -2.1038  0.4466
 7621TIP3    H244279   3.622   1.964   4.687 -1.0419  2.0942 -0.7074
 7622TIP3   OH244280   1.778   5.709  16.895 -0.1126  0.0740 -0.1696
 7622TIP3    H144281   1.821   5.765  16.830  3.0648 -2.1229 -0.0761
 7622TIP3    H244282   1.714   5.659  16.844 -1.7819  2.4849 -0.5384
 7623TIP3   OH244283   1.471   2.303  12.913 -0.3345 -0.1360  0.3052
 7623TIP3    H144284   1.497   2.394  12.920 -1.2856  0.3523 -1.8814
 7623TIP3    H244285   1.538   2.262  12.858  0.8204 -1.0895  2.3895
 7624TIP3   OH244286   1.670   5.010  11.673 -0.6923 -0.0644 -0.1854
 7624TIP3    H144287   1.578   4.988  11.687 -0.7985  0.9639  0.7864
 7624TIP3    H244288   1.686   5.086  11.729  0.3896  0.6054 -1.3507
 7625TIP3   OH244289   2.908   2.723  13.288  0.6130 -0.0221 -0.3339
 7625TIP3    H144290   2.895   2.748  13.380 -0.7659  0.5999 -0.6892
 7625TIP3    H244291   2.820   2.713  13.253  1.1328 -0.4579 -1.5478
 7626TIP3   OH244292   5.540   3.151  15.384 -0.0367 -0.1802 -0.4882
 7626TIP3    H144293   5.593   3.227  15.360 -2.1795  0.3620 -3.6670
 7626TIP3    H244294   5.595   3.076  15.363  0.9078  0.4121 -0.1733
 7627TIP3   OH244295   0.447   5.921  11.488 -0.2071 -0.4989  0.4317
 7627TIP3    H144296   0.472   6.002  11.443  0.2806  1.3977  3.9301
 7627TIP3    H244297   0.364   5.943  11.531 -0.5000 -2.1597  0.7397
 7628TIP3   OH244298   2.920   5.322   6.271  0.1533 -0.0466  0.1371
 7628TIP3    H144299   2.951   5.412   6.259  1.0710 -0.2871  0.6436
 7628TIP3    H244300   2.843   5.329   6.327  1.2961  0.2684  1.6977
 7629TIP3   OH244301   1.775   3.299   5.081 -0.1345 -0.1826  0.1514
 7629TIP3    H144302   1.827   3.339   5.151  0.1890  0.5772 -0.5093
 7629TIP3    H244303   1.840   3.271   5.016 -0.6130  2.0916 -1.3566
 7630TIP3   OH244304   3.651   6.782   1.694 -0.1770 -0.2281 -0.1444
 7630TIP3    H144305   3.595   6.764   1.619  1.0910  2.0167 -1.6719
 7630TIP3    H244306   3.596   6.831   1.755 -0.2010  1.0093 -1.1593
 7631TIP3   OH244307   3.222   3.661  13.610 -0.1333 -0.3818 -0.4207
 7631TIP3    H144308   3.257   3.725  13.549  0.0418  0.0300  0.1046
 7631TIP3    H244309   3.248   3.576  13.575 -0.2752 -0.1592 -1.0602
 7632TIP3   OH244310   0.681   0.896   5.011  0.2122 -0.3979  0.7177
 7632TIP3    H144311   0.708   0.810   5.046 -1.1478 -1.6246 -1.1624
 7632TIP3    H244312   0.715   0.897   4.921 -0.8231  0.5341  0.3297
 7633TIP3   OH244313   6.242   1.942   2.931 -0.1865  0.3622 -0.1495
 7633TIP3    H144314   6.178   1.943   3.002 -0.6183 -0.0091 -0.5313
 7633TIP3    H244315   6.235   2.029   2.891  0.8790  0.9961  0.9794
 7634TIP3   OH244316   1.768   4.019  16.996 -0.2143 -0.3585 -0.6106
 7634TIP3    H144317   1.760   4.048  16.905 -1.1128  0.2324 -0.3540
 7634TIP3    H244318   1.850   3.969  16.998  0.6299  0.9538 -1.3860
 7635TIP3   OH244319   3.365   2.020   2.323 -0.6037 -0.2375 -0.1307
 7635TIP3    H144320   3.299   2.067   2.374 -0.3105  1.3258 -1.1547
 7635TIP3    H244321   3.430   2.088   2.302  1.6872 -1.8601  1.4484
 7636TIP3   OH244322   3.814   1.259   0.207 -1.2840  0.1134  0.1315
 7636TIP3    H144323   3.753   1.333   0.213  0.2845  1.4986 -0.5177
 7636TIP3    H244324   3.837   1.255   0.114 -0.8471 -0.7701  0.2773
 7637TIP3   OH244325   4.652   5.219  12.325 -0.3637  0.1779 -0.0257
 7637TIP3    H144326   4.641   5.217  12.420  0.0700  0.7696  0.0458
 7637TIP3    H244327   4.723   5.157  12.307 -0.1184  0.4244  0.0894
 7638TIP3   OH244328   0.464   1.139   5.905 -0.7912 -0.0842 -0.2083
 7638TIP3    H144329   0.490   1.070   5.966 -0.0908 -0.3046 -0.7540
 7638TIP3    H244330   0.529   1.207   5.917 -0.8903  0.0463 -0.4176
 7639TIP3   OH244331   1.788   0.125  13.798 -0.1241  0.1567 -0.0196
 7639TIP3    H144332   1.759   0.051  13.744 -1.4283  0.8638 -0.3188
 7639TIP3    H244333   1.714   0.186  13.795  0.7496  1.2489  0.6291
 7640TIP3   OH244334   5.897   4.076  16.099 -0.0792  0.0360  0.3220
 7640TIP3    H144335   5.833   4.147  16.097 -2.2352 -1.8863 -1.6415
 7640TIP3    H244336   5.960   4.100  16.031 -0.6963  0.1709 -0.2076
 7641TIP3   OH244337   4.424   2.307   5.691  0.3602 -0.7885  0.0268
 7641TIP3    H144338   4.446   2.326   5.600  0.0671 -3.5740 -0.6856
 7641TIP3    H244339   4.487   2.240   5.717 -0.4201 -0.9960  1.4446
 7642TIP3   OH244340   2.384   2.944  11.105  0.1333 -0.4004 -0.0240
 7642TIP3    H144341   2.304   2.901  11.135 -1.6591  0.9573 -2.5602
 7642TIP3    H244342   2.379   2.938  11.009  1.3974  2.6039 -0.3371
 7643TIP3   OH244343   5.567   2.867  13.415 -0.1116  1.1044 -0.2883
 7643TIP3    H144344   5.499   2.930  13.438 -0.1436  0.6935  0.7958
 7643TIP3    H244345   5.621   2.912  13.350 -1.3719  1.4582 -1.1048
 7644TIP3   OH244346   0.390   5.988  15.669  0.3743 -0.1696  0.2162
 7644TIP3    H144347   0.445   6.046  15.721  0.2569  1.6036 -1.5912
 7644TIP3    H244348   0.319   6.044  15.637  0.1047 -1.3647 -1.3253
 7645TIP3   OH244349   6.671   2.980  12.899 -0.0364 -0.2484  0.7439
 7645TIP3    H144350   6.609   3.048  12.925 -0.6196 -0.5508  0.1843
 7645TIP3    H244351   6.615   2.906  12.875  0.6258 -1.3621  2.5537
 7646TIP3   OH244352   6.193   2.322   6.239 -0.4688 -0.3305 -0.6008
 7646TIP3    H144353   6.158   2.241   6.203  0.1960 -0.0558 -1.8873
 7646TIP3    H244354   6.125   2.355   6.297 -1.2766 -1.1249 -1.1032
 7647TIP3   OH244355   5.878   0.240  15.295 -0.0532  0.1167  0.3206
 7647TIP3    H144356   5.882   0.303  15.367 -2.3805  2.7087 -1.7031
 7647TIP3    H244357   5.892   0.294  15.216 -1.0168 -2.0827 -1.3938
 7648TIP3   OH244358   3.993   6.103  11.767  0.1546 -0.4959  0.3626
 7648TIP3    H144359   3.954   6.187  11.743 -0.3690 -0.7602  0.2849
 7648TIP3    H244360   4.067   6.093  11.707 -0.5145 -0.6607 -0.4420
 7649TIP3   OH244361   4.519   3.393   2.698 -0.0756 -0.1035  0.4445
 7649TIP3    H144362   4.440   3.432   2.737 -1.0393 -1.5848  0.0289
 7649TIP3    H244363   4.589   3.413   2.760 -0.8073  1.0561  0.9185
 7650TIP3   OH244364   5.050   3.053  16.169  0.5079 -0.5192 -0.3186
 7650TIP3    H144365   5.012   3.015  16.248  0.1102 -0.0045 -0.2538
 7650TIP3    H244366   5.072   3.143  16.195  0.6923 -0.4574 -0.6945
 7651TIP3   OH244367   0.399   4.382  13.098  0.2998 -0.7687  0.1753
 7651TIP3    H144368   0.439   4.295  13.086 -0.3853 -1.1876  0.9091
 7651TIP3    H244369   0.417   4.405  13.189 -0.9614 -0.8761  0.4564
 7652TIP3   OH244370   0.755   4.493  14.036  0.0838  0.0454 -0.0334
 7652TIP3    H144371   0.782   4.518  14.124  0.1622  1.5745 -0.4783
 7652TIP3    H244372   0.827   4.519  13.980 -0.7491  0.8023 -0.7762
 7653TIP3   OH244373   6.697   6.368  11.583 -0.5439 -0.4893 -0.0632
 7653TIP3    H144374   6.616   6.384  11.534 -0.2909 -0.4343 -0.4630
 7653TIP3    H244375   6.672   6.304  11.650 -0.4396 -2.1130 -1.5235
 7654TIP3   OH244376   5.962   1.536  14.978  0.5766  0.1689  0.1758
 7654TIP3    H144377   5.893   1.483  15.017  0.5021  0.3568  0.3052
 7654TIP3    H244378   5.919   1.619  14.955  0.7866  0.3383  0.3853
 7655TIP3   OH244379   2.681   6.111  15.308  0.2176  0.3310  0.4934
 7655TIP3    H144380   2.611   6.171  15.333 -0.4455 -0.1086 -0.2488
 7655TIP3    H244381   2.699   6.132  15.216 -0.1955 -0.7485  0.1526
 7656TIP3   OH244382   3.840   6.428   3.215 -0.0551  0.3102 -0.1895
 7656TIP3    H144383   3.807   6.473   3.137  0.0818 -0.7147 -0.8479
 7656TIP3    H244384   3.929   6.402   3.192  0.8313  2.0734  1.1747
 7657TIP3   OH244385   4.978   2.156  11.963 -0.4000 -0.1524 -0.2243
 7657TIP3    H144386   4.968   2.163  12.058  0.5431  0.9112 -0.1972
 7657TIP3    H244387   4.950   2.067  11.942  0.5151 -0.7835  1.2015
 7658TIP3   OH244388   5.414   0.935  13.673  0.7348  0.1499 -0.4144
 7658TIP3    H144389   5.417   1.031  13.669  1.2723  0.1804  0.6920
 7658TIP3    H244390   5.489   0.907  13.619  1.9475  0.3996  1.1073
 7659TIP3   OH244391   3.323   1.594  15.410 -0.2606  0.1444 -0.3679
 7659TIP3    H144392   3.291   1.504  15.416 -0.9152  0.3435 -0.8511
 7659TIP3    H244393   3.404   1.594  15.461 -0.2386 -0.7265 -0.4004
 7660TIP3   OH244394   5.080   1.788  13.898  0.7989 -0.2593  0.2841
 7660TIP3    H144395   5.000   1.814  13.853 -0.3363 -0.0158  2.3636
 7660TIP3    H244396   5.131   1.742  13.832 -0.7099  0.2569 -1.2819
 7661TIP3   OH244397   3.773   5.898   2.504  0.5226 -0.4601 -0.1290
 7661TIP3    H144398   3.707   5.835   2.476  0.3067  0.0458 -0.7644
 7661TIP3    H244399   3.853   5.846   2.512  0.1232 -1.0070  0.3211
 7662TIP3   OH244400   0.552   2.763  14.661 -0.1293  0.6950  0.1034
 7662TIP3    H144401   0.615   2.761  14.732 -0.5081  1.1660  0.4544
 7662TIP3    H244402   0.511   2.676  14.663 -0.9104  1.0777  1.1607
 7663TIP3   OH244403   0.270   4.899  14.657 -0.1519  0.1259 -0.1952
 7663TIP3    H144404   0.273   4.859  14.570  0.7404  0.6729 -0.4174
 7663TIP3    H244405   0.360   4.925  14.675 -0.6247  1.5221  0.1994
 7664TIP3   OH244406   2.252   2.340  12.979 -0.5039  0.5236  0.0886
 7664TIP3    H144407   2.340   2.308  12.996 -0.8043  0.0541  0.7974
 7664TIP3    H244408   2.253   2.365  12.887  0.2698  0.2118  0.0063
 7665TIP3   OH244409   5.903   0.152  12.384 -0.7452 -0.7803  0.0342
 7665TIP3    H144410   5.908   0.064  12.347  0.4614 -1.1212  1.0100
 7665TIP3    H244411   5.906   0.139  12.479 -0.0389  0.3468  0.1741
 7666TIP3   OH244412   1.268   3.363  12.493  0.2282  0.5890 -0.4698
 7666TIP3    H144413   1.264   3.277  12.534 -0.6832  0.7685 -0.1755
 7666TIP3    H244414   1.352   3.364  12.447  1.3654  0.4535  1.5433
 7667TIP3   OH244415   1.503   6.028  12.413  0.0913  0.3992  0.3584
 7667TIP3    H144416   1.455   5.989  12.340  1.8525 -0.7641 -0.2091
 7667TIP3    H244417   1.517   6.119  12.387  1.4431 -0.2125 -1.1692
 7668TIP3   OH244418   6.257   4.052   5.196 -0.0301  0.1929 -0.2352
 7668TIP3    H144419   6.292   4.113   5.261 -0.8421  0.4632 -0.0501
 7668TIP3    H244420   6.295   3.968   5.220  0.1032  0.3913  0.2662
 7669TIP3   OH244421   3.022   3.084   3.596  0.4807  0.3042  0.0025
 7669TIP3    H144422   2.948   3.139   3.620 -0.6269 -1.2392  0.2033
 7669TIP3    H244423   3.008   3.063   3.504  0.9017  0.3711 -0.0784
 7670TIP3   OH244424   0.179   1.618   1.322 -0.0654  0.3253  0.5081
 7670TIP3    H144425   0.128   1.584   1.395  1.4092  0.7303  1.7381
 7670TIP3    H244426   0.264   1.641   1.360  0.9920 -0.1769 -1.4551
 7671TIP3   OH244427   6.647   0.861   0.963 -0.0346  0.2743  0.2648
 7671TIP3    H144428   6.711   0.863   0.892  0.0507 -0.5756  0.3135
 7671TIP3    H244429   6.609   0.949   0.963  1.7007  1.0662  0.7624
 7672TIP3   OH244430   2.237   5.105   1.813 -0.1358 -0.2426  0.0122
 7672TIP3    H144431   2.248   5.128   1.721 -0.3810  2.9199  0.7388
 7672TIP3    H244432   2.326   5.099   1.847 -0.0706 -0.4493 -0.1914
 7673TIP3   OH244433   0.879   5.529  15.461  0.5004  0.5673  0.0697
 7673TIP3    H144434   0.812   5.462  15.475 -0.3252  1.2228 -0.6738
 7673TIP3    H244435   0.931   5.528  15.541  1.0891 -1.6203 -0.3101
 7674TIP3   OH244436   2.687   4.580  16.138  0.2259 -0.7876 -0.2499
 7674TIP3    H144437   2.672   4.611  16.049  1.2152 -0.2037 -0.2202
 7674TIP3    H244438   2.642   4.644  16.193  0.3923 -0.6375 -0.2892
 7675TIP3   OH244439   4.374   3.680  11.563 -0.0992 -0.0048 -0.5281
 7675TIP3    H144440   4.353   3.769  11.536 -0.5824  0.6535  1.9142
 7675TIP3    H244441   4.456   3.660  11.518 -0.5947  1.1949 -2.0279
 7676TIP3   OH244442   2.106   2.533  16.792  0.0168  0.6914 -0.5056
 7676TIP3    H144443   2.017   2.563  16.812 -0.0077  0.6468 -0.5479
 7676TIP3    H244444   2.126   2.572  16.707 -0.1526  0.2833 -0.7323
 7677TIP3   OH244445   3.455   1.003  11.805  0.3271 -0.3319 -0.1845
 7677TIP3    H144446   3.521   1.033  11.868 -0.5851  0.0217  0.6184
 7677TIP3    H244447   3.485   1.037  11.721  0.8421  0.3585  0.2699
 7678TIP3   OH244448   0.789   4.568   1.443  0.5048 -0.1276 -0.1242
 7678TIP3    H144449   0.709   4.532   1.406  1.9995 -1.5428 -2.0811
 7678TIP3    H244450   0.817   4.635   1.381  0.6085  0.6686  0.7729
 7679TIP3   OH244451   1.565   3.527   0.044 -0.0272  0.4840  0.7410
 7679TIP3    H144452   1.569   3.622   0.037  1.4053  0.3535 -0.5191
 7679TIP3    H244453   1.657   3.499   0.041 -0.4453 -0.9377  0.9962
 7680TIP3   OH244454   5.111   4.662   1.321  0.0177  0.2710  0.5260
 7680TIP3    H144455   5.070   4.723   1.381 -0.3489  1.2300 -0.6842
 7680TIP3    H244456   5.063   4.673   1.239  1.2622 -0.1893 -0.2732
 7681TIP3   OH244457   5.527   6.021   3.486  0.0663 -0.1106  0.1374
 7681TIP3    H144458   5.588   6.028   3.560 -0.9824 -1.1859  1.1145
 7681TIP3    H244459   5.458   6.084   3.507 -0.7177 -1.1028  0.5539
 7682TIP3   OH244460   0.280   5.698  15.770  0.3604  0.2596  0.0570
 7682TIP3    H144461   0.257   5.791  15.774  0.2964  0.2449  0.0359
 7682TIP3    H244462   0.236   5.660  15.846  0.1846  0.2040 -0.0705
 7683TIP3   OH244463   1.162   4.463   6.475  0.3182  0.0692 -0.2706
 7683TIP3    H144464   1.233   4.512   6.434  0.8283 -1.1151 -0.8127
 7683TIP3    H244465   1.117   4.421   6.402 -0.7564  0.5663  0.1030
 7684TIP3   OH244466   6.260   0.587   0.781  0.1394  0.0109  0.4470
 7684TIP3    H144467   6.317   0.510   0.784  0.8280  0.5131  0.5461
 7684TIP3    H244468   6.213   0.579   0.698  0.8392 -0.0821  0.0484
 7685TIP3   OH244469   4.492   2.997  14.153 -0.1233  0.5233  0.3318
 7685TIP3    H144470   4.477   3.026  14.243 -1.6479 -0.8663  0.5417
 7685TIP3    H244471   4.428   3.045  14.101 -1.3408 -0.9676  0.4200
 7686TIP3   OH244472   0.964   5.987  10.506 -0.2783 -0.3392  0.2265
 7686TIP3    H144473   0.908   6.063  10.488  2.1847  1.0972 -1.7354
 7686TIP3    H244474   0.910   5.911  10.485 -2.1535  0.9254  0.3706
 7687TIP3   OH244475   5.555   5.360  14.776 -0.0227 -0.7273  0.0620
 7687TIP3    H144476   5.641   5.402  14.784  1.2931 -2.6149 -3.3157
 7687TIP3    H244477   5.535   5.328  14.864  2.6802 -0.1787  0.9085
 7688TIP3   OH244478   4.496   6.717  14.161  0.5906 -0.0659  0.1241
 7688TIP3    H144479   4.499   6.755  14.249  3.0966 -0.4710  0.2472
 7688TIP3    H244480   4.402   6.708  14.142  0.0106  0.5084  2.5279
 7689TIP3   OH244481   1.608   6.194   0.126 -0.6911  0.6147 -0.0294
 7689TIP3    H144482   1.553   6.187   0.204  0.3533  1.6219  0.8098
 7689TIP3    H244483   1.633   6.104   0.106  0.4683  0.4870  1.8437
 7690TIP3   OH244484   2.890   2.765   2.313 -0.1780 -0.5232 -0.2289
 7690TIP3    H144485   2.974   2.791   2.350 -0.0621 -1.5880  0.2733
 7690TIP3    H244486   2.909   2.685   2.264 -1.1129 -1.4463  0.8779
 7691TIP3   OH244487   5.053   6.395  10.414 -0.2058  0.6400  0.1756
 7691TIP3    H144488   5.056   6.323  10.477  0.5707  0.2507 -0.2896
 7691TIP3    H244489   4.982   6.451  10.444  0.9178  1.0993  2.1148
 7692TIP3   OH244490   4.743   3.405   2.881  0.4172  0.0336 -0.1459
 7692TIP3    H144491   4.717   3.475   2.942 -0.2803 -0.7469  0.4640
 7692TIP3    H244492   4.721   3.324   2.928 -0.7788 -0.5710 -1.7097
 7693TIP3   OH244493   1.355   2.344   1.321  0.1943  0.1377  0.9092
 7693TIP3    H144494   1.292   2.344   1.393 -0.7700  0.7590  0.0894
 7693TIP3    H244495   1.300   2.345   1.242  1.2356  1.8306  0.1876
 7694TIP3   OH244496   4.030   0.563   2.489 -0.0820  0.5316 -0.0873
 7694TIP3    H144497   4.035   0.554   2.584 -0.3088 -0.3763 -0.1585
 7694TIP3    H244498   4.103   0.511   2.456  0.5689  1.6023 -0.3840
 7695TIP3   OH244499   5.542   3.303  16.716 -0.2178  0.4647  0.4945
 7695TIP3    H144500   5.554   3.390  16.754 -0.4137  0.4694  0.5482
 7695TIP3    H244501   5.608   3.249  16.758 -0.2085  0.5496  0.5907
 7696TIP3   OH244502   6.572   4.476  13.557 -0.2412 -0.0786  0.0842
 7696TIP3    H144503   6.498   4.426  13.592 -0.4581  0.5745  0.5771
 7696TIP3    H244504   6.599   4.428  13.479 -1.3827 -0.1482 -0.2772
 7697TIP3   OH244505   1.993   1.540   1.096  0.5220  0.0248 -0.0081
 7697TIP3    H144506   2.045   1.559   1.174 -0.9791  1.1220  0.7551
 7697TIP3    H244507   1.968   1.448   1.106  1.1258 -0.1073  0.3179
 7698TIP3   OH244508   1.499   3.962  14.779  0.2699 -0.4089 -0.9466
 7698TIP3    H144509   1.545   4.041  14.750 -0.6196  0.9974  1.3334
 7698TIP3    H244510   1.559   3.921  14.842 -0.4962  0.0376  0.0833
 7699TIP3   OH244511   0.368   4.341   4.411 -0.1994  0.3937  0.7075
 7699TIP3    H144512   0.304   4.340   4.483 -1.1518 -0.5133 -0.1437
 7699TIP3    H244513   0.393   4.433   4.402 -1.2534  0.7249  1.1549
 7700TIP3   OH244514   6.414   0.107  12.030  0.1099  0.1844 -0.5148
 7700TIP3    H144515   6.440   0.015  12.023 -0.0165  0.2475 -2.0667
 7700TIP3    H244516   6.329   0.104  12.073 -0.2821 -0.5019 -1.3040
 7701TIP3   OH244517   0.790   1.079   1.324  0.1616  0.1690 -0.1979
 7701TIP3    H144518   0.740   1.021   1.381 -1.6355  0.8073 -1.0841
 7701TIP3    H244519   0.743   1.163   1.328 -1.1496 -0.2471 -4.0079
 7702TIP3   OH244520   1.078   2.867  12.080 -0.3608  0.5853  0.0050
 7702TIP3    H144521   1.063   2.863  11.986  0.9332 -0.2246 -0.1727
 7702TIP3    H244522   1.153   2.926  12.090 -0.4582  0.6245  0.5276
 7703TIP3   OH244523   5.823   0.561  12.722 -0.5790  0.4027 -0.2783
 7703TIP3    H144524   5.839   0.654  12.738  0.3510  0.4053 -1.1677
 7703TIP3    H244525   5.736   0.545  12.758  0.4228  0.9548  2.4933
 7704TIP3   OH244526   5.564   2.782   5.354 -0.4729 -0.5084  0.0827
 7704TIP3    H144527   5.590   2.855   5.410 -0.5880 -1.6527  1.6706
 7704TIP3    H244528   5.482   2.810   5.314 -0.3069  0.4047  0.3783
 7705TIP3   OH244529   2.756   1.983   5.721 -0.7123 -0.1662 -0.2026
 7705TIP3    H144530   2.699   2.040   5.669 -0.4699  2.4745  2.2842
 7705TIP3    H244531   2.817   1.945   5.658  0.4271  3.9640 -1.7789
 7706TIP3   OH244532   5.253   2.535  14.605  0.1337 -0.5592 -0.2266
 7706TIP3    H144533   5.325   2.487  14.564  1.3366  0.7744  0.2820
 7706TIP3    H244534   5.233   2.606  14.544 -1.1142 -1.2196 -0.6069
 7707TIP3   OH244535   3.989   4.607  13.845 -0.0285  0.3981 -0.1995
 7707TIP3    H144536   4.061   4.647  13.893 -1.2987  2.2408  0.2125
 7707TIP3    H244537   3.929   4.574  13.912  1.0550 -2.3808 -0.5279
 7708TIP3   OH244538   6.303   4.714  15.692 -0.8389 -0.3321 -0.3474
 7708TIP3    H144539   6.286   4.712  15.598 -2.5182 -1.4503 -0.0403
 7708TIP3    H244540   6.284   4.625  15.722  0.3753 -0.1829  0.9495
 7709TIP3   OH244541   5.435   4.127   5.176 -0.2214 -0.2869 -0.2320
 7709TIP3    H144542   5.389   4.198   5.221 -1.0011 -0.9178 -0.0403
 7709TIP3    H244543   5.451   4.062   5.244 -1.0727 -1.0825 -0.8001
 7710TIP3   OH244544   5.951   6.644  16.264  0.0410  0.2949 -0.0232
 7710TIP3    H144545   5.888   6.618  16.332  0.3655  0.2980  0.2782
 7710TIP3    H244546   6.005   6.567  16.250 -0.8322 -0.1165 -1.1861
 7711TIP3   OH244547   3.131   6.102   0.601  0.6186  0.0751 -0.0158
 7711TIP3    H144548   3.214   6.149   0.598  0.3936  0.4617 -0.4395
 7711TIP3    H244549   3.082   6.137   0.526  0.4820 -0.9047 -0.3952
 7712TIP3   OH244550   1.931   3.005   1.941  0.0129  0.7015  0.3738
 7712TIP3    H144551   1.907   2.935   2.001 -0.2803  1.0117  0.6197
 7712TIP3    H244552   1.913   2.969   1.854  0.1195  0.3773  0.4830
 7713TIP3   OH244553   6.775   4.626  16.133 -0.0470  0.7498 -0.4071
 7713TIP3    H144554   6.682   4.630  16.158 -0.1480 -1.1564 -0.4230
 7713TIP3    H244555   6.809   4.712  16.157 -1.6986  1.3034  0.0797
 7714TIP3   OH244556   2.255   4.780  13.196 -0.0578 -0.1616  0.8160
 7714TIP3    H144557   2.194   4.844  13.232 -0.0080 -0.8712  2.1657
 7714TIP3    H244558   2.199   4.718  13.149 -0.1309  0.6717 -0.2375
 7715TIP3   OH244559   6.401   2.774  12.339 -0.6923 -0.3493 -0.0990
 7715TIP3    H144560   6.375   2.735  12.422  1.2313 -0.3068  0.5433
 7715TIP3    H244561   6.489   2.741  12.323  0.0304  1.8103 -0.7495
 7716TIP3   OH244562   4.602   5.253   1.867 -0.2203  0.7015  0.1207
 7716TIP3    H144563   4.518   5.297   1.881 -0.2097  0.4619  1.0193
 7716TIP3    H244564   4.634   5.236   1.956 -0.9960 -2.5546 -0.1615
 7717TIP3   OH244565   1.817   6.466   5.749  0.8117  0.0464  0.2129
 7717TIP3    H144566   1.752   6.419   5.801  1.2459 -0.5746  0.1908
 7717TIP3    H244567   1.804   6.558   5.773 -0.3415 -0.0275 -0.0964
 7718TIP3   OH244568   4.895   5.983  14.726 -0.6270 -0.3337  0.1438
 7718TIP3    H144569   4.928   5.985  14.816 -2.3290 -1.6717  0.8311
 7718TIP3    H244570   4.884   6.075  14.702 -0.1756  0.0253  1.2957
 7719TIP3   OH244571   1.889   3.598   5.467 -0.0251  0.0671 -0.5525
 7719TIP3    H144572   1.901   3.689   5.440 -0.8565  0.5958  0.8160
 7719TIP3    H244573   1.938   3.591   5.549 -1.4975 -0.2020  0.3161
 7720TIP3   OH244574   2.341   1.775  13.438  0.3760  0.2507  0.5454
 7720TIP3    H144575   2.264   1.777  13.494  1.0103 -1.1786  1.5007
 7720TIP3    H244576   2.336   1.856  13.387 -1.9011  0.0160  0.3576
 7721TIP3   OH244577   6.592   3.548  16.703  0.0340  0.3087  0.3644
 7721TIP3    H144578   6.673   3.567  16.655  0.3595  0.3081  0.9059
 7721TIP3    H244579   6.618   3.482  16.768 -0.0416  1.4576  1.5797
 7722TIP3   OH244580   2.499   2.013   6.423  0.0779  0.4885  0.0334
 7722TIP3    H144581   2.480   1.921   6.442  0.6871  0.6064  1.2683
 7722TIP3    H244582   2.431   2.040   6.362 -0.6942 -0.5086  0.4458
 7723TIP3   OH244583   6.710   5.718  12.849 -0.2167  0.1145 -0.2770
 7723TIP3    H144584   6.685   5.783  12.783 -0.4814  0.5659  0.2552
 7723TIP3    H244585   6.628   5.701  12.897  0.2302  0.7297  0.7328
 7724TIP3   OH244586   4.781   4.970  12.309  0.1277 -0.6535 -0.1733
 7724TIP3    H144587   4.692   4.944  12.334 -0.0117 -1.2740 -1.2561
 7724TIP3    H244588   4.785   4.953  12.215  1.1643  0.0490 -0.2625
 7725TIP3   OH244589   1.455   5.580   5.837  0.0495  0.2668 -0.5551
 7725TIP3    H144590   1.525   5.635   5.802 -0.5209  0.1443 -1.8875
 7725TIP3    H244591   1.498   5.529   5.906  0.8246  1.5711 -0.0577
 7726TIP3   OH244592   6.048   3.311  13.863  0.1289 -0.5452 -0.0541
 7726TIP3    H144593   6.088   3.375  13.921 -0.8075 -1.8477  2.1106
 7726TIP3    H244594   6.112   3.297  13.794  0.8027  1.8731  0.0522
 7727TIP3   OH244595   5.448   3.207  14.037 -0.2644 -0.4978 -0.2708
 7727TIP3    H144596   5.497   3.227  14.117  1.6752 -1.7827 -1.0930
 7727TIP3    H244597   5.362   3.245  14.052  0.5723  0.7245  1.7594
 7728TIP3   OH244598   0.545   5.438  14.066  0.2176  0.4730 -0.1865
 7728TIP3    H144599   0.578   5.527  14.078  1.0588  0.0674  0.5536
 7728TIP3    H244600   0.450   5.448  14.066  0.2979  1.5657 -1.6670
 7729TIP3   OH244601   5.535   5.346   4.909 -0.8111 -0.0438  0.0036
 7729TIP3    H144602   5.573   5.339   4.821  0.8047 -1.0615  0.7522
 7729TIP3    H244603   5.606   5.322   4.967 -2.3007 -0.8661  1.5230
 7730TIP3   OH244604   4.614   3.401  15.061 -0.1056  0.3234  0.2227
 7730TIP3    H144605   4.646   3.374  14.975  0.0157 -0.7750  0.6054
 7730TIP3    H244606   4.692   3.413  15.114 -0.2284 -0.1701  0.5183
 7731TIP3   OH244607   0.090   2.252   1.848 -0.3368  0.1483 -0.2109
 7731TIP3    H144608   0.114   2.240   1.756 -0.0095  0.0611 -0.1171
 7731TIP3    H244609   0.160   2.208   1.897  0.3588  1.6058  0.1206
 7732TIP3   OH244610   0.967   2.996   5.050  0.4204 -0.0065  0.4214
 7732TIP3    H144611   0.929   2.988   5.138  0.8904 -2.1625  0.4669
 7732TIP3    H244612   1.022   2.918   5.041  0.3966  0.2044 -1.7802
 7733TIP3   OH244613   4.507   5.839   4.708  0.2332  0.1498  0.5830
 7733TIP3    H144614   4.460   5.835   4.625 -0.3736  0.6193  0.9012
 7733TIP3    H244615   4.438   5.844   4.775  0.7119 -0.3529  1.1216
 7734TIP3   OH244616   2.275   2.191  16.072 -0.2676  0.4858  0.7344
 7734TIP3    H144617   2.230   2.164  15.992 -0.0621 -1.4718  1.2596
 7734TIP3    H244618   2.368   2.185  16.050 -0.1578 -2.1245  1.7330
 7735TIP3   OH244619   5.796   0.909   1.034 -0.0513 -0.0703 -0.3625
 7735TIP3    H144620   5.840   0.981   1.080 -1.1167  0.7829 -0.6609
 7735TIP3    H244621   5.819   0.922   0.942  0.7265 -0.8124 -0.2795
 7736TIP3   OH244622   6.352   2.026   0.065  0.1369 -0.5373 -0.2069
 7736TIP3    H144623   6.280   1.966   0.086  0.1457 -0.3704  0.2973
 7736TIP3    H244624   6.407   1.977   0.004  0.5066 -1.2989  0.7255
 7737TIP3   OH244625   6.012   6.502   3.063 -0.4354  0.2772  0.1845
 7737TIP3    H144626   5.992   6.561   2.990 -0.0365  2.2421  1.6259
 7737TIP3    H244627   6.052   6.425   3.021 -2.3246  0.3350 -1.8618
 7738TIP3   OH244628   5.318   0.118   4.210  0.1409 -0.0720  0.1009
 7738TIP3    H144629   5.283   0.205   4.231 -0.3634 -0.5311  1.1713
 7738TIP3    H244630   5.273   0.093   4.130  1.8635  1.5641 -1.4526
 7739TIP3   OH244631   5.849   6.464  12.845  0.6021  0.0564 -0.4929
 7739TIP3    H144632   5.820   6.435  12.758  0.6624 -0.9609 -0.1876
 7739TIP3    H244633   5.941   6.489  12.832  0.7975 -0.6847 -0.6093
 7740TIP3   OH244634   2.053   2.155  15.582 -0.1366 -0.0871  0.3768
 7740TIP3    H144635   2.017   2.069  15.601  0.6823 -0.7988 -1.2459
 7740TIP3    H244636   2.148   2.142  15.578 -0.0325  0.7924 -0.2709
 7741TIP3   OH244637   1.244   3.155  15.900 -0.0402  0.3584  0.0388
 7741TIP3    H144638   1.153   3.137  15.926 -0.2527  2.4770  0.8692
 7741TIP3    H244639   1.287   3.070  15.904 -2.4324 -1.0232 -2.2452
 7742TIP3   OH244640   1.444   3.816  13.762  0.0444  0.2827 -0.1230
 7742TIP3    H144641   1.504   3.845  13.693  0.5315 -2.6798 -1.0091
 7742TIP3    H244642   1.413   3.730  13.733 -2.2589  0.3907  1.8104
 7743TIP3   OH244643   4.376   3.714  15.679  0.1563  0.5906 -0.1405
 7743TIP3    H144644   4.311   3.645  15.693  0.8772 -0.4316 -1.7105
 7743TIP3    H244645   4.456   3.680  15.718  0.7277  0.1630 -1.6634
 7744TIP3   OH244646   1.028   3.430   1.581 -0.4402 -0.1142 -0.0786
 7744TIP3    H144647   1.014   3.411   1.674 -1.0073  1.0227  0.0797
 7744TIP3    H244648   1.088   3.505   1.581 -1.2208  0.5199 -0.6009
 7745TIP3   OH244649   6.438   5.980  15.248 -0.1088 -0.8687  0.1785
 7745TIP3    H144650   6.526   5.962  15.281 -0.2677 -1.8466  0.0724
 7745TIP3    H244651   6.449   6.060  15.196  0.5813 -0.5975  0.7328
 7746TIP3   OH244652   0.659   1.746   3.762  0.2107  0.2962  0.0145
 7746TIP3    H144653   0.688   1.659   3.790 -0.7317 -0.2389 -0.6316
 7746TIP3    H244654   0.594   1.772   3.826 -0.4026 -0.0127 -0.4766
 7747TIP3   OH244655   2.362   1.717  11.099 -0.5247 -0.3299 -0.1239
 7747TIP3    H144656   2.333   1.756  11.017 -1.3176 -1.7710 -0.5468
 7747TIP3    H244657   2.338   1.781  11.166 -1.1355  0.2359 -0.8831
 7748TIP3   OH244658   5.416   5.430  17.059 -0.0188  0.0501  0.6189
 7748TIP3    H144659   5.353   5.359  17.075 -0.6882  0.2281 -1.1743
 7748TIP3    H244660   5.374   5.486  16.993  1.2671  1.1452  0.6923
 7749TIP3   OH244661   2.117   3.506   4.558  0.6436 -0.1575 -0.0113
 7749TIP3    H144662   2.035   3.475   4.597  0.3407  0.0196 -0.5053
 7749TIP3    H244663   2.152   3.429   4.513  0.2677  0.0112 -0.6033
 7750TIP3   OH244664   4.918   2.831  14.792 -0.0316 -0.2062  0.2043
 7750TIP3    H144665   4.834   2.824  14.836 -1.3443  0.3733 -2.0990
 7750TIP3    H244666   4.933   2.925  14.784 -1.0749 -0.2354 -2.7731
 7751TIP3   OH244667   3.051   2.410   3.594 -0.1477 -0.4765  0.1912
 7751TIP3    H144668   3.124   2.461   3.630 -0.9051 -0.3798  1.6500
 7751TIP3    H244669   2.986   2.409   3.665 -1.4770 -0.7309 -1.0077
 7752TIP3   OH244670   4.245   5.201  11.526 -0.0626 -0.1572 -0.4785
 7752TIP3    H144671   4.323   5.255  11.511  1.7931 -2.5591  0.2866
 7752TIP3    H244672   4.173   5.256  11.495  1.6517  3.0345  0.8792
 7753TIP3   OH244673   2.649   3.047  13.219  0.1580 -0.1024 -0.0893
 7753TIP3    H144674   2.636   3.142  13.214  1.0748  0.0666  0.5127
 7753TIP3    H244675   2.675   3.022  13.130  0.3856  0.2950 -0.1372
 7754TIP3   OH244676   4.668   1.571  12.566  0.1376  0.2129 -0.7244
 7754TIP3    H144677   4.628   1.525  12.493 -1.6875  2.3298 -1.0988
 7754TIP3    H244678   4.635   1.526  12.644  1.0120 -1.1800 -1.1435
 7755TIP3   OH244679   0.643   3.525  13.702 -0.2895  0.2451  0.1417
 7755TIP3    H144680   0.558   3.535  13.659 -0.2036  0.6765  0.0649
 7755TIP3    H244681   0.634   3.446  13.755 -0.4558 -0.1810 -0.5189
 7756TIP3   OH244682   4.827   3.566   5.939 -0.0130 -0.0464  0.3476
 7756TIP3    H144683   4.922   3.563   5.954 -0.1641  0.9162  1.5664
 7756TIP3    H244684   4.790   3.583   6.026 -1.4274 -2.2930  0.2244
 7757TIP3   OH244685   0.935   4.448  15.242 -0.4752  0.2646  0.0500
 7757TIP3    H144686   0.889   4.532  15.235 -1.0565 -0.1344 -1.1885
 7757TIP3    H244687   0.967   4.445  15.332 -0.5704  1.7497  0.1460
 7758TIP3   OH244688   0.352   1.630   5.341  0.4472 -0.2812  0.2229
 7758TIP3    H144689   0.416   1.569   5.304  0.1900  0.3283 -1.2716
 7758TIP3    H244690   0.398   1.714   5.345  0.2845 -0.2154  0.7421
 7759TIP3   OH244691   2.745   4.435  14.867 -0.3966 -0.0876 -0.1543
 7759TIP3    H144692   2.816   4.415  14.928  0.0644 -0.3133 -0.7517
 7759TIP3    H244693   2.665   4.411  14.914 -0.0447 -0.2787  0.3503
 7760TIP3   OH244694   3.969   5.968  15.945 -0.2305  0.1957 -0.1992
 7760TIP3    H144695   3.976   5.874  15.928  2.3243  0.1055  1.1374
 7760TIP3    H244696   3.886   5.977  15.993 -0.3541 -1.3923 -0.0680
 7761TIP3   OH244697   6.670   4.815  16.578 -0.0140  0.5848 -0.1696
 7761TIP3    H144698   6.709   4.901  16.563  0.3201  0.1034 -2.1929
 7761TIP3    H244699   6.607   4.804  16.507 -0.5946 -0.5257  0.4968
 7762TIP3   OH244700   4.554   0.513   6.077  0.0911 -0.0589  0.0391
 7762TIP3    H144701   4.545   0.437   6.136  1.4526  0.6941  1.2500
 7762TIP3    H244702   4.623   0.566   6.117 -2.0261  2.7103  0.1909
 7763TIP3   OH244703   3.830   2.745  16.675  0.0959  0.2120  0.3225
 7763TIP3    H144704   3.891   2.679  16.642 -0.6064 -0.3479  0.1272
 7763TIP3    H244705   3.881   2.826  16.680  0.8786 -0.2797  0.2680
 7764TIP3   OH244706   1.112   4.112  11.678  0.0675 -0.1140 -0.5924
 7764TIP3    H144707   1.131   4.190  11.729  0.5658 -0.7119  0.1480
 7764TIP3    H244708   1.048   4.141  11.613 -0.7424  0.6096  0.5001
 7765TIP3   OH244709   6.626   5.409  15.035 -0.2860  0.6051  0.4037
 7765TIP3    H144710   6.627   5.502  15.012 -3.6689  0.9556  1.4686
 7765TIP3    H244711   6.562   5.370  14.976 -0.9352 -0.5235  1.8266
 7766TIP3   OH244712   6.724   3.556  11.628  0.6390 -0.8603  0.1286
 7766TIP3    H144713   6.779   3.585  11.700  1.1246 -0.2399 -0.4846
 7766TIP3    H244714   6.643   3.526  11.670  0.6377  0.1637  0.8649
 7767TIP3   OH244715   2.907   5.691   0.926 -0.0398  0.9561  0.3112
 7767TIP3    H144716   2.992   5.689   0.970 -0.8681  2.2432  2.0533
 7767TIP3    H244717   2.927   5.715   0.835  1.6707 -1.4918  0.0023
 7768TIP3   OH244718   2.603   0.986   5.357 -0.1348 -0.3017 -0.7638
 7768TIP3    H144719   2.666   0.932   5.404  0.6567  0.1568 -1.2794
 7768TIP3    H244720   2.548   0.924   5.309  0.2141 -0.6807 -0.6698
 7769TIP3   OH244721   5.438   4.450  15.857 -0.0134 -0.0481 -0.2221
 7769TIP3    H144722   5.376   4.522  15.864 -0.2680 -0.2566 -0.3472
 7769TIP3    H244723   5.432   4.421  15.766  0.6018  0.2307 -0.3555
 7770TIP3   OH244724   4.362   1.293   1.331 -0.1025 -0.8941  0.7831
 7770TIP3    H144725   4.348   1.318   1.423  3.1026  0.6967  0.8783
 7770TIP3    H244726   4.300   1.347   1.282 -0.6816 -0.5564  1.8745
 7771TIP3   OH244727   1.510   5.821   0.478  0.1252 -0.2667  0.1414
 7771TIP3    H144728   1.444   5.776   0.425 -0.0441 -0.2959  0.3744
 7771TIP3    H244729   1.534   5.898   0.427  2.9301 -2.3749 -1.8758
 7772TIP3   OH244730   5.801   2.124   4.681 -0.3196 -0.0246  0.2110
 7772TIP3    H144731   5.739   2.197   4.694 -0.6535 -0.3537  0.4762
 7772TIP3    H244732   5.887   2.166   4.675 -0.2965  0.2299  2.2701
 7773TIP3   OH244733   6.654   2.595  16.094  0.4006 -0.0104  0.2122
 7773TIP3    H144734   6.583   2.536  16.119  1.0441 -0.2424  1.5656
 7773TIP3    H244735   6.668   2.579  16.001 -2.8357  1.6815 -0.6214
 7774TIP3   OH244736   0.434   4.794   2.062  0.0907  0.6835  0.3116
 7774TIP3    H144737   0.406   4.740   1.989  1.3316 -1.9026  1.6884
 7774TIP3    H244738   0.465   4.732   2.128 -0.6278  2.9601  2.8819
 7775TIP3   OH244739   3.596   6.560  15.276 -0.1008 -0.5087 -0.5658
 7775TIP3    H144740   3.608   6.653  15.256 -1.0998 -0.2125  0.1846
 7775TIP3    H244741   3.682   6.532  15.308  0.4982 -0.1084 -1.8085
 7776TIP3   OH244742   1.631   5.062  12.017 -0.1465 -0.1518  0.1056
 7776TIP3    H144743   1.585   5.144  11.997 -0.2185  0.3962  2.3043
 7776TIP3    H244744   1.724   5.086  12.018 -0.1285 -0.2221  0.1495
 7777TIP3   OH244745   5.128   0.712  13.343  0.5796 -0.0479 -0.2269
 7777TIP3    H144746   5.089   0.740  13.260 -0.2387 -1.7947 -0.4533
 7777TIP3    H244747   5.162   0.624  13.326  1.4149  0.0224  0.9825
 7778TIP3   OH244748   1.764   6.379  17.219  0.1251  0.6271 -0.4663
 7778TIP3    H144749   1.711   6.315  17.267  0.1250  0.5335 -0.5889
 7778TIP3    H244750   1.798   6.438  17.286 -0.0592  0.6313 -0.3780
 7779TIP3   OH244751   5.833   2.758  14.662 -0.0903  0.3491 -0.3596
 7779TIP3    H144752   5.821   2.677  14.612 -1.1243  0.6348 -0.5898
 7779TIP3    H244753   5.766   2.754  14.730  1.8967 -0.4785  1.6106
 7780TIP3   OH244754   0.190   1.948  12.803  0.8362  0.5898  0.0289
 7780TIP3    H144755   0.179   1.984  12.891  1.3516 -0.7022  0.6226
 7780TIP3    H244756   0.103   1.918  12.778  0.7339  0.7727  0.1637
 7781TIP3   OH244757   1.304   4.912  11.143  0.1843 -0.2083 -0.0145
 7781TIP3    H144758   1.358   4.988  11.121 -1.4615  0.8401 -0.6061
 7781TIP3    H244759   1.325   4.847  11.076  0.5219  0.2862 -0.3948
 7782TIP3   OH244760   6.544   5.412   1.542  0.5507 -0.9236 -1.2071
 7782TIP3    H144761   6.598   5.423   1.464  1.8131 -0.9462 -0.3353
 7782TIP3    H244762   6.601   5.370   1.606  0.9061  3.0773  1.2654
 7783TIP3   OH244763   0.123   6.185   4.349  0.4831 -0.3518  0.8974
 7783TIP3    H144764   0.138   6.101   4.306 -2.4940  0.7694 -2.5954
 7783TIP3    H244765   0.038   6.174   4.392 -0.2679  1.0625 -0.1997
 7784TIP3   OH244766   4.481   1.052   4.715  0.7928 -0.5794 -0.2868
 7784TIP3    H144767   4.394   1.029   4.681  1.3988 -1.7468 -1.0903
 7784TIP3    H244768   4.489   1.004   4.797  1.1552 -1.4589 -0.8287
 7785TIP3   OH244769   6.639   6.155  11.743  0.0674 -0.7317  0.6670
 7785TIP3    H144770   6.580   6.100  11.693  2.4968 -0.8245 -2.2114
 7785TIP3    H244771   6.684   6.095  11.802  0.7810 -1.4289 -0.5742
 7786TIP3   OH244772   1.429   3.733  17.080 -0.0632 -0.1794  0.3707
 7786TIP3    H144773   1.492   3.756  17.148 -0.2208 -2.5443  1.3663
 7786TIP3    H244774   1.346   3.722  17.126 -0.6508  0.4154 -0.5447
 7787TIP3   OH244775   5.445   2.686   2.810 -0.1869  0.2490  0.5791
 7787TIP3    H144776   5.525   2.643   2.842  0.3671  0.5450 -0.3751
 7787TIP3    H244777   5.409   2.728   2.888  0.0613 -0.6900  1.2240
 7788TIP3   OH244778   6.439   1.874  13.285  0.3462 -0.2362 -0.6309
 7788TIP3    H144779   6.516   1.918  13.320  0.2706 -0.1854 -0.5289
 7788TIP3    H244780   6.431   1.794  13.337 -0.3878  0.3612  0.1741
 7789TIP3   OH244781   6.391   5.387  14.209 -0.1534 -0.1385  0.0946
 7789TIP3    H144782   6.383   5.439  14.129 -0.2457  1.7738  1.3362
 7789TIP3    H244783   6.420   5.301  14.178  0.4382  0.7603 -1.9415
 7790TIP3   OH244784   3.045   5.063  12.640  0.1575 -0.6368  0.6081
 7790TIP3    H144785   3.004   5.003  12.703  0.3628  1.1636  2.5106
 7790TIP3    H244786   3.084   5.132  12.694  0.3315  0.9758 -1.5074
 7791TIP3   OH244787   6.569   0.326  12.069 -0.5891 -0.0706  0.1786
 7791TIP3    H144788   6.509   0.260  12.035  0.7283 -0.6663 -1.0408
 7791TIP3    H244789   6.655   0.285  12.065 -0.0868  0.7397  1.9784
 7792TIP3   OH244790   4.488   1.542  17.073 -0.0976 -0.2607 -0.5252
 7792TIP3    H144791   4.490   1.592  16.992 -0.1090 -0.1542 -0.4615
 7792TIP3    H244792   4.399   1.554  17.107 -0.5253 -1.4548 -1.2146
 7793TIP3   OH244793   3.882   4.206   5.606 -0.6369 -0.2499  0.3986
 7793TIP3    H144794   3.812   4.168   5.552  0.1865 -1.9990  0.5162
 7793TIP3    H244795   3.950   4.230   5.543 -1.8788  2.7706  0.1336
 7794TIP3   OH244796   6.718   0.232  10.713 -0.2334  0.5085 -0.1744
 7794TIP3    H144797   6.632   0.230  10.671  0.0628 -0.7365 -0.7488
 7794TIP3    H244798   6.778   0.258  10.643  0.3303 -2.0623 -0.6931
 7795TIP3   OH244799   3.131   5.089  16.185  0.0575 -0.1414  0.1140
 7795TIP3    H144800   3.092   5.019  16.237  0.2612  0.4282  1.0352
 7795TIP3    H244801   3.110   5.169  16.232 -0.3549  0.4505 -1.0394
 7796TIP3   OH244802   5.704   1.919  15.855 -0.4029 -0.4296 -0.1209
 7796TIP3    H144803   5.667   1.872  15.929  0.7876 -0.8726  0.2046
 7796TIP3    H244804   5.793   1.886  15.847  0.6766  2.1987  0.4934
 7797TIP3   OH244805   3.574   0.847  16.526 -0.3213  0.5013 -0.4565
 7797TIP3    H144806   3.533   0.791  16.459 -1.4872  1.9346 -0.9616
 7797TIP3    H244807   3.598   0.786  16.596  0.1158 -0.9015 -1.7881
 7798TIP3   OH244808   4.577   2.970  11.148  0.1324  0.0782 -0.2543
 7798TIP3    H144809   4.569   3.033  11.075 -1.6277 -0.5233 -0.6074
 7798TIP3    H244810   4.562   2.885  11.108 -1.9745 -0.1718  0.9752
 7799TIP3   OH244811   1.923   4.187   5.736  0.2634  0.3432  0.4396
 7799TIP3    H144812   1.939   4.282   5.737  1.2653  0.1806  0.7939
 7799TIP3    H244813   1.911   4.166   5.643  3.4965  0.2914 -0.0280
 7800TIP3   OH244814   0.036   3.147   2.842 -0.4831  0.0155  0.1019
 7800TIP3    H144815   0.005   3.195   2.918  2.4362  0.5325  1.0110
 7800TIP3    H244816   0.084   3.212   2.790 -0.3150 -0.9124 -0.9319
 7801TIP3   OH244817   0.017   1.975   3.858  0.1721  0.1430  0.3501
 7801TIP3    H144818  -0.017   1.969   3.947 -0.4551 -1.5975  0.0067
 7801TIP3    H244819  -0.022   1.900   3.812  1.9245 -0.0189 -0.9072
 7802TIP3   OH244820   2.863   2.468   2.324 -0.4045 -0.3601 -0.2429
 7802TIP3    H144821   2.834   2.488   2.235  1.0945 -0.4014 -0.7472
 7802TIP3    H244822   2.942   2.416   2.313  0.3937  0.5308  1.1198
 7803TIP3   OH244823   4.519   1.105  14.343  0.2080 -0.0282 -0.0736
 7803TIP3    H144824   4.518   1.012  14.366 -0.2154 -0.1638 -0.6279
 7803TIP3    H244825   4.610   1.132  14.357  0.2232 -0.4006  0.5661
 7804TIP3   OH244826   2.124   0.861  12.132  0.3605 -0.1850  0.0738
 7804TIP3    H144827   2.206   0.851  12.179  2.1581 -0.5773 -3.0382
 7804TIP3    H244828   2.149   0.888  12.044 -2.8370 -0.2560 -0.9435
 7805TIP3   OH244829   6.248   2.190   2.776  0.3651 -0.3030  0.3003
 7805TIP3    H144830   6.210   2.277   2.781  0.1821 -0.4038  0.6918
 7805TIP3    H244831   6.339   2.205   2.749  0.1400 -0.0427 -0.3034
 7806TIP3   OH244832   3.309   2.294   0.916 -0.0160 -0.2216  0.2388
 7806TIP3    H144833   3.392   2.339   0.927  0.8486 -0.7551 -3.4332
 7806TIP3    H244834   3.252   2.358   0.873 -0.2039 -1.1061 -0.8667
 7807TIP3   OH244835   5.207   3.969   5.522 -0.0020  0.2121 -0.1803
 7807TIP3    H144836   5.122   3.981   5.481 -0.0035 -1.3610 -0.6696
 7807TIP3    H244837   5.210   4.034   5.592 -1.8971 -0.2128  0.3161
 7808TIP3   OH244838   3.640   3.552  16.618  0.6359  0.1507  0.6581
 7808TIP3    H144839   3.726   3.512  16.629  0.1423 -0.9835  0.4963
 7808TIP3    H244840   3.617   3.583  16.706  0.5629 -0.8927  1.0122
 7809TIP3   OH244841   2.100   5.484  11.672 -0.0725 -0.0338 -0.1792
 7809TIP3    H144842   2.155   5.552  11.634  0.1175 -0.0883 -0.0040
 7809TIP3    H244843   2.158   5.408  11.681 -0.6366 -0.6624 -1.6735
 7810TIP3   OH244844   1.080   6.388  11.095 -0.1419  0.4491 -0.3122
 7810TIP3    H144845   1.156   6.438  11.066 -0.4232  0.1684 -1.5798
 7810TIP3    H244846   1.088   6.304  11.049 -1.7483  0.7945 -1.2735
 7811TIP3   OH244847   5.772   3.775   2.313  0.0165  0.2324  0.1673
 7811TIP3    H144848   5.714   3.755   2.240  1.4980  1.9236 -1.4997
 7811TIP3    H244849   5.843   3.710   2.307 -0.7636 -0.7501  1.1959
 7812TIP3   OH244850   1.327   2.153  14.255  0.2530 -0.4134 -0.0479
 7812TIP3    H144851   1.236   2.126  14.264  0.3916 -0.8732 -0.0302
 7812TIP3    H244852   1.323   2.238  14.211 -0.2829  0.4123  1.5306
 7813TIP3   OH244853   5.680   4.566  15.943  0.0512 -0.8764 -0.1170
 7813TIP3    H144854   5.606   4.517  15.906 -0.1987 -0.7306  0.1834
 7813TIP3    H244855   5.686   4.535  16.033  0.8396 -1.4452 -0.3564
 7814TIP3   OH244856   4.924   0.657   0.151 -0.1269  0.2941  0.0134
 7814TIP3    H144857   5.000   0.669   0.093  1.0551 -0.2286  1.4250
 7814TIP3    H244858   4.886   0.574   0.124  0.2442  0.1963 -0.2112
 7815TIP3   OH244859   4.074   6.372  12.836  0.0479 -0.5883  0.8603
 7815TIP3    H144860   4.002   6.353  12.776  0.6749  0.7587 -0.3521
 7815TIP3    H244861   4.037   6.435  12.898  0.5812  1.2564 -0.6603
 7816TIP3   OH244862   6.706   5.952  15.976  0.0798 -0.0384 -0.3855
 7816TIP3    H144863   6.630   5.894  15.969  1.1057 -1.5500  0.5475
 7816TIP3    H244864   6.780   5.892  15.990  1.6740  1.3070 -2.8827
 7817TIP3   OH244865   6.006   2.861   0.873  0.1611  0.5509 -0.0887
 7817TIP3    H144866   5.913   2.838   0.870  0.3158 -0.1288  0.1647
 7817TIP3    H244867   6.008   2.944   0.921 -0.3522  0.7747 -0.4478
 7818TIP3   OH244868   1.459   4.282  13.444 -0.3697 -0.1694 -0.3812
 7818TIP3    H144869   1.380   4.283  13.498 -2.0025  0.0393 -2.6909
 7818TIP3    H244870   1.442   4.347  13.376  1.8304 -0.0949 -0.9063
 7819TIP3   OH244871   6.106   5.033   4.004  0.0563  0.4595  0.0644
 7819TIP3    H144872   6.139   4.945   4.022  0.1341  0.0781 -1.8399
 7819TIP3    H244873   6.080   5.066   4.090 -0.6119 -1.6704  0.7309
 7820TIP3   OH244874   3.890   0.204  13.480  0.4438 -0.2004  0.5296
 7820TIP3    H144875   3.962   0.177  13.537 -1.2071  0.9297  3.2184
 7820TIP3    H244876   3.897   0.300  13.477 -1.9172  0.0697  2.2157
 7821TIP3   OH244877   3.669   3.125   3.397 -0.3278  0.5002  0.1829
 7821TIP3    H144878   3.596   3.080   3.439 -0.6312  1.0948  0.3062
 7821TIP3    H244879   3.646   3.125   3.304 -0.1357  0.0588  0.1330
 7822TIP3   OH244880   1.552   0.360  13.114 -0.2964 -0.2371  0.1639
 7822TIP3    H144881   1.625   0.331  13.060  0.6339 -1.0649  1.8063
 7822TIP3    H244882   1.478   0.368  13.054  0.6930 -1.2120 -1.1959
 7823TIP3   OH244883   0.635   2.213   2.380 -0.1551 -0.3567  0.1833
 7823TIP3    H144884   0.554   2.168   2.404 -0.5853  0.6488  0.6657
 7823TIP3    H244885   0.679   2.230   2.463  0.5161 -0.8295 -0.0735
 7824TIP3   OH244886   4.143   5.864   2.064  0.3053  0.3843 -0.3408
 7824TIP3    H144887   4.091   5.883   2.142  0.1896  0.2436 -0.3839
 7824TIP3    H244888   4.219   5.816   2.096 -0.4503 -0.9174 -0.4843
 7825TIP3   OH244889   1.312   4.791  12.502  0.2819 -0.5884  0.1936
 7825TIP3    H144890   1.371   4.756  12.435  1.0592  2.2780 -0.7374
 7825TIP3    H244891   1.326   4.736  12.578  3.2284 -0.7906 -0.4368
 7826TIP3   OH244892   5.910   5.714   4.680 -0.3215  0.3070 -0.5702
 7826TIP3    H144893   5.920   5.804   4.711 -3.3598  0.3088  0.5285
 7826TIP3    H244894   5.889   5.664   4.758 -0.1874 -1.1034 -1.4229
 7827TIP3   OH244895   0.132   1.358  16.708  0.0440  0.1052  0.0470
 7827TIP3    H144896   0.194   1.286  16.722  1.2456  0.9284 -0.9844
 7827TIP3    H244897   0.167   1.406  16.633 -1.4513  1.0122 -0.0849
 7828TIP3   OH244898   1.400   3.638   0.274 -0.5927  0.3403 -0.0818
 7828TIP3    H144899   1.351   3.679   0.203  0.1205  1.2223 -0.0748
 7828TIP3    H244900   1.468   3.586   0.230 -1.0779 -0.2979 -0.0764
 7829TIP3   OH244901   4.214   4.016  16.996  0.4590  0.5608  0.2798
 7829TIP3    H144902   4.157   4.027  16.919  0.1959  0.9740  0.5355
 7829TIP3    H244903   4.228   3.921  17.000 -0.2440  0.4489  0.2355
 7830TIP3   OH244904   1.042   3.833   4.955 -0.5420  0.0210 -0.8143
 7830TIP3    H144905   0.994   3.909   4.986  0.8947  0.8597 -0.6063
 7830TIP3    H244906   1.133   3.850   4.978 -0.4406 -2.6408  0.9921
 7831TIP3   OH244907   4.023   0.592  17.195 -0.1410  0.2785  0.0680
 7831TIP3    H144908   3.980   0.677  17.192 -0.5161  0.0821 -0.1960
 7831TIP3    H244909   4.087   0.595  17.124  0.2806  0.5705  0.4574
 7832TIP3   OH244910   3.048   1.565   1.883  0.6470 -0.4097  0.2713
 7832TIP3    H144911   3.131   1.596   1.845  0.6452  0.0687  0.6416
 7832TIP3    H244912   3.045   1.472   1.861  1.4513 -0.5096  0.5576
 7833TIP3   OH244913   4.485   4.380  13.470  0.3422  0.0558  0.1038
 7833TIP3    H144914   4.539   4.318  13.520  2.5857  1.9051  0.0433
 7833TIP3    H244915   4.535   4.395  13.389 -0.3162  1.7089 -0.0091
 7834TIP3   OH244916   3.201   1.919   4.592 -0.0449  0.1830  0.0404
 7834TIP3    H144917   3.219   1.952   4.504 -1.1221 -0.1638 -0.3226
 7834TIP3    H244918   3.212   1.995   4.649 -0.1422  0.6006 -0.4906
 7835TIP3   OH244919   6.640   5.266   0.275 -0.1385  0.2923  0.2231
 7835TIP3    H144920   6.723   5.274   0.228 -0.3479  0.5540 -0.1123
 7835TIP3    H244921   6.664   5.263   0.368  0.5273 -3.6658  0.0125
 7836TIP3   OH244922   1.186   6.484  11.324 -0.0001 -0.3900  0.3335
 7836TIP3    H144923   1.114   6.451  11.269 -1.6079  0.4159  1.8904
 7836TIP3    H244924   1.167   6.577  11.336  2.2094  0.2049 -0.5473
 7837TIP3   OH244925   0.818   0.073   4.769 -0.1786 -0.0731 -0.0809
 7837TIP3    H144926   0.752   0.117   4.715  1.6826  3.0950  0.0682
 7837TIP3    H244927   0.872   0.025   4.706 -0.5123  0.1840 -0.5740
 7838TIP3   OH244928   5.551   1.572   5.104  0.1074 -0.0052 -0.7518
 7838TIP3    H144929   5.612   1.625   5.054  0.8291 -2.2064 -2.2990
 7838TIP3    H244930   5.563   1.600   5.195  1.7767  1.1412 -1.3062
 7839TIP3   OH244931   6.615   3.820  14.416 -0.2934  0.1093  0.2071
 7839TIP3    H144932   6.710   3.826  14.407 -0.2798  0.3128  0.4571
 7839TIP3    H244933   6.600   3.734  14.456 -0.1383  0.5076  1.1383
 7840TIP3   OH244934   6.474   4.099  16.261 -0.2634  0.2501  0.3123
 7840TIP3    H144935   6.535   4.125  16.330 -0.7284  1.5088  0.2540
 7840TIP3    H244936   6.387   4.121  16.295 -0.6040 -0.4744 -0.0756
 7841TIP3   OH244937   0.048   0.136   4.062 -0.0618 -0.1701 -0.1118
 7841TIP3    H144938   0.067   0.204   4.128 -1.1328 -0.1108  0.1510
 7841TIP3    H244939   0.038   0.056   4.113 -0.2733 -0.2441 -0.2703
 7842TIP3   OH244940   3.225   2.665  11.088  0.0302 -0.1740  0.0840
 7842TIP3    H144941   3.313   2.677  11.125  1.2871 -1.0903 -2.5335
 7842TIP3    H244942   3.238   2.670  10.994 -2.5646 -1.6051 -0.3807
 7843TIP3   OH244943   0.236   6.568   0.065  0.0973 -0.1729 -0.1311
 7843TIP3    H144944   0.232   6.543  -0.028 -0.9254 -0.0425 -0.1294
 7843TIP3    H244945   0.149   6.548   0.099  1.2525 -2.6820  1.4631
 7844TIP3   OH244946   2.533   2.169  16.237  0.1930 -0.7616 -0.7037
 7844TIP3    H144947   2.454   2.178  16.291 -1.4603 -2.2534 -2.8004
 7844TIP3    H244948   2.584   2.247  16.257 -1.5271 -0.0588  1.1631
 7845TIP3   OH244949   4.800   1.691  14.524 -0.8284 -0.0049 -0.3243
 7845TIP3    H144950   4.858   1.766  14.534 -0.0475 -0.7161  0.6385
 7845TIP3    H244951   4.844   1.634  14.461 -0.5766 -0.4494  0.2495
 7846TIP3   OH244952   6.644   2.435  11.654  0.0912  0.4275 -0.2041
 7846TIP3    H144953   6.552   2.457  11.640  0.2569  0.1755 -1.8168
 7846TIP3    H244954   6.692   2.495  11.598  0.9580  0.9527  1.0807
 7847TIP3   OH244955   3.110   2.756  14.305  0.7298  0.1238  0.0266
 7847TIP3    H144956   3.138   2.672  14.270 -0.1022 -0.5690  1.0151
 7847TIP3    H244957   3.180   2.783  14.364  1.2635  0.4085 -0.7278
 7848TIP3   OH244958   6.178   1.853   0.670 -0.4193  0.3693  0.3572
 7848TIP3    H144959   6.205   1.881   0.757 -0.4147 -2.5484  1.3522
 7848TIP3    H244960   6.236   1.779   0.650 -3.0781 -1.5767 -0.4000
 7849TIP3   OH244961   0.661   3.347   1.959  0.6607 -0.6578  0.2513
 7849TIP3    H144962   0.595   3.351   1.890 -0.0326  0.5905  0.9714
 7849TIP3    H244963   0.610   3.340   2.040  1.3799  1.1320  0.8801
 7850TIP3   OH244964   4.058   0.021  17.175  0.2069 -0.1056  0.0767
 7850TIP3    H144965   4.017   0.006  17.260 -0.4587 -0.1688 -0.2603
 7850TIP3    H244966   4.151   0.030  17.195 -0.0456  0.6630  0.8993
 7851TIP3   OH244967   3.948   4.065  14.591  0.0346 -0.0901 -0.1243
 7851TIP3    H144968   4.018   4.023  14.640  1.1790  0.7073 -1.0630
 7851TIP3    H244969   3.953   4.158  14.615 -1.1083 -0.1320  0.2972
 7852TIP3   OH244970   1.172   0.901  13.300  0.0881  0.2150 -0.3956
 7852TIP3    H144971   1.212   0.852  13.371  0.2615 -0.1348 -0.7395
 7852TIP3    H244972   1.243   0.916  13.238 -0.5445 -1.3035 -1.4945
 7853TIP3   OH244973   3.344   3.223  10.957 -0.4740 -0.0915 -0.0876
 7853TIP3    H144974   3.396   3.172  11.019 -1.9697 -1.6647 -0.0891
 7853TIP3    H244975   3.408   3.263  10.898  0.9641  1.2165  2.2652
 7854TIP3   OH244976   6.676   2.099  16.197  0.5744  0.3504  0.1401
 7854TIP3    H144977   6.710   2.035  16.260 -0.8632 -0.8543 -0.2664
 7854TIP3    H244978   6.751   2.155  16.176  1.5118 -0.3435  1.5581
 7855TIP3   OH244979   2.166   3.021  16.947 -0.5253 -0.6934 -0.4718
 7855TIP3    H144980   2.240   3.071  16.983  0.3760 -1.2297 -1.5321
 7855TIP3    H244981   2.188   3.011  16.854 -0.7029 -3.0224 -0.2792
 7856TIP3   OH244982   3.824   3.806  12.808  0.1946 -0.2189  0.0318
 7856TIP3    H144983   3.760   3.734  12.816 -2.8385  2.4729  1.0047
 7856TIP3    H244984   3.809   3.841  12.720  0.8405  0.0065  0.0115
 7857TIP3   OH244985   6.763   6.175  13.474  0.0855  0.4324  0.1192
 7857TIP3    H144986   6.671   6.151  13.479  0.3208 -0.4939 -0.0489
 7857TIP3    H244987   6.808   6.096  13.447  0.8387  1.0898 -0.5956
 7858TIP3   OH244988   1.930   0.362   4.912  0.0134  0.1659  0.6950
 7858TIP3    H144989   1.949   0.280   4.958  0.2111  0.1592  0.6047
 7858TIP3    H244990   1.837   0.377   4.927  0.2756  0.6606  1.9046
 7859TIP3   OH244991   0.046   6.720   4.925 -0.1447  0.0676 -0.1700
 7859TIP3    H144992   0.128   6.738   4.970  0.1898  0.3561 -0.9003
 7859TIP3    H244993  -0.018   6.778   4.967  0.1780  0.3723 -0.1018
 7860TIP3   OH244994   4.052   0.831  16.042 -0.4712 -0.1892  0.7586
 7860TIP3    H144995   4.123   0.884  16.078  0.6400 -0.9860 -0.2134
 7860TIP3    H244996   4.012   0.790  16.118  0.7130 -0.4629  1.2514
 7861TIP3   OH244997   2.529   6.371  15.894 -0.4244 -0.4174  0.1384
 7861TIP3    H144998   2.441   6.349  15.923 -0.7803  2.0153  0.9633
 7861TIP3    H244999   2.520   6.454  15.847  0.9971 -1.5701 -2.2552
 7862TIP3   OH245000   6.455   0.584  13.032  0.0917 -0.4720 -0.2281
 7862TIP3    H145001   6.391   0.608  13.099  0.2171  0.3085 -0.3837
 7862TIP3    H245002   6.428   0.497  13.004 -0.2564 -0.6010  0.4858
 7863TIP3   OH245003   4.296   4.657   0.961  0.6794  0.1358 -0.4799
 7863TIP3    H145004   4.386   4.651   0.993  1.7046  2.1297 -2.8302
 7863TIP3    H245005   4.279   4.572   0.921  0.7099 -1.0179  1.8773
 7864TIP3   OH245006   4.669   0.956  16.221  0.5074 -0.1132 -0.2362
 7864TIP3    H145007   4.582   0.996  16.223  0.8956  0.6916  1.3501
 7864TIP3    H245008   4.714   1.002  16.150 -0.7432 -1.3894 -1.8971
 7865TIP3   OH245009   4.854   0.109  13.112 -0.1646  0.3033  0.1621
 7865TIP3    H145010   4.786   0.173  13.088  0.0098  0.8982  1.2011
 7865TIP3    H245011   4.879   0.068  13.029  0.1018  1.9708 -0.6104
 7866TIP3   OH245012   1.067   0.525  14.537  0.2189 -0.3339  0.3936
 7866TIP3    H145013   0.992   0.573  14.574 -0.0713 -0.8140  0.4288
 7866TIP3    H245014   1.106   0.586  14.475  0.5503  0.3879  1.3071
 7867TIP3   OH245015   5.069   3.558   5.500 -0.0048 -0.4938  0.0431
 7867TIP3    H145016   5.144   3.557   5.441  0.2473 -1.4185  0.3762
 7867TIP3    H245017   5.008   3.494   5.462 -1.3675  1.4573 -1.1731
 7868TIP3   OH245018   6.704   0.409   6.290  0.0419  0.0656 -0.0712
 7868TIP3    H145019   6.654   0.480   6.331  0.4032  0.1135  0.2907
 7868TIP3    H245020   6.715   0.344   6.359  1.9203  0.7977  0.3440
 7869TIP3   OH245021   3.033   6.410   6.027 -0.0005  0.4183 -0.6922
 7869TIP3    H145022   2.948   6.375   6.051  0.4052  0.1996  0.4929
 7869TIP3    H245023   3.063   6.456   6.106  1.2609 -0.0924 -0.8542
 7870TIP3   OH245024   6.348   6.031  15.664 -0.3790 -0.3214  0.0541
 7870TIP3    H145025   6.442   6.042  15.648 -0.5678 -1.5110 -2.0167
 7870TIP3    H245026   6.306   6.094  15.605 -0.9059  0.2490  1.0163
 7871TIP3   OH245027   6.287   0.517  14.611  0.7060  0.1257  0.2330
 7871TIP3    H145028   6.255   0.510  14.521  0.9652  1.1199  0.0476
 7871TIP3    H245029   6.209   0.508  14.665  0.7972 -2.3316 -0.0063
 7872TIP3   OH245030   1.363   4.541   2.051 -0.0287 -0.1493 -0.3761
 7872TIP3    H145031   1.306   4.523   1.977 -0.6608 -1.8232  0.4773
 7872TIP3    H245032   1.410   4.620   2.027 -0.5448 -0.4220 -2.3662
 7873TIP3   OH245033   6.052   0.259  10.519 -0.1326  0.0385 -0.5070
 7873TIP3    H145034   6.138   0.236  10.483  0.9156  0.8378  1.4314
 7873TIP3    H245035   6.050   0.354  10.517 -0.7300  0.0356  0.0427
 7874TIP3   OH245036   3.359   3.964  13.461  0.3495  0.2819 -0.2266
 7874TIP3    H145037   3.296   4.030  13.432 -0.3083 -0.1716  0.1467
 7874TIP3    H245038   3.399   4.003  13.539 -1.9145 -0.8133  1.5460
 7875TIP3   OH245039   5.012   6.408   5.219  0.6994  0.5758 -0.4724
 7875TIP3    H145040   5.027   6.405   5.124 -0.1032 -0.8064 -0.5641
 7875TIP3    H245041   4.982   6.320   5.241  0.4334  1.0302  0.9968
 7876TIP3   OH245042   1.853   1.477   5.411  0.6822  0.5127 -0.6279
 7876TIP3    H145043   1.785   1.419   5.445  1.1449 -0.1089 -0.7532
 7876TIP3    H245044   1.811   1.563   5.404  0.6048  0.6588  1.5599
 7877TIP3   OH245045   2.695   3.084   5.438 -0.3915  0.2063 -0.0751
 7877TIP3    H145046   2.790   3.091   5.448 -0.6542  1.6492  1.5260
 7877TIP3    H245047   2.678   2.989   5.439  1.0986 -0.0932 -1.1948
 7878TIP3   OH245048   4.868   2.590   0.785 -0.7461  0.2103  0.2161
 7878TIP3    H145049   4.953   2.632   0.797 -0.1512 -1.0261  0.3643
 7878TIP3    H245050   4.824   2.602   0.870 -0.8351  1.0770  0.0555
 7879TIP3   OH245051   2.781   2.237   4.374  0.0179 -0.1313  0.1339
 7879TIP3    H145052   2.830   2.283   4.443 -0.5816  0.3059  0.2758
 7879TIP3    H245053   2.769   2.303   4.306  0.4309 -0.5057 -0.3005
 7880TIP3   OH245054   5.071   6.612  14.528  0.1765  0.3408 -0.1729
 7880TIP3    H145055   5.033   6.552  14.593 -3.5521 -1.1249 -3.5236
 7880TIP3    H245056   5.118   6.555  14.468  0.1432  1.2385 -1.0613
 7881TIP3   OH245057   5.282   3.024  15.321 -0.3298  0.4847  0.1333
 7881TIP3    H145058   5.264   3.078  15.243  0.4421 -0.0295 -0.4083
 7881TIP3    H245059   5.344   3.076  15.372 -2.0728  1.5543  1.2260
 7882TIP3   OH245060   1.550   4.345   1.812  0.1952 -0.0258  0.1418
 7882TIP3    H145061   1.573   4.437   1.800 -2.3705  0.7224  0.5973
 7882TIP3    H245062   1.623   4.308   1.862  0.2202  2.2873  1.8904
 7883TIP3   OH245063   1.332   4.113  13.253  0.3594 -0.0617  0.5669
 7883TIP3    H145064   1.242   4.102  13.283  0.6111 -1.5809  0.7635
 7883TIP3    H245065   1.366   4.185  13.306 -1.0732  1.2630 -0.2658
 7884TIP3   OH245066   2.571   4.564   2.602  0.2994 -0.1968  0.5140
 7884TIP3    H145067   2.544   4.622   2.673 -1.0002  0.1644 -0.2640
 7884TIP3    H245068   2.661   4.591   2.582 -0.0159  1.0230  0.6868
 7885TIP3   OH245069   4.767   4.362   2.033  0.5995  0.0029  0.1091
 7885TIP3    H145070   4.719   4.309   2.096 -0.8982 -1.0503 -1.8587
 7885TIP3    H245071   4.859   4.342   2.050  0.1554 -1.3765  0.9999
 7886TIP3   OH245072   5.551   3.540  12.547 -0.1365 -0.5778 -0.0306
 7886TIP3    H145073   5.482   3.604  12.529 -0.1821 -0.5988  0.0668
 7886TIP3    H245074   5.555   3.485  12.469  0.0160 -0.3546 -0.1823
 7887TIP3   OH245075   1.922   5.800  14.163  0.2978 -0.0893  0.6067
 7887TIP3    H145076   1.920   5.758  14.077 -0.6738  0.0756  0.5427
 7887TIP3    H245077   2.011   5.784  14.195 -0.1147 -2.4379  0.6947
 7888TIP3   OH245078   3.975   6.434   5.433 -0.4874 -0.0183 -0.5172
 7888TIP3    H145079   3.938   6.401   5.515 -0.4490 -0.6119 -0.7400
 7888TIP3    H245080   4.039   6.368   5.407  0.8815  1.0908 -0.0400
 7889TIP3   OH245081   0.953   2.249  16.549 -0.5039  0.2146 -0.3779
 7889TIP3    H145082   1.037   2.229  16.509  0.0266 -0.2097  0.9130
 7889TIP3    H245083   0.888   2.209  16.491  0.2067  0.1329 -1.1190
 7890TIP3   OH245084   2.427   4.341   4.823 -0.2630 -0.0753  1.0145
 7890TIP3    H145085   2.372   4.302   4.891 -2.8426  3.1114  0.8800
 7890TIP3    H245086   2.366   4.361   4.752  1.2729  2.5684  0.3998
 7891TIP3   OH245087   3.408   3.225   1.614  0.3235 -0.0696  0.4681
 7891TIP3    H145088   3.437   3.289   1.678  0.8326  0.6635 -0.4902
 7891TIP3    H245089   3.457   3.145   1.636  1.1393  0.4259  0.4544
 7892TIP3   OH245090   0.065   3.672   5.411 -0.8743 -0.1617  0.1744
 7892TIP3    H145091   0.070   3.659   5.316 -1.2428  2.1370 -0.1926
 7892TIP3    H245092  -0.029   3.685   5.428 -0.6211  1.2847  0.5627
 7893TIP3   OH245093   0.304   0.355  11.198  0.4231  0.2269 -0.3140
 7893TIP3    H145094   0.215   0.327  11.216  0.6197 -1.4598 -1.8035
 7893TIP3    H245095   0.354   0.274  11.191  1.8800  1.1104 -0.5007
 7894TIP3   OH245096   1.073   1.282   4.141  0.6100  0.1572 -0.5269
 7894TIP3    H145097   1.078   1.239   4.226  1.0655 -0.4144 -0.8359
 7894TIP3    H245098   1.134   1.356   4.148 -1.5961  1.8960  0.6413
 7895TIP3   OH245099   5.056   2.937   4.351 -0.3685  0.5137  0.4706
 7895TIP3    H145100   5.134   2.916   4.300 -1.0376  0.0525 -0.3836
 7895TIP3    H245101   5.043   2.861   4.408 -2.2118 -1.0198 -1.9056
 7896TIP3   OH245102   5.911   3.710  13.052  0.4055 -0.1135  0.8149
 7896TIP3    H145103   5.983   3.671  13.101  1.5257  1.3010  0.3378
 7896TIP3    H245104   5.863   3.762  13.117 -1.0332 -2.1265  1.4301
 7897TIP3   OH245105   3.412   3.004   1.912  0.2789  0.4555 -0.3321
 7897TIP3    H145106   3.499   2.977   1.883  0.0453  1.5493 -2.0842
 7897TIP3    H245107   3.352   2.963   1.849 -0.3473  1.3492 -0.3276
 7898TIP3   OH245108   2.501   0.689   3.221  0.3502  0.1849  0.3250
 7898TIP3    H145109   2.487   0.783   3.220  0.2845  0.1774  0.5009
 7898TIP3    H245110   2.432   0.655   3.279 -0.4396 -0.0960 -0.7576
 7899TIP3   OH245111   2.654   0.520   2.069  0.1705 -0.5866  0.1084
 7899TIP3    H145112   2.598   0.545   1.996 -0.4080 -2.8647 -0.2701
 7899TIP3    H245113   2.615   0.440   2.104  2.5227 -1.6014  0.5512
 7900TIP3   OH245114   1.225   0.411  17.069  0.5519 -0.0946 -0.4175
 7900TIP3    H145115   1.316   0.381  17.072  0.4872 -0.2151  0.3431
 7900TIP3    H245116   1.228   0.501  17.099  0.1924 -0.6374  1.2954
 7901TIP3   OH245117   5.948   0.072   2.006 -0.1612 -0.2665  0.2502
 7901TIP3    H145118   6.023   0.063   2.064 -0.9499  0.3385  1.3715
 7901TIP3    H245119   5.946   0.165   1.983 -0.2687 -0.3745 -0.1810
 7902TIP3   OH245120   2.166   0.291   1.580 -0.5642  0.2473  0.0788
 7902TIP3    H145121   2.203   0.210   1.545  1.2168  0.0649  2.3077
 7902TIP3    H245122   2.078   0.295   1.542 -0.2946 -2.1795 -0.9035
 7903TIP3   OH245123   3.473   0.015  12.719  0.0584  0.2840  0.3964
 7903TIP3    H145124   3.422   0.019  12.799  0.0227  0.4004  0.3686
 7903TIP3    H245125   3.563  -0.001  12.748 -0.1587 -1.0059  0.3948
 7904TIP3   OH245126   5.348   4.587  12.384  0.2352 -0.1284 -0.1034
 7904TIP3    H145127   5.367   4.506  12.431  3.2695  0.0500 -0.9581
 7904TIP3    H245128   5.344   4.654  12.452 -0.8834 -0.7252  0.4457
 7905TIP3   OH245129   6.708   5.443   4.478 -0.3412  0.3535  0.0052
 7905TIP3    H145130   6.754   5.392   4.545 -0.9014  0.4315  0.4508
 7905TIP3    H245131   6.719   5.392   4.397  1.2104  0.7625 -0.0729
 7906TIP3   OH245132   0.488   5.757  12.526  0.3909 -0.1621  0.4380
 7906TIP3    H145133   0.474   5.843  12.485  1.7814  0.7901  1.9129
 7906TIP3    H245134   0.547   5.712  12.466 -1.2641 -0.5827 -0.9475
 7907TIP3   OH245135   0.970   3.077   1.744 -0.0761  0.2179 -0.4304
 7907TIP3    H145136   0.915   3.026   1.804 -1.1982  0.6034 -1.1296
 7907TIP3    H245137   1.021   3.134   1.802 -2.6701  2.1141  0.0721
 7908TIP3   OH245138   1.718   5.571   3.899 -0.4604 -0.1103 -0.7306
 7908TIP3    H145139   1.656   5.504   3.870  2.4589 -3.4800  0.3525
 7908TIP3    H245140   1.712   5.569   3.995 -0.6358  1.5027 -0.7008
 7909TIP3   OH245141   3.618   6.007  13.743 -0.0892  0.1093  0.3463
 7909TIP3    H145142   3.551   6.073  13.760 -0.4170 -0.1639  0.1341
 7909TIP3    H245143   3.701   6.054  13.751 -0.3000  0.3836  0.9000
 7910TIP3   OH245144   3.463   4.145   5.885 -0.2341  0.2683  0.1147
 7910TIP3    H145145   3.439   4.152   5.792 -2.8572  0.1343  0.7342
 7910TIP3    H245146   3.425   4.223   5.925 -0.9727 -0.7515  1.4356
 7911TIP3   OH245147   3.614   3.507  13.477 -0.3177 -0.2091 -0.0374
 7911TIP3    H145148   3.603   3.476  13.387 -0.3804  0.5944 -0.3091
 7911TIP3    H245149   3.635   3.600  13.468 -0.0047 -0.1954  0.7670
 7912TIP3   OH245150   5.060   1.665   5.897  0.6818  0.4761  0.3995
 7912TIP3    H145151   4.994   1.670   5.967  0.7185  0.7819  0.4112
 7912TIP3    H245152   5.092   1.754   5.888 -0.1858  0.6698 -0.8421
 7913TIP3   OH245153   0.454   4.324  12.462  0.0578 -0.0378 -0.7186
 7913TIP3    H145154   0.388   4.254  12.457 -0.7202  0.6484 -0.1530
 7913TIP3    H245155   0.494   4.313  12.548 -1.9329  1.8581  0.4873
 7914TIP3   OH245156   4.562   5.462  11.900  0.0396 -0.2582 -0.4319
 7914TIP3    H145157   4.546   5.429  11.988  1.0475 -1.1869 -0.5689
 7914TIP3    H245158   4.632   5.526  11.911 -1.6508  1.5882 -0.2215
 7915TIP3   OH245159   5.648   2.818  12.932  0.2810 -0.3009 -0.2618
 7915TIP3    H145160   5.675   2.828  12.840 -0.9552  0.3087 -0.5659
 7915TIP3    H245161   5.730   2.798  12.978  0.8399 -1.1169 -1.5619
 7916TIP3   OH245162   1.478   0.861  14.878 -0.7606 -0.1462 -0.1430
 7916TIP3    H145163   1.505   0.908  14.957 -4.4387  2.8391 -0.5278
 7916TIP3    H245164   1.438   0.780  14.910  1.0104 -0.6435  0.8304
 7917TIP3   OH245165   1.033   3.294   4.078 -0.2159 -1.0595 -0.4323
 7917TIP3    H145166   1.043   3.226   4.144 -0.7021 -2.1694 -1.4740
 7917TIP3    H245167   1.116   3.342   4.080 -0.4970 -0.6117  1.4681
 7918TIP3   OH245168   4.714   5.678   4.320 -0.1371  0.1626 -0.4107
 7918TIP3    H145169   4.759   5.607   4.364 -1.8951 -1.0134 -0.4467
 7918TIP3    H245170   4.778   5.749   4.316  2.0221 -1.7588 -1.3168
 7919TIP3   OH245171   2.655   0.458   0.535  0.3834  0.8454 -0.1465
 7919TIP3    H145172   2.581   0.416   0.491  1.9869 -2.1275 -0.1546
 7919TIP3    H245173   2.636   0.449   0.629 -0.4338  2.3196 -0.1599
 7920TIP3   OH245174   5.078   5.973   4.514 -0.3988  0.4791 -0.3980
 7920TIP3    H145175   5.122   6.045   4.559 -2.1140  1.1759  0.2010
 7920TIP3    H245176   5.075   5.903   4.579  0.5146  0.1492 -0.7026
 7921TIP3   OH245177   1.530   6.283   2.464 -0.5325 -0.1691 -0.1259
 7921TIP3    H145178   1.483   6.292   2.547 -0.0221 -1.0402  0.2625
 7921TIP3    H245179   1.485   6.342   2.404 -1.5537 -0.3149  0.4946
 7922TIP3   OH245180   4.973   0.492   2.450 -0.2811 -0.0675  0.1280
 7922TIP3    H145181   4.997   0.400   2.437 -0.1864 -0.3464  2.1491
 7922TIP3    H245182   5.024   0.539   2.384 -1.2809 -1.5728 -1.7484
 7923TIP3   OH245183   1.272   4.212  11.120  0.4052 -0.4122 -0.6797
 7923TIP3    H145184   1.354   4.168  11.139  0.8958  0.1982 -1.3722
 7923TIP3    H245185   1.209   4.174  11.182  1.2469 -0.7396 -0.0233
 7924TIP3   OH245186   5.650   2.929   3.762  0.5115 -0.0727 -0.1667
 7924TIP3    H145187   5.724   2.869   3.762  1.1644  0.6090  3.4572
 7924TIP3    H245188   5.690   3.016   3.763 -0.3381  0.3172  0.5304
 7925TIP3   OH245189   2.772   1.615   3.839  0.3607 -0.1945 -0.2833
 7925TIP3    H145190   2.865   1.617   3.864  0.1909  2.6884  0.2573
 7925TIP3    H245191   2.773   1.592   3.746  1.5751 -0.5113 -0.2094
 7926TIP3   OH245192   6.284   5.621  14.395 -0.1872 -0.3353  0.2254
 7926TIP3    H145193   6.325   5.568  14.327  1.7870 -0.1816  1.2704
 7926TIP3    H245194   6.200   5.579  14.411 -0.8502 -0.1521 -2.5589
 7927TIP3   OH245195   3.095   5.702  12.307 -1.0567 -0.6356 -0.9425
 7927TIP3    H145196   3.101   5.640  12.379 -0.2636 -0.6297 -1.0024
 7927TIP3    H245197   3.030   5.664  12.248 -1.3683 -0.8665 -0.4495
 7928TIP3   OH245198   4.973   3.420  14.199 -0.0115  0.5726  0.1312
 7928TIP3    H145199   4.927   3.483  14.254  2.1543  2.2758  0.0658
 7928TIP3    H245200   4.953   3.447  14.110 -0.3226  0.2219  0.0941
 7929TIP3   OH245201   3.055   5.613  14.025 -0.1321  0.2469 -0.0949
 7929TIP3    H145202   3.101   5.645  14.102 -0.2163  1.9208 -0.7171
 7929TIP3    H245203   3.119   5.619  13.954  0.5003 -2.9134  0.1279
 7930TIP3   OH245204   3.818   5.034   3.700  0.1324 -0.2220  0.8984
 7930TIP3    H145205   3.907   5.001   3.684  0.4734  0.7947  0.6375
 7930TIP3    H245206   3.775   5.029   3.615  0.2696  0.2263  0.7974
 7931TIP3   OH245207   4.150   5.704   5.350  0.1572  0.2525 -0.4416
 7931TIP3    H145208   4.201   5.655   5.415 -0.6325 -1.6835 -1.2120
 7931TIP3    H245209   4.062   5.710   5.388 -0.3395 -0.9952 -1.3391
 7932TIP3   OH245210   3.452   3.929   6.708  0.1401  0.1650 -0.2225
 7932TIP3    H145211   3.538   3.907   6.745 -0.5865 -1.8059  0.3457
 7932TIP3    H245212   3.445   4.024   6.718  0.7604 -0.0680  2.9812
 7933TIP3   OH245213   1.426   1.551   0.851 -0.3024 -0.1638 -0.6267
 7933TIP3    H145214   1.369   1.559   0.928  0.0859  1.8180 -0.5067
 7933TIP3    H245215   1.375   1.590   0.780  0.1298 -0.1525 -0.9320
 7934TIP3   OH245216   5.242   6.675  11.342  0.2104 -0.5479  0.1402
 7934TIP3    H145217   5.228   6.587  11.379 -0.7465 -0.1501  0.7644
 7934TIP3    H245218   5.160   6.694  11.295  0.2921  0.1342  0.2722
 7935TIP3   OH245219   5.370   2.176   0.093 -0.5630  0.3090  0.1838
 7935TIP3    H145220   5.363   2.215   0.006 -3.1270 -1.3792 -0.4317
 7935TIP3    H245221   5.322   2.235   0.150 -0.0329  0.7287  0.1903
 7936TIP3   OH245222   1.788   4.344   2.864  0.3070 -0.0315  0.1583
 7936TIP3    H145223   1.747   4.385   2.940  1.0578 -0.0111  0.5540
 7936TIP3    H245224   1.853   4.408   2.834 -1.3951  0.8373 -1.7361
 7937TIP3   OH245225   4.790   5.796  15.138  0.3880  0.0599 -0.4219
 7937TIP3    H145226   4.884   5.812  15.138  0.4444 -0.2618  0.0933
 7937TIP3    H245227   4.767   5.792  15.231  0.2690 -2.2366 -0.5312
 7938TIP3   OH245228   5.595   5.802  12.600  0.2909  0.3054 -0.3064
 7938TIP3    H145229   5.580   5.853  12.680  2.0093  2.7289 -1.4448
 7938TIP3    H245230   5.685   5.771  12.607  0.0021 -0.6388 -0.6755
 7939TIP3   OH245231   2.560   1.449   3.934 -0.5278 -0.5898 -0.3592
 7939TIP3    H145232   2.624   1.519   3.946 -0.2781 -0.7800 -0.5908
 7939TIP3    H245233   2.505   1.478   3.861 -0.0191 -0.9361 -0.8798
 7940TIP3   OH245234   5.753   3.852  12.821  0.3626  0.2932  0.1645
 7940TIP3    H145235   5.805   3.779  12.855  0.1589  0.7983  1.5826
 7940TIP3    H245236   5.662   3.828  12.843  0.2600  0.7920  0.2864
 7941TIP3   OH245237   1.097   0.911   5.486 -0.5190  0.5435 -0.0264
 7941TIP3    H145238   1.092   0.837   5.547 -0.3316  0.9792  0.5169
 7941TIP3    H245239   1.170   0.890   5.429 -1.6347 -0.5935 -1.0685
 7942TIP3   OH245240   5.885   4.023   3.618  0.1637 -0.4465  0.2017
 7942TIP3    H145241   5.791   4.030   3.604  0.3635  1.4411 -0.4133
 7942TIP3    H245242   5.894   3.997   3.710 -0.9611 -0.7105  0.2388
 7943TIP3   OH245243   0.859   1.793  12.961  0.0709 -0.5713  0.4456
 7943TIP3    H145244   0.928   1.843  12.916  1.6023 -2.8582  0.1751
 7943TIP3    H245245   0.823   1.735  12.893 -1.6028  0.0467  0.7843
 7944TIP3   OH245246   5.157   4.641  11.644 -0.1524 -0.5619  0.4592
 7944TIP3    H145247   5.151   4.547  11.624  1.7451 -1.4054  3.4598
 7944TIP3    H245248   5.247   4.665  11.620  0.1424 -0.1259  1.9022
 7945TIP3   OH245249   0.783   3.929  11.146 -0.4790 -0.1708 -0.0292
 7945TIP3    H145250   0.779   3.912  11.240  0.2373 -0.0287  0.0315
 7945TIP3    H245251   0.831   4.012  11.139 -1.4518  0.3566 -0.4630
 7946TIP3   OH245252   4.242   6.683  11.231 -0.2843 -0.3650  0.1313
 7946TIP3    H145253   4.297   6.704  11.155 -1.1172 -0.5607 -0.5403
 7946TIP3    H245254   4.152   6.686  11.197 -0.7132  0.2555  1.2828
 7947TIP3   OH245255   1.527   6.053   5.450 -0.5442 -0.0508 -0.1994
 7947TIP3    H145256   1.522   6.141   5.414  0.5667  0.1008  0.0062
 7947TIP3    H245257   1.487   6.060   5.537  1.1691  0.6774  0.5702
 7948TIP3   OH245258   2.791   6.329  17.127  0.7490  0.0727 -0.2930
 7948TIP3    H145259   2.821   6.380  17.052  1.6483 -0.4809 -0.3288
 7948TIP3    H245260   2.808   6.238  17.102 -0.2258 -0.2054  0.0318
 7949TIP3   OH245261   1.728   6.428  11.800 -0.4974 -0.6494  0.5497
 7949TIP3    H145262   1.762   6.452  11.714 -0.1585 -0.1420  0.8259
 7949TIP3    H245263   1.774   6.485  11.862 -1.5122 -0.2676  0.9714
 7950TIP3   OH245264   0.941   0.463   3.232 -0.0100 -0.2850  0.4018
 7950TIP3    H145265   1.023   0.507   3.208 -0.3096 -0.3150 -0.7118
 7950TIP3    H245266   0.875   0.506   3.177 -0.5896 -0.8987  0.6262
 7951TIP3   OH245267   1.331   6.037   5.657 -0.2388  0.3709  0.2069
 7951TIP3    H145268   1.301   5.947   5.671 -1.8803  0.5969 -1.6413
 7951TIP3    H245269   1.306   6.083   5.737 -0.9314 -0.4365  0.4597
 7952TIP3   OH245270   1.829   4.362  12.365 -0.2677 -0.3694  0.1303
 7952TIP3    H145271   1.781   4.429  12.316  0.2848 -0.7467 -0.9546
 7952TIP3    H245272   1.761   4.309  12.406 -0.8493 -1.6056 -2.3244
 7953TIP3   OH245273   5.463   4.517   4.241  0.2724  0.1779 -0.3138
 7953TIP3    H145274   5.510   4.439   4.210  0.9932 -0.5173  2.3898
 7953TIP3    H245275   5.372   4.489   4.250  0.5094 -0.3518  0.5397
 7954TIP3   OH245276   5.218   0.053  15.817  0.2269  0.5642  0.2044
 7954TIP3    H145277   5.165   0.091  15.746  0.2977  0.5753  0.1562
 7954TIP3    H245278   5.270  -0.015  15.773  1.3462  1.5591 -0.0358
 7955TIP3   OH245279   3.548   1.235   0.510  0.4335  0.1494  0.2023
 7955TIP3    H145280   3.574   1.273   0.594  1.3488  1.7095 -0.7653
 7955TIP3    H245281   3.610   1.163   0.495 -0.0743 -0.4838  1.1078
 7956TIP3   OH245282   5.664   4.312   6.609  0.4830  0.1054 -0.4874
 7956TIP3    H145283   5.650   4.266   6.692  0.5713 -0.8769 -1.0161
 7956TIP3    H245284   5.743   4.272   6.572  0.5376  0.6516 -0.9778
 7957TIP3   OH245285   2.219   3.793   6.023  0.1381  0.0241 -0.6515
 7957TIP3    H145286   2.296   3.763   6.072 -0.2713 -0.9644 -0.6014
 7957TIP3    H245287   2.223   3.888   6.029  1.3000 -0.0144 -0.5494
 7958TIP3   OH245288   2.217   5.233  16.425 -0.2772  0.3318 -0.0475
 7958TIP3    H145289   2.309   5.205  16.426 -0.9156 -1.8369  1.5915
 7958TIP3    H245290   2.218   5.319  16.467  1.1774  1.0039 -1.3936
 7959TIP3   OH245291   4.268   3.732  16.925 -0.0792  0.2396  0.3782
 7959TIP3    H145292   4.196   3.669  16.914 -3.6402  4.0157  0.7595
 7959TIP3    H245293   4.278   3.772  16.839  0.3121  1.0265  0.7879
 7960TIP3   OH245294   0.778   4.036  10.742 -0.3083 -0.6243 -0.7382
 7960TIP3    H145295   0.808   3.949  10.769  0.1029 -0.1286  0.4448
 7960TIP3    H245296   0.811   4.095  10.810 -0.3798  0.4916 -1.6500
 7961TIP3   OH245297   6.701   5.885   3.537 -0.0476 -0.3829 -0.1014
 7961TIP3    H145298   6.708   5.901   3.443 -0.1497  1.7000  0.2009
 7961TIP3    H245299   6.791   5.889   3.568  0.0237 -1.4889 -0.1774
 7962TIP3   OH245300   3.062   1.737  15.437 -0.3592 -0.1989 -0.6013
 7962TIP3    H145301   3.042   1.771  15.349 -0.2561  0.5607 -0.3322
 7962TIP3    H245302   3.132   1.674  15.422  0.6809  0.9934 -0.9026
 7963TIP3   OH245303   1.124   4.383   1.404  0.3915  0.3820  0.1091
 7963TIP3    H145304   1.118   4.398   1.498 -3.0515 -1.4871  0.2832
 7963TIP3    H245305   1.200   4.326   1.392 -0.7454 -1.6381  2.1217
 7964TIP3   OH245306   3.184   4.313   4.964  0.2728 -0.5690  0.3396
 7964TIP3    H145307   3.137   4.230   4.969 -0.9926  0.1794  1.0611
 7964TIP3    H245308   3.127   4.370   4.912  0.1385  0.4793  1.5977
 7965TIP3   OH245309   0.182   1.770  14.369  0.1734 -0.0342  0.4403
 7965TIP3    H145310   0.118   1.785  14.300 -0.5891 -0.6449  1.0089
 7965TIP3    H245311   0.228   1.690  14.342 -0.5912 -0.6639  0.9710
 7966TIP3   OH245312   6.220   6.059  13.306 -0.4199 -0.2373  0.3876
 7966TIP3    H145313   6.185   5.973  13.328 -1.0273 -0.2690 -0.6605
 7966TIP3    H245314   6.306   6.041  13.267 -0.8325 -0.4293 -0.4521
 7967TIP3   OH245315   1.955   4.428  12.974  0.2934 -0.3377 -0.4171
 7967TIP3    H145316   1.994   4.479  12.903 -2.2437 -0.3203 -1.8779
 7967TIP3    H245317   1.862   4.421  12.950  0.0417 -3.2574  1.1549
 7968TIP3   OH245318   1.551   6.561   2.597 -0.2107 -0.2772  0.2909
 7968TIP3    H145319   1.471   6.603   2.567  0.0267  0.3401  0.5228
 7968TIP3    H245320   1.542   6.556   2.692  0.8983  1.6081  0.5096
 7969TIP3   OH245321   5.437   2.356   5.917 -0.7034  0.1120  0.4350
 7969TIP3    H145322   5.477   2.433   5.878 -0.5069 -0.6108 -0.8339
 7969TIP3    H245323   5.366   2.390   5.972 -1.9092  1.0770 -1.6765
 7970TIP3   OH245324   5.501   0.764  12.355 -0.3199 -0.3475  0.4896
 7970TIP3    H145325   5.407   0.758  12.339 -0.1956 -1.0015 -0.0210
 7970TIP3    H245326   5.518   0.857  12.370 -0.9197 -0.1194 -0.2295
 7971TIP3   OH245327   1.255   4.044  16.213  0.4581 -0.1194  0.1201
 7971TIP3    H145328   1.226   4.067  16.125 -0.4101  0.0100  0.4300
 7971TIP3    H245329   1.332   3.989  16.200  0.9284  0.7123 -0.6975
 7972TIP3   OH245330   3.664   4.610   2.143 -0.0315  0.6716  0.1587
 7972TIP3    H145331   3.623   4.581   2.062  0.9989 -1.2235  0.2781
 7972TIP3    H245332   3.739   4.663   2.115 -0.8368  1.6888 -0.0910
 7973TIP3   OH245333   3.227   0.386  12.082  0.0940  0.2520  0.8780
 7973TIP3    H145334   3.132   0.377  12.085 -0.0590  0.3784 -2.2680
 7973TIP3    H245335   3.260   0.298  12.066  0.5116  0.2115  1.9236
 7974TIP3   OH245336   5.610   2.104   2.876  0.2119  0.4962 -0.0175
 7974TIP3    H145337   5.520   2.100   2.910 -0.2411 -0.5866 -1.3204
 7974TIP3    H245338   5.665   2.086   2.953 -0.6502  1.3520  0.8294
 7975TIP3   OH245339   2.270   5.130   6.250 -0.7377  0.3054  0.3333
 7975TIP3    H145340   2.207   5.058   6.249 -1.5343  0.9243  2.7170
 7975TIP3    H245341   2.322   5.116   6.329 -1.6865  2.9763  1.4859
 7976TIP3   OH245342   6.356   5.076  13.535 -0.7400  0.5740 -0.0171
 7976TIP3    H145343   6.416   5.126  13.590 -2.2573  2.0736  0.3142
 7976TIP3    H245344   6.270   5.096  13.570 -1.5554 -0.2270 -1.5426
 7977TIP3   OH245345   6.152   4.547   4.632 -0.0092 -0.0885 -0.5963
 7977TIP3    H145346   6.117   4.521   4.547  1.3667 -0.8114 -0.9570
 7977TIP3    H245347   6.075   4.567   4.685 -0.9482 -1.4079 -1.4443
 7978TIP3   OH245348   0.824   5.584   3.661  0.0066  0.1397  0.1259
 7978TIP3    H145349   0.832   5.592   3.756  0.8972  0.2303  0.0399
 7978TIP3    H245350   0.822   5.674   3.629  0.3704  0.0988 -0.0050
 7979TIP3   OH245351   6.014   3.609  16.280 -0.3192 -0.2795  0.6172
 7979TIP3    H145352   5.942   3.601  16.217 -0.3342  2.3547  0.2419
 7979TIP3    H245353   6.044   3.699  16.271  1.8600 -0.8107  2.0711
 7980TIP3   OH245354   2.312   4.537  13.838 -0.2069  0.5382  0.0309
 7980TIP3    H145355   2.309   4.590  13.917  0.3694  0.0078  0.4174
 7980TIP3    H245356   2.400   4.497  13.840  0.9027  2.7395 -2.3204
 7981TIP3   OH245357   1.343   4.690  14.790 -0.2880 -0.1940 -0.2567
 7981TIP3    H145358   1.327   4.636  14.868 -1.7218  0.7834  0.1486
 7981TIP3    H245359   1.328   4.780  14.820  1.8870  0.4293 -0.9703
 7982TIP3   OH245360   5.701   3.135   1.930  0.4432  0.1984 -0.2141
 7982TIP3    H145361   5.775   3.075   1.933  2.1215  2.1808 -0.7456
 7982TIP3    H245362   5.643   3.097   1.864  0.9717 -1.3678  0.1950
 7983TIP3   OH245363   6.106   1.646   3.161  0.1169 -0.0145  0.3964
 7983TIP3    H145364   6.017   1.633   3.128 -0.1066 -2.0359  1.6967
 7983TIP3    H245365   6.160   1.594   3.102 -0.0279 -1.8479  1.8455
 7984TIP3   OH245366   2.835   0.795  14.506 -0.3975  0.3632 -0.1548
 7984TIP3    H145367   2.899   0.728  14.531 -1.0051 -0.2176 -0.1370
 7984TIP3    H245368   2.837   0.858  14.578 -0.5399 -0.1521  0.3050
 7985TIP3   OH245369   6.456   0.263   3.670 -0.1997 -0.4657  0.4437
 7985TIP3    H145370   6.527   0.256   3.733  0.3328 -0.1199 -0.1193
 7985TIP3    H245371   6.482   0.333   3.611 -0.0124 -1.7418 -1.0185
 7986TIP3   OH245372   2.994   4.599  11.096  0.0210  0.1993  0.1549
 7986TIP3    H145373   2.997   4.694  11.089  1.1953  0.0851 -0.9340
 7986TIP3    H245374   3.061   4.578  11.161 -0.3926  0.1179  0.5619
 7987TIP3   OH245375   2.232   3.428   1.422 -0.2154 -0.2192 -0.3799
 7987TIP3    H145376   2.299   3.495   1.408 -0.2267 -0.1398 -0.0545
 7987TIP3    H245377   2.271   3.367   1.484 -1.0780  0.7527  1.1460
 7988TIP3   OH245378   1.463   6.369   4.045  0.0101 -0.0330 -0.2058
 7988TIP3    H145379   1.548   6.412   4.059 -0.0458  0.0045  0.0227
 7988TIP3    H245380   1.475   6.319   3.964 -0.5880  2.0973 -1.6582
 7989TIP3   OH245381   1.825   2.297  13.444  0.0270 -0.2596 -0.3491
 7989TIP3    H145382   1.776   2.380  13.441 -0.1804 -0.3392  0.7924
 7989TIP3    H245383   1.770   2.235  13.397 -0.8168 -0.2595  0.6258
 7990TIP3   OH245384   5.127   5.447  12.223  0.2897 -0.2295 -0.2474
 7990TIP3    H145385   5.176   5.416  12.299  0.3446  0.6119  0.0694
 7990TIP3    H245386   5.064   5.377  12.204 -0.0450 -0.2408  0.8663
 7991TIP3   OH245387   1.094   4.822   5.451  0.0845 -0.4180 -0.3409
 7991TIP3    H145388   1.170   4.879   5.465  1.1077 -1.0460 -2.8955
 7991TIP3    H245389   1.053   4.857   5.371  0.5079 -2.9545 -1.7240
 7992TIP3   OH245390   2.869   1.322   5.243 -0.3256 -0.2561 -0.0610
 7992TIP3    H145391   2.815   1.359   5.313 -0.2632 -0.0765 -0.1072
 7992TIP3    H245392   2.817   1.251   5.207 -1.0584  0.7148 -0.9348
 7993TIP3   OH245393   4.147   5.477  11.467  0.2292 -0.1234 -0.5224
 7993TIP3    H145394   4.132   5.563  11.505  1.4472 -0.4009  0.6257
 7993TIP3    H245395   4.067   5.428  11.487  0.2922  0.1687  0.5039
 7994TIP3   OH245396   6.612   1.768   1.754  0.4753 -0.1805 -0.0756
 7994TIP3    H145397   6.677   1.797   1.690  0.3765 -2.3369 -1.1872
 7994TIP3    H245398   6.537   1.827   1.740  0.5584 -0.4373 -1.7524
 7995TIP3   OH245399   4.481   3.945  13.275  0.1834 -0.4456  0.1338
 7995TIP3    H145400   4.552   3.923  13.214 -0.4045 -1.6359 -0.1363
 7995TIP3    H245401   4.438   4.020  13.235  0.9568 -0.0488  0.0266
 7996TIP3   OH245402   4.398   0.464  16.633  0.4492  0.2608 -0.2292
 7996TIP3    H145403   4.488   0.481  16.661  1.3567 -1.1457 -2.1640
 7996TIP3    H245404   4.362   0.407  16.701  0.8579  1.2418  0.8153
 7997TIP3   OH245405   6.198   2.224  16.016 -0.0807 -0.0078  0.3869
 7997TIP3    H145406   6.148   2.148  15.987  0.1966 -0.8251  1.9894
 7997TIP3    H245407   6.152   2.299  15.979 -1.6071 -0.8382  0.5803
 7998TIP3   OH245408   5.068   5.465  15.011 -0.0013 -0.1574 -0.2997
 7998TIP3    H145409   5.121   5.388  15.033  0.7151  0.8702  1.6298
 7998TIP3    H245410   5.042   5.501  15.096 -1.5295  0.9132 -1.2134
 7999TIP3   OH245411   2.419   1.409  15.529  0.0807  0.6420 -0.2017
 7999TIP3    H145412   2.505   1.420  15.488 -0.1476  2.0420 -0.3507
 7999TIP3    H245413   2.387   1.499  15.539 -2.1412  0.0609 -1.8041
 8000TIP3   OH245414   0.675   4.225   4.654 -0.3173  0.0096  0.3402
 8000TIP3    H145415   0.686   4.208   4.748 -1.6172  2.6649  1.0355
 8000TIP3    H245416   0.601   4.170   4.629  0.8294 -1.6546  0.5722
 8001TIP3   OH245417   4.036   0.684   4.619  0.4620  0.0205  0.0778
 8001TIP3    H145418   4.042   0.628   4.542  0.3311 -0.9396  0.7477
 8001TIP3    H245419   4.126   0.702   4.643  0.4994  0.9624 -0.7497
 8002TIP3   OH245420   5.359   5.451  16.608 -0.0566  0.2966  0.2579
 8002TIP3    H145421   5.414   5.378  16.638 -0.6908 -0.0804  0.5087
 8002TIP3    H245422   5.416   5.527  16.613  1.0046 -0.3732 -1.2255
 8003TIP3   OH245423   1.115   3.275  11.262 -0.1955 -0.3526 -0.0726
 8003TIP3    H145424   1.065   3.356  11.272  0.2735 -0.1989  1.1002
 8003TIP3    H245425   1.156   3.282  11.175 -0.8936  0.2421 -0.3559
 8004TIP3   OH245426   5.367   5.456  16.285  0.0368 -0.2025 -0.3926
 8004TIP3    H145427   5.356   5.362  16.294  0.0474 -0.2273 -0.6271
 8004TIP3    H245428   5.462   5.470  16.292 -0.0925 -0.0463  1.0870
 8005TIP3   OH245429   1.344   0.858  15.825  0.3066 -0.2191  0.3751
 8005TIP3    H145430   1.433   0.880  15.800  0.5226 -1.5611 -0.0863
 8005TIP3    H245431   1.290   0.892  15.754  0.5635 -0.4742  0.0559
 8006TIP3   OH245432   3.840   4.509  14.627  0.2409 -0.2227 -0.2703
 8006TIP3    H145433   3.824   4.431  14.681 -0.8669  0.4943  0.4720
 8006TIP3    H245434   3.793   4.579  14.673 -1.0985  0.3164 -2.4038
 8007TIP3   OH245435   0.807   5.921  11.384 -0.6889 -0.3904  0.0169
 8007TIP3    H145436   0.808   6.003  11.335  0.5559 -0.0064  0.6549
 8007TIP3    H245437   0.720   5.884  11.368 -1.4674  1.3262  0.1703
 8008TIP3   OH245438   6.711   6.263   5.457 -0.1204  0.1149 -0.2823
 8008TIP3    H145439   6.653   6.187   5.458 -0.5554  0.4280  1.9590
 8008TIP3    H245440   6.792   6.232   5.497 -0.6007  1.0276  1.4438
 8009TIP3   OH245441   2.835   4.910   7.002  0.3226 -0.1401  0.0486
 8009TIP3    H145442   2.858   4.905   6.909  1.3932  0.5621  0.2726
 8009TIP3    H245443   2.881   4.987   7.034  0.3773 -0.6780  1.2808
 8010TIP3   OH245444   2.939   0.652  12.960 -0.3393 -0.1796 -0.0902
 8010TIP3    H145445   3.026   0.688  12.974 -0.5903  1.0513 -1.5312
 8010TIP3    H245446   2.880   0.727  12.966 -1.1117 -0.7039 -0.8760
 8011TIP3   OH245447   3.019   6.561   3.005 -0.2640  0.4453  0.0862
 8011TIP3    H145448   3.059   6.509   2.936  0.0842  1.2459 -0.3175
 8011TIP3    H245449   3.093   6.607   3.046 -0.3671 -0.5331  1.4420
 8012TIP3   OH245450   2.363   0.411  13.462 -0.0138 -0.0498 -0.4311
 8012TIP3    H145451   2.424   0.385  13.392 -0.8982  0.1302 -1.2818
 8012TIP3    H245452   2.292   0.455  13.416  0.4350  2.0080  0.7854
 8013TIP3   OH245453   4.112   5.495   1.671  0.5569 -0.6742  0.1131
 8013TIP3    H145454   4.092   5.463   1.759  2.4315 -0.9887  0.4559
 8013TIP3    H245455   4.154   5.580   1.686 -0.6911  0.0684 -0.5728
 8014TIP3   OH245456   0.933   2.383   0.991 -0.0142 -0.0283 -0.3188
 8014TIP3    H145457   0.864   2.446   1.015 -1.4781 -1.1128 -1.6048
 8014TIP3    H245458   1.012   2.437   0.985 -0.3307  0.9665  2.9055
 8015TIP3   OH245459   2.873   0.133   3.543  0.0957  0.3919  0.3060
 8015TIP3    H145460   2.807   0.201   3.527  0.6571  1.2390  1.5110
 8015TIP3    H245461   2.955   0.181   3.549  0.5456 -0.4417  0.8478
 8016TIP3   OH245462   2.028   2.836  14.415  0.3894 -0.1389  0.0727
 8016TIP3    H145463   2.047   2.747  14.446  1.1092  0.0005  0.0434
 8016TIP3    H245464   2.051   2.834  14.322 -1.8746 -0.5897 -0.5025
 8017TIP3   OH245465   2.846   3.998  11.532  0.6788 -0.2747  0.2761
 8017TIP3    H145466   2.812   4.083  11.507 -0.5410 -1.1260 -1.0395
 8017TIP3    H245467   2.941   4.009  11.532  0.5660  0.7944 -0.9736
 8018TIP3   OH245468   0.816   1.957  15.030  0.0921 -0.8094  0.2328
 8018TIP3    H145469   0.816   2.047  14.998  1.6159 -1.5297 -1.8622
 8018TIP3    H245470   0.875   1.958  15.105 -0.0274 -0.0541  0.3259
 8019TIP3   OH245471   4.008   1.078  14.948  0.1063  0.6666 -1.0117
 8019TIP3    H145472   4.101   1.100  14.960  0.2659  0.5831 -1.9924
 8019TIP3    H245473   4.009   0.988  14.916 -0.3984  0.1748  0.3178
 8020TIP3   OH245474   0.637   3.671   3.023  0.1035 -0.7608 -0.1669
 8020TIP3    H145475   0.612   3.763   3.011 -0.6637 -0.8125  0.9068
 8020TIP3    H245476   0.685   3.648   2.944 -2.5085 -0.3968 -1.9040
 8021TIP3   OH245477   5.670   3.396   1.906  0.1488  0.2622 -0.4720
 8021TIP3    H145478   5.701   3.306   1.896  0.6936  0.5418 -1.3583
 8021TIP3    H245479   5.624   3.396   1.990  0.8523 -0.6424 -0.0758
 8022TIP3   OH245480   2.830   4.740   3.795  0.6200 -0.2798  0.5151
 8022TIP3    H145481   2.860   4.831   3.799 -1.3778  0.4637 -0.4610
 8022TIP3    H245482   2.874   4.704   3.718 -0.0948  0.4659 -0.2575
 8023TIP3   OH245483   4.198   4.177  17.211 -0.4703  0.2307  0.0694
 8023TIP3    H145484   4.204   4.160  17.117 -1.2884  3.0203 -0.5228
 8023TIP3    H245485   4.104   4.172  17.230 -0.4137  0.8248  0.5140
 8024TIP3   OH245486   6.752   4.171   0.689 -0.0419 -0.3389  0.3167
 8024TIP3    H145487   6.751   4.076   0.703  0.8746 -0.0956  2.1028
 8024TIP3    H245488   6.671   4.202   0.730 -0.5792 -0.3851 -0.6841
 8025TIP3   OH245489   2.147   6.380   1.304  0.0371  0.6050  0.1374
 8025TIP3    H145490   2.130   6.460   1.354 -0.2984  1.0893 -0.7220
 8025TIP3    H245491   2.220   6.403   1.246  1.2180 -0.3215  1.2297
 8026TIP3   OH245492   0.099   5.099  15.309 -0.0408 -0.5231  0.2631
 8026TIP3    H145493   0.165   5.067  15.371  1.2634 -0.5585 -1.1079
 8026TIP3    H245494   0.150   5.131  15.235 -1.4362  2.3756  0.4986
 8027TIP3   OH245495   6.120   0.791   4.037  0.1271  0.2089 -0.7196
 8027TIP3    H145496   6.027   0.777   4.053  0.1255  0.8417 -0.1599
 8027TIP3    H245497   6.152   0.831   4.118  1.1522 -1.2139 -0.3943
 8028TIP3   OH245498   6.242   0.832  16.670  0.1965 -0.1298 -0.2365
 8028TIP3    H145499   6.188   0.754  16.670 -0.0111 -0.0295 -2.9083
 8028TIP3    H245500   6.321   0.807  16.622  1.4267  0.4518  1.4434
 8029TIP3   OH245501   3.704   6.400   2.149 -0.3540  0.1034 -0.1460
 8029TIP3    H145502   3.690   6.445   2.066 -3.0311  2.0462  1.2919
 8029TIP3    H245503   3.721   6.309   2.124  1.6968  1.1630 -2.9274
 8030TIP3   OH245504   3.755   1.395   3.582 -0.6016 -0.3640  0.0462
 8030TIP3    H145505   3.684   1.388   3.518 -0.6676 -0.4010  0.1240
 8030TIP3    H245506   3.711   1.414   3.665 -0.6297 -1.8388  0.3776
 8031TIP3   OH245507   2.820   4.583   1.350  0.3007  0.2675 -0.0472
 8031TIP3    H145508   2.755   4.653   1.361 -1.7618 -1.6875  0.5918
 8031TIP3    H245509   2.868   4.582   1.432 -0.0414  0.5719  0.1622
 8032TIP3   OH245510   2.385   2.052   4.579 -0.4133 -0.0575 -0.1340
 8032TIP3    H145511   2.444   2.017   4.645  1.2543 -0.5573 -1.8470
 8032TIP3    H245512   2.352   1.975   4.532 -1.7442  0.2753  0.2427
 8033TIP3   OH245513   4.706   4.333  15.284  0.2372  0.2412 -0.0264
 8033TIP3    H145514   4.705   4.429  15.276  2.4028  0.1861 -1.2665
 8033TIP3    H245515   4.653   4.302  15.211  0.3548  0.4513 -0.1991
 8034TIP3   OH245516   4.425   3.290   2.102 -0.4146 -0.2918 -0.1526
 8034TIP3    H145517   4.521   3.285   2.094 -0.1947 -1.6032  2.8146
 8034TIP3    H245518   4.397   3.200   2.113 -2.1977 -0.0548 -2.4095
 8035TIP3   OH245519   2.395   4.405  16.013 -0.0592  0.4699  0.1397
 8035TIP3    H145520   2.457   4.340  15.981 -1.7323 -1.6466  1.0927
 8035TIP3    H245521   2.366   4.451  15.934 -0.3119 -1.2769 -0.8033
 8036TIP3   OH245522   2.283   4.207   0.708 -0.1078 -0.0476 -0.2912
 8036TIP3    H145523   2.252   4.292   0.737  2.3999  1.1229 -0.8672
 8036TIP3    H245524   2.336   4.175   0.781 -1.0554 -1.1316 -0.0694
 8037TIP3   OH245525   1.363   0.185  12.830  0.0158 -0.0589  0.1196
 8037TIP3    H145526   1.384   0.191  12.737 -1.3881  0.4098 -0.1702
 8037TIP3    H245527   1.448   0.195  12.874  0.9952 -2.3124 -1.1490
 8038TIP3   OH245528   2.644   2.418  16.014 -0.3696  0.5743 -0.5004
 8038TIP3    H145529   2.604   2.445  16.096 -2.5275  0.5571 -1.5050
 8038TIP3    H245530   2.613   2.483  15.950  1.7271  0.9120 -1.2007
 8039TIP3   OH245531   5.907   6.464   5.535 -0.4235  0.0148 -0.1161
 8039TIP3    H145532   5.866   6.505   5.459  0.4093 -0.0290 -0.5975
 8039TIP3    H245533   5.992   6.434   5.503 -0.0826 -0.0454  0.8252
 8040TIP3   OH245534   1.531   2.300  11.781 -0.1430  0.6575 -0.2455
 8040TIP3    H145535   1.541   2.341  11.696 -0.9943  0.8661 -0.2426
 8040TIP3    H245536   1.446   2.255  11.777 -0.0268  0.3742  0.3678
 8041TIP3   OH245537   4.337   2.345  16.997  0.5204  0.1075  0.1162
 8041TIP3    H145538   4.374   2.428  17.027  0.5253 -0.3006  1.2694
 8041TIP3    H245539   4.385   2.278  17.046 -1.5989 -0.4468  1.5199
 8042TIP3   OH245540   5.963   3.391   4.074 -1.0540 -0.5499  0.0631
 8042TIP3    H145541   5.996   3.449   4.143 -1.9640  1.8735 -1.4585
 8042TIP3    H245542   5.876   3.366   4.104 -1.0659 -0.2912  0.2497
 8043TIP3   OH245543   0.944   0.867   3.732 -0.4966  0.2988 -0.1855
 8043TIP3    H145544   1.035   0.847   3.752 -1.2450 -3.0892  0.1236
 8043TIP3    H245545   0.917   0.928   3.801  0.9555 -0.1931  0.8451
 8044TIP3   OH245546   4.475   4.124   5.508  0.0096  0.4419  0.2750
 8044TIP3    H145547   4.457   4.030   5.508 -0.0162  0.4424 -0.3293
 8044TIP3    H245548   4.570   4.130   5.508  0.0098  0.4156  0.6840
 8045TIP3   OH245549   3.548   6.450   0.151 -0.1529  0.1475  0.0137
 8045TIP3    H145550   3.492   6.488   0.083  0.5191  0.9835 -0.0814
 8045TIP3    H245551   3.540   6.512   0.224 -0.2427 -0.3320  0.4119
 8046TIP3   OH245552   0.086   3.688   2.091  0.2309 -0.0232  0.0726
 8046TIP3    H145553   0.105   3.611   2.145  1.0143 -0.5996 -1.0045
 8046TIP3    H245554   0.053   3.651   2.008 -0.2915  0.8273 -0.1006
 8047TIP3   OH245555   6.233   3.552   0.721  0.2539  0.0744 -0.2876
 8047TIP3    H145556   6.328   3.545   0.714  0.3376  1.0697 -0.2593
 8047TIP3    H245557   6.219   3.626   0.780 -0.5488  1.5862 -2.3339
 8048TIP3   OH245558   5.870   4.416   4.877  0.0222 -0.0929  0.1202
 8048TIP3    H145559   5.829   4.444   4.959 -1.0002  1.1965 -0.8115
 8048TIP3    H245560   5.798   4.413   4.814  1.1874  1.4369 -1.3470
 8049TIP3   OH245561   2.062   1.786  13.625 -0.1483  0.0088 -0.4832
 8049TIP3    H145562   2.062   1.874  13.589 -1.4087 -0.3107 -1.3031
 8049TIP3    H245563   2.047   1.798  13.719  0.5678  0.7081 -0.4553
 8050TIP3   OH245564   5.363   1.709  15.944  0.1242  0.1039  0.0296
 8050TIP3    H145565   5.315   1.783  15.905  1.0747  0.4130 -0.5578
 8050TIP3    H245566   5.399   1.662  15.869 -0.0266 -0.6612  0.4341
 8051TIP3   OH245567   2.754   2.449   1.040 -0.3164 -0.0092 -0.2337
 8051TIP3    H145568   2.808   2.371   1.026 -0.5436 -0.0998 -0.6018
 8051TIP3    H245569   2.745   2.455   1.136  1.4781  0.7712 -0.0997
 8052TIP3   OH245570   4.233   0.560   4.964 -0.0374  0.0048 -0.8426
 8052TIP3    H145571   4.180   0.496   4.917 -0.0588 -1.6000  1.3053
 8052TIP3    H245572   4.322   0.527   4.959 -0.1543 -0.6138  0.9184
 8053TIP3   OH245573   6.089   5.913   6.081  0.1515  0.2309 -0.0182
 8053TIP3    H145574   6.063   5.956   6.162 -1.8885 -0.4871 -0.2571
 8053TIP3    H245575   6.129   5.830   6.109  2.0865  1.2454  0.3426
 8054TIP3   OH245576   1.682   4.704   1.195 -0.3743 -0.3430 -0.4732
 8054TIP3    H145577   1.592   4.735   1.189  0.1177  1.0822 -0.5548
 8054TIP3    H245578   1.675   4.616   1.232 -1.7908 -0.2090 -0.4219
 8055TIP3   OH245579   5.292   6.083   2.287  0.4507  0.1742  0.1820
 8055TIP3    H145580   5.357   6.141   2.325 -0.6267  1.3053  0.3064
 8055TIP3    H245581   5.229   6.067   2.358 -0.5680  0.8214 -0.5589
 8056TIP3   OH245582   3.008   6.167   3.936 -0.1027  0.1636  0.1348
 8056TIP3    H145583   3.023   6.259   3.917  1.5039 -0.3138 -1.0059
 8056TIP3    H245584   3.085   6.140   3.986 -1.1890 -0.2512  1.6306
 8057TIP3   OH245585   3.988   2.497   1.017  0.4999  0.5328 -0.0754
 8057TIP3    H145586   3.918   2.508   0.953  0.3905 -0.3264 -0.1096
 8057TIP3    H245587   3.967   2.559   1.087 -1.7147 -1.4613  1.1350
 8058TIP3   OH245588   0.223   2.253  11.366 -0.0168  0.0790 -0.2979
 8058TIP3    H145589   0.150   2.201  11.399 -0.3499  1.0398  0.5288
 8058TIP3    H245590   0.265   2.287  11.445  0.8505  0.1732 -0.7961
 8059TIP3   OH245591   5.477   0.013  11.298 -0.6076 -0.3816 -0.1865
 8059TIP3    H145592   5.505  -0.033  11.219 -0.9789  0.6744 -0.9473
 8059TIP3    H245593   5.409  -0.043  11.335 -0.5222 -0.8163 -0.6826
 8060TIP3   OH245594   3.152   4.334   5.417  0.6352  0.0812 -0.1133
 8060TIP3    H145595   3.161   4.393   5.342 -0.0639  0.8718  0.4102
 8060TIP3    H245596   3.234   4.346   5.465  1.2033 -0.6408 -0.8969
 8061TIP3   OH245597   5.176   3.555   0.717 -0.1705 -0.1672 -0.0162
 8061TIP3    H145598   5.216   3.502   0.648 -0.7299 -0.4593 -0.1186
 8061TIP3    H245599   5.098   3.593   0.676 -1.3012 -1.4964  0.8742
 8062TIP3   OH245600   1.438   3.011  15.218 -0.0264  0.1383 -0.0216
 8062TIP3    H145601   1.427   3.039  15.309  0.3919  0.4931 -0.0735
 8062TIP3    H245602   1.370   3.058  15.170  0.5134  0.8854 -0.0690
 8063TIP3   OH245603   0.725   1.385   1.650 -0.2621  0.4570 -0.8087
 8063TIP3    H145604   0.736   1.450   1.719 -1.3144  0.0476 -0.2442
 8063TIP3    H245605   0.679   1.312   1.692  1.5945 -1.0066 -1.2299
 8064TIP3   OH245606   6.226   4.277  10.840  0.9203  0.4548 -0.0036
 8064TIP3    H145607   6.217   4.372  10.841  1.3000  0.5548 -3.0896
 8064TIP3    H245608   6.156   4.247  10.783  1.9256 -0.9808 -0.4936
 8065TIP3   OH245609   3.124   4.775   3.902  0.7571 -0.2193  0.1135
 8065TIP3    H145610   3.060   4.819   3.845  0.5901 -0.5209  0.0639
 8065TIP3    H245611   3.199   4.834   3.905  0.4322  0.1847  0.2539
 8066TIP3   OH245612   2.332   6.678   2.824 -0.3855  0.1297 -0.6782
 8066TIP3    H145613   2.331   6.742   2.752 -1.2229  0.5413 -0.3142
 8066TIP3    H245614   2.248   6.632   2.815 -0.3517 -0.0339 -0.1624
 8067TIP3   OH245615   2.309   6.076  12.309  0.0244  0.0054  0.4885
 8067TIP3    H145616   2.339   5.998  12.354  0.8112  0.1790  0.2600
 8067TIP3    H245617   2.309   6.052  12.216  0.6360  0.3977  0.3858
 8068TIP3   OH245618   4.571   5.264  13.056 -0.0661 -0.0960  0.7547
 8068TIP3    H145619   4.586   5.170  13.052  3.3101  0.3846  1.2909
 8068TIP3    H245620   4.602   5.290  13.143  1.0747  1.8316 -0.1993
 8069TIP3   OH245621   1.649   2.498  15.461 -0.1490  0.8704 -0.4562
 8069TIP3    H145622   1.686   2.410  15.454  2.2827  1.8938 -0.8613
 8069TIP3    H245623   1.656   2.535  15.373  0.2220  1.9981  0.0336
 8070TIP3   OH245624   4.018   2.099   0.357 -0.5439 -0.1536 -0.8358
 8070TIP3    H145625   3.950   2.083   0.422 -0.4249 -0.8102 -0.8696
 8070TIP3    H245626   3.987   2.056   0.278  0.0919 -0.8205 -0.7353
 8071TIP3   OH245627   2.794   6.576   1.077 -0.4941  0.5698 -0.0260
 8071TIP3    H145628   2.856   6.526   1.129  1.3888  2.9215  0.0536
 8071TIP3    H245629   2.779   6.522   0.999  1.2968 -0.2235  0.1674
 8072TIP3   OH245630   2.805   1.164  13.952  0.3303 -0.0801  0.3227
 8072TIP3    H145631   2.822   1.153  14.045 -4.0647  2.4268  1.5737
 8072TIP3    H245632   2.762   1.083  13.926 -1.6327  0.5787  1.3966
 8073TIP3   OH245633   2.063   4.332  15.090 -0.2686  0.3812  0.4824
 8073TIP3    H145634   2.006   4.301  15.020  1.6886  0.0961 -1.0253
 8073TIP3    H245635   2.110   4.405  15.052  1.5153 -0.3939  1.1619
 8074TIP3   OH245636   1.567   3.377   1.561 -0.4815  0.6137  0.4638
 8074TIP3    H145637   1.597   3.348   1.647  0.8539 -1.2210 -0.5851
 8074TIP3    H245638   1.643   3.422   1.523 -0.2070 -0.8508 -0.7657
 8075TIP3   OH245639   6.244   2.062   0.455  0.7586 -0.5201 -0.1162
 8075TIP3    H145640   6.198   2.145   0.464  1.0415 -0.2935 -0.7135
 8075TIP3    H245641   6.189   1.999   0.502  0.6972  0.0542  0.5859
 8076TIP3   OH245642   0.456   6.723  15.961  0.7838 -0.0809 -0.6105
 8076TIP3    H145643   0.422   6.661  15.896 -0.4042 -2.3564  2.0628
 8076TIP3    H245644   0.551   6.716  15.953  0.6739  0.8845 -3.1692
 8077TIP3   OH245645   6.374   6.022   0.817 -0.4839  0.0545  0.5333
 8077TIP3    H145646   6.396   5.928   0.820 -0.3202 -0.0053 -1.8768
 8077TIP3    H245647   6.296   6.027   0.762  1.0135  1.5710 -1.5353
 8078TIP3   OH245648   3.390   0.221   3.564 -0.4665  0.2529 -0.4816
 8078TIP3    H145649   3.461   0.282   3.585 -1.5172  1.2879  0.1211
 8078TIP3    H245650   3.420   0.175   3.485  1.5231 -0.4022  0.6316
 8079TIP3   OH245651   3.739   3.270   0.811 -0.3171  0.7195  0.6118
 8079TIP3    H145652   3.806   3.201   0.808  1.8924  2.8595 -1.0396
 8079TIP3    H245653   3.713   3.273   0.903 -0.7128 -2.4946  0.6744
 8080TIP3   OH245654   6.565   5.558   4.746 -0.1206 -0.4919  0.0768
 8080TIP3    H145655   6.488   5.503   4.730 -0.5909 -0.2476  1.4395
 8080TIP3    H245656   6.635   5.496   4.767 -0.4632 -0.6081  0.8735
 8081TIP3   OH245657   5.178   1.093   4.239  1.1079  0.0042  0.2445
 8081TIP3    H145658   5.180   1.088   4.334  0.9044  0.0991  0.2550
 8081TIP3    H245659   5.236   1.166   4.217 -0.6453  1.4755  0.4217
 8082TIP3   OH245660   2.366   0.757  12.259 -0.0074  0.5552  0.0219
 8082TIP3    H145661   2.341   0.764  12.351 -1.3293 -0.7403 -0.2261
 8082TIP3    H245662   2.461   0.752  12.260 -0.0343  0.1869  1.3363
 8083TIP3   OH245663   5.420   4.945  10.265 -0.0356 -0.2687  0.3953
 8083TIP3    H145664   5.432   5.033  10.302 -1.5406  0.4752 -0.8509
 8083TIP3    H245665   5.339   4.913  10.305  0.3936 -1.0141  0.6824
 8084TIP3   OH245666   1.959   4.337   5.162  0.4192  0.3355 -0.1120
 8084TIP3    H145667   1.972   4.249   5.127  0.1329 -0.4327  1.6603
 8084TIP3    H245668   2.047   4.375   5.164  1.1116 -1.2923  2.6195
 8085TIP3   OH245669   2.541   2.290   4.545  0.3591  0.4237  0.3767
 8085TIP3    H145670   2.633   2.273   4.524 -0.3785 -0.4045 -2.3100
 8085TIP3    H245671   2.502   2.203   4.552 -0.5125  0.7990  0.1705
 8086TIP3   OH245672   5.002   4.438   2.271  0.0904 -0.5346 -0.1364
 8086TIP3    H145673   4.988   4.406   2.360  2.9857 -0.7059  0.3003
 8086TIP3    H245674   5.006   4.358   2.218  2.3231 -0.6672  0.2006
 8087TIP3   OH245675   2.188   3.885   1.163 -0.4454 -0.3007  0.3333
 8087TIP3    H145676   2.201   3.978   1.181  0.0572 -0.2117 -0.4665
 8087TIP3    H245677   2.251   3.865   1.093 -1.5931 -0.8916 -0.5490
 8088TIP3   OH245678   3.894   2.078   4.994 -0.3087  0.3292 -0.4266
 8088TIP3    H145679   3.973   2.024   4.995 -0.4279  0.1500 -0.5632
 8088TIP3    H245680   3.926   2.167   4.980 -0.0946  0.3217  0.0185
 8089TIP3   OH245681   4.204   3.201  12.121 -0.3436  0.1862  0.6723
 8089TIP3    H145682   4.285   3.240  12.152 -0.1538 -0.2903  0.7855
 8089TIP3    H245683   4.136   3.233  12.180  0.0509 -0.9280  1.7582
 8090TIP3   OH245684   4.608   4.935  12.084  0.7411  0.0270  0.3644
 8090TIP3    H145685   4.579   4.876  12.015 -1.2577  0.8199  0.5066
 8090TIP3    H245686   4.544   4.922  12.154 -0.4440  3.2430 -0.0744
 8091TIP3   OH245687   5.539   3.853  13.723 -0.7964  0.5238 -0.3205
 8091TIP3    H145688   5.543   3.785  13.655  0.2566 -0.7060  0.9289
 8091TIP3    H245689   5.446   3.874  13.730 -0.7821  1.8389 -3.2461
 8092TIP3   OH245690   3.307   4.135  15.571 -0.0249 -0.4968 -0.0708
 8092TIP3    H145691   3.399   4.135  15.598  0.0561 -1.3344 -0.3210
 8092TIP3    H245692   3.283   4.042  15.569 -0.5350 -0.3438 -1.1838
 8093TIP3   OH245693   2.523   3.594  12.537  0.0528  0.0497 -0.5636
 8093TIP3    H145694   2.487   3.621  12.452 -0.7982 -0.5900 -0.4108
 8093TIP3    H245695   2.470   3.518  12.562 -0.7242  1.1746  1.2746
 8094TIP3   OH245696   5.380   2.901   2.290  0.3675  0.3875 -0.1512
 8094TIP3    H145697   5.444   2.838   2.326  1.1044  2.0046  1.4475
 8094TIP3    H245698   5.406   2.912   2.199  0.8055 -0.9017 -0.1975
 8095TIP3   OH245699   1.376   2.913  10.942 -0.0056  0.1821  0.0887
 8095TIP3    H145700   1.354   2.845  11.006  0.0887 -0.0483 -0.1181
 8095TIP3    H245701   1.292   2.945  10.911 -0.1071  2.6785  2.7779
 8096TIP3   OH245702   3.515   1.362  16.504 -0.3242  0.0362  0.0816
 8096TIP3    H145703   3.523   1.417  16.426  0.7189 -1.3049 -0.7877
 8096TIP3    H245704   3.506   1.424  16.576  0.5445  1.3394 -0.9066
 8097TIP3   OH245705   1.775   2.678   6.098 -0.0614  0.2647  0.3457
 8097TIP3    H145706   1.864   2.650   6.118 -0.7656 -2.5636 -0.2334
 8097TIP3    H245707   1.741   2.711   6.181  0.6440 -1.0913  1.1782
 8098TIP3   OH245708   0.694   2.144  15.662 -0.7964  0.1089  0.1112
 8098TIP3    H145709   0.700   2.143  15.757  2.1215 -0.3588 -0.0599
 8098TIP3    H245710   0.717   2.056  15.635  2.3465  1.2782 -1.2199
 8099TIP3   OH245711   1.679   2.264  16.499 -0.3542 -0.2275  0.2785
 8099TIP3    H145712   1.600   2.317  16.488  0.0549  0.2036 -0.6731
 8099TIP3    H245713   1.751   2.328  16.501  0.5015 -0.8196 -4.3719
 8100TIP3   OH245714   5.902   5.439  15.639 -0.5198  0.1827 -0.0656
 8100TIP3    H145715   5.998   5.437  15.640 -0.5620 -1.8019  1.3144
 8100TIP3    H245716   5.878   5.491  15.716 -0.5840 -0.7334  0.5316
 8101TIP3   OH245717   1.188   2.716   4.183 -0.0790  0.4299 -0.7151
 8101TIP3    H145718   1.108   2.682   4.142 -0.1300 -0.6716  0.2555
 8101TIP3    H245719   1.210   2.794   4.132 -1.8802  0.8544 -0.8679
 8102TIP3   OH245720   4.479   6.106   2.142 -0.3323 -0.3780  0.5951
 8102TIP3    H145721   4.409   6.171   2.143 -0.1231 -0.0344 -2.4760
 8102TIP3    H245722   4.436   6.025   2.116  0.3963 -0.1245 -1.4945
 8103TIP3   OH245723   5.803   0.701  10.881 -0.0294  0.4692  0.5399
 8103TIP3    H145724   5.886   0.746  10.867 -0.3236  0.8789  0.0893
 8103TIP3    H245725   5.768   0.740  10.961 -0.0352  0.6830  0.4356
 8104TIP3   OH245726   5.535   2.967   1.492 -0.2981  0.0643  0.1801
 8104TIP3    H145727   5.628   2.950   1.477 -0.3199 -0.7224  0.9383
 8104TIP3    H245728   5.531   3.062   1.506  0.1533  0.3529 -1.5355
 8105TIP3   OH245729   4.899   6.248  16.806 -0.3682 -0.2723  0.5808
 8105TIP3    H145730   4.904   6.170  16.750 -1.3879  0.4129 -0.5071
 8105TIP3    H245731   4.875   6.318  16.745  2.5570  1.3262  1.1521
 8106TIP3   OH245732   5.876   2.428   5.409  0.2341  0.1935  0.4100
 8106TIP3    H145733   5.959   2.394   5.377  0.8825  0.9965  1.1969
 8106TIP3    H245734   5.864   2.511   5.361  0.4415  0.6283  1.1080
 8107TIP3   OH245735   1.135   3.179   5.613 -0.4152 -0.1730  0.0046
 8107TIP3    H145736   1.101   3.179   5.523  0.5203  1.1975 -0.3559
 8107TIP3    H245737   1.142   3.271   5.637 -0.8310 -0.5284  1.5677
 8108TIP3   OH245738   4.312   5.199   1.674 -0.0573  0.0507 -0.2286
 8108TIP3    H145739   4.343   5.115   1.642 -1.2815 -0.3260 -0.4400
 8108TIP3    H245740   4.219   5.186   1.692 -0.7914  1.9788 -2.4517
 8109TIP3   OH245741   3.315   1.867   3.105 -0.2436  0.3410  0.0665
 8109TIP3    H145742   3.377   1.919   3.053 -0.9524  0.3503 -0.7815
 8109TIP3    H245743   3.247   1.841   3.042  0.9321 -3.0313  0.0622
 8110TIP3   OH245744   5.228   6.394   0.634  0.1690 -0.2822 -0.5519
 8110TIP3    H145745   5.207   6.487   0.641  2.1297  0.1217  0.4993
 8110TIP3    H245746   5.229   6.376   0.539  3.1281  1.6257 -0.9412
 8111TIP3   OH245747   5.566   4.030   0.315  0.9606 -0.3612  0.3210
 8111TIP3    H145748   5.534   3.973   0.385 -0.7755  1.6224  1.2042
 8111TIP3    H245749   5.629   4.088   0.358  0.3439  0.4665  0.1075
 8112TIP3   OH245750   4.297   2.959  12.393  0.5177 -0.1634 -0.4212
 8112TIP3    H145751   4.250   3.041  12.407  0.8217  0.0086 -0.4038
 8112TIP3    H245752   4.379   2.985  12.351  1.5443 -0.2518  1.4817
 8113TIP3   OH245753   6.607   0.058   1.374  0.3451  0.2488 -0.5003
 8113TIP3    H145754   6.540   0.038   1.309  0.6534  0.4855 -0.8911
 8113TIP3    H245755   6.583   0.144   1.408 -0.9415 -0.7247  1.1320
 8114TIP3   OH245756   2.380   0.126  13.488  0.0326 -0.2497 -0.2794
 8114TIP3    H145757   2.330   0.146  13.408 -1.1738  0.8131  0.7179
 8114TIP3    H245758   2.425   0.208  13.509 -1.7733  0.3080  1.5978
 8115TIP3   OH245759   5.281   4.788  14.279  0.1915 -0.8568 -0.2813
 8115TIP3    H145760   5.334   4.708  14.284  0.3137 -0.7287  0.5247
 8115TIP3    H245761   5.345   4.858  14.271  0.0877 -0.8303 -0.8593
 8116TIP3   OH245762   4.833   6.221  13.648  0.1078  0.6802  0.4658
 8116TIP3    H145763   4.777   6.266  13.585  0.3188  1.3345  0.7310
 8116TIP3    H245764   4.866   6.291  13.705 -0.8569 -0.0278  1.9175
 8117TIP3   OH245765   4.292   6.263   1.243  0.2096  0.5393 -0.6739
 8117TIP3    H145766   4.312   6.306   1.326 -0.1447 -1.1737  0.3350
 8117TIP3    H245767   4.332   6.176   1.251 -0.3002  0.1612 -2.0776
 8118TIP3   OH245768   3.277   0.286   0.141 -0.3757  0.4690 -0.1466
 8118TIP3    H145769   3.195   0.336   0.150  0.1237  1.3282 -0.2628
 8118TIP3    H245770   3.324   0.302   0.223  0.2650  1.0923 -0.6189
 8119TIP3   OH245771   1.701   1.478   1.972 -0.2680  0.0272  0.5739
 8119TIP3    H145772   1.775   1.535   1.991 -1.7697  1.5277  2.1660
 8119TIP3    H245773   1.643   1.532   1.917 -1.8697  0.2046  2.4034
 8120TIP3   OH245774   2.790   3.137  11.481 -0.2678 -0.1636 -0.4964
 8120TIP3    H145775   2.867   3.099  11.439  1.5593  2.3615  0.4824
 8120TIP3    H245776   2.786   3.227  11.448 -1.8661  0.2385  0.7109
 8121TIP3   OH245777   0.486   3.855  12.415 -0.2092  1.1025 -0.4543
 8121TIP3    H145778   0.562   3.809  12.381 -0.4222  0.6357 -0.3109
 8121TIP3    H245779   0.522   3.930  12.462  0.1713  0.8028 -0.2605
 8122TIP3   OH245780   1.110   6.495  14.139  0.2644 -0.3103  0.4667
 8122TIP3    H145781   1.149   6.545  14.067  0.3421  0.5520  1.0983
 8122TIP3    H245782   1.175   6.429  14.160  0.8857  0.3781  0.7333
 8123TIP3   OH245783   3.178   3.922   0.145  0.1073  0.0030 -0.5954
 8123TIP3    H145784   3.222   3.998   0.181 -0.0523  0.0060 -0.4063
 8123TIP3    H245785   3.248   3.869   0.107 -0.0675  1.5203 -3.1052
 8124TIP3   OH245786   5.419   2.867   6.625  0.2347 -0.4339  0.1527
 8124TIP3    H145787   5.394   2.815   6.702 -0.6165 -0.5077 -0.1776
 8124TIP3    H245788   5.373   2.950   6.636 -0.1578 -0.5712 -0.4558
 8125TIP3   OH245789   4.934   2.330  11.163 -0.4227 -0.1136  0.2446
 8125TIP3    H145790   4.936   2.408  11.107  0.2264 -1.0759 -1.1226
 8125TIP3    H245791   4.879   2.268  11.115  0.2250 -0.9902  0.6099
 8126TIP3   OH245792   1.124   1.909   0.793  0.2767  0.1215  0.2807
 8126TIP3    H145793   1.070   1.980   0.829  0.3137 -0.9719  2.6310
 8126TIP3    H245794   1.111   1.837   0.855 -0.5995 -2.3088 -2.6419
 8127TIP3   OH245795   5.241   3.358  14.125  0.0481 -0.4762  0.1296
 8127TIP3    H145796   5.153   3.346  14.161  0.4494 -0.3837  1.1293
 8127TIP3    H245797   5.260   3.451  14.137  0.1471 -0.4220 -0.4115
 8128TIP3   OH245798   6.140   5.284   4.799 -0.3489 -0.3766 -0.3487
 8128TIP3    H145799   6.206   5.260   4.864 -0.6240 -0.0040  0.0633
 8128TIP3    H245800   6.078   5.339   4.846 -0.9688 -0.7335 -0.7372
 8129TIP3   OH245801   6.544   6.499  13.926  0.0652 -0.4252 -0.4799
 8129TIP3    H145802   6.613   6.476  13.864  1.3615  0.9665  0.4127
 8129TIP3    H245803   6.562   6.445  14.003  1.0835  1.0278  0.3236
 8130TIP3   OH245804   5.041   4.454  14.502 -0.1352  0.0528 -0.0369
 8130TIP3    H145805   5.024   4.482  14.591 -0.3721  0.1831 -0.1217
 8130TIP3    H245806   5.039   4.534  14.450 -3.1108 -0.3634 -0.6375
 8131TIP3   OH245807   1.898   1.472  16.816  0.7794  0.1962 -0.3338
 8131TIP3    H145808   1.912   1.551  16.868 -0.7495  0.4671 -0.3167
 8131TIP3    H245809   1.944   1.488  16.734  1.6929  0.5004  0.2328
 8132TIP3   OH245810   4.288   3.863   4.699  0.2047 -0.2949 -0.2495
 8132TIP3    H145811   4.235   3.800   4.650  0.2705  0.6547 -1.5812
 8132TIP3    H245812   4.263   3.851   4.790 -0.0928 -1.9507 -0.5319
 8133TIP3   OH245813   5.164   4.982  16.142 -0.0335  0.1848  0.3607
 8133TIP3    H145814   5.248   4.984  16.097 -0.5983  0.6973 -0.6678
 8133TIP3    H245815   5.136   4.890  16.137 -0.5166  0.4089 -1.1067
 8134TIP3   OH245816   4.772   1.141  12.251  0.0574 -0.0051  0.3082
 8134TIP3    H145817   4.770   1.059  12.203 -1.8012  0.2990 -0.1936
 8134TIP3    H245818   4.728   1.204  12.193 -0.1704  0.9039  1.4390
 8135TIP3   OH245819   6.199   2.804   6.096  0.2759 -0.0961 -0.8792
 8135TIP3    H145820   6.162   2.786   6.010 -0.9543 -0.5718 -0.2653
 8135TIP3    H245821   6.289   2.771   6.091 -0.5426 -2.3482 -1.2248
 8136TIP3   OH245822   2.957   3.711   2.780 -0.7623 -0.2285 -0.0934
 8136TIP3    H145823   2.880   3.756   2.745 -0.8886  0.9364  1.6325
 8136TIP3    H245824   2.946   3.714   2.875  1.6840  0.4565  0.2032
 8137TIP3   OH245825   2.227   1.990   3.522  0.7753 -0.2136  0.0631
 8137TIP3    H145826   2.246   1.948   3.438 -0.2438  2.7307 -1.7596
 8137TIP3    H245827   2.148   1.947   3.553  0.6107 -0.6982 -0.9967
 8138TIP3   OH245828   0.498   3.590   3.917 -0.4635  0.1615 -0.2358
 8138TIP3    H145829   0.529   3.527   3.982  0.6819  0.3712 -0.5611
 8138TIP3    H245830   0.475   3.536   3.841 -0.1932  0.0614 -0.2495
 8139TIP3   OH245831   3.364   2.640   5.600  0.1200 -0.2954  0.4091
 8139TIP3    H145832   3.322   2.660   5.516 -1.8621  0.6950  1.6045
 8139TIP3    H245833   3.292   2.617   5.658  1.6272 -2.7324  1.4036
 8140TIP3   OH245834   5.344   2.547  13.993 -0.4145 -0.3233 -0.7948
 8140TIP3    H145835   5.397   2.597  13.931 -1.9216  3.2773  0.6733
 8140TIP3    H245836   5.254   2.559  13.963 -1.0565  0.5055  1.4223
 8141TIP3   OH245837   1.775   6.187  16.010  0.1618  0.4397 -0.4003
 8141TIP3    H145838   1.847   6.124  16.017 -0.3758 -0.1750 -0.3781
 8141TIP3    H245839   1.710   6.143  15.954 -1.6702 -0.3897  2.3121
 8142TIP3   OH245840   6.574   3.796  14.768 -0.1193  0.1283  0.1134
 8142TIP3    H145841   6.560   3.740  14.844  0.5334 -1.1352 -0.6654
 8142TIP3    H245842   6.546   3.743  14.693 -0.4311  1.2194 -0.5588
 8143TIP3   OH245843   0.795   5.066  12.001  0.5666  0.0866 -0.4054
 8143TIP3    H145844   0.837   5.067  12.087 -1.7645 -1.5965  0.8127
 8143TIP3    H245845   0.840   5.134  11.951  0.7935  2.3274  2.7216
 8144TIP3   OH245846   1.452   1.054   4.518  0.1755  0.1253 -0.0707
 8144TIP3    H145847   1.385   1.014   4.574  1.3884  1.0063  2.0992
 8144TIP3    H245848   1.508   0.981   4.491  0.7975 -0.0545  1.6277
 8145TIP3   OH245849   0.870   5.356  12.265  0.1513 -0.6123  0.6927
 8145TIP3    H145850   0.922   5.288  12.222 -0.7798 -0.8248 -0.1062
 8145TIP3    H245851   0.904   5.438  12.229 -0.2476 -0.7627 -0.0370
 8146TIP3   OH245852   3.630   5.534   3.167  0.2973  0.2510 -0.1222
 8146TIP3    H145853   3.644   5.617   3.213 -0.1674 -1.3674  3.0949
 8146TIP3    H245854   3.707   5.524   3.112 -0.0032  3.1660 -1.1585
 8147TIP3   OH245855   3.933   0.690   5.394  0.0590  0.8557  0.0757
 8147TIP3    H145856   3.862   0.641   5.354  0.1982 -0.2789  1.1727
 8147TIP3    H245857   3.983   0.625   5.443  1.2929  1.7945  0.1100
 8148TIP3   OH245858   0.695   1.981  12.644 -0.5173 -0.5589 -0.3186
 8148TIP3    H145859   0.758   1.973  12.716  0.7823 -0.9691 -1.4780
 8148TIP3    H245860   0.615   2.015  12.685  0.0764 -1.1814  1.3819
 8149TIP3   OH245861   1.928   1.807   0.061 -0.0758 -0.1696  0.3196
 8149TIP3    H145862   1.908   1.713   0.058  0.0594 -0.1647 -0.9807
 8149TIP3    H245863   2.001   1.814   0.122 -0.3442 -0.8583  0.7312
 8150TIP3   OH245864   1.430   4.965  15.679 -0.5502  0.1004 -0.8945
 8150TIP3    H145865   1.494   5.001  15.617  0.6426 -1.0084 -0.3236
 8150TIP3    H245866   1.346   4.976  15.635  0.0679  1.1760 -1.8472
 8151TIP3   OH245867   2.216   0.158  11.730  0.4234  0.4648  0.1426
 8151TIP3    H145868   2.214   0.173  11.825 -0.4473 -0.6470  0.3116
 8151TIP3    H245869   2.256   0.072  11.720 -1.7157 -0.5028 -0.3433
 8152TIP3   OH245870   3.800   5.339  14.551 -0.7493  0.0736 -0.1744
 8152TIP3    H145871   3.861   5.278  14.510  0.0367  0.4379  0.4591
 8152TIP3    H245872   3.741   5.364  14.479 -0.0864 -0.1737 -0.8172
 8153TIP3   OH245873   6.490   3.881  16.559  0.1058 -0.2794 -0.3643
 8153TIP3    H145874   6.405   3.884  16.517 -0.1469  0.2003  0.1690
 8153TIP3    H245875   6.532   3.964  16.535 -0.0985  0.0609  0.4353
 8154TIP3   OH245876   5.609   2.198   1.954  0.2178  0.4731  0.0047
 8154TIP3    H145877   5.685   2.140   1.948 -0.0814  0.2345 -1.6861
 8154TIP3    H245878   5.616   2.255   1.878  0.0918  2.1780  1.2420
 8155TIP3   OH245879   2.810   0.990  12.443  0.5701  0.0045  0.6771
 8155TIP3    H145880   2.746   1.058  12.465 -0.6525 -1.1900  0.9003
 8155TIP3    H245881   2.829   0.947  12.526 -1.1727 -2.0413  0.0763
 8156TIP3   OH245882   5.488   3.141  16.147 -0.4968 -0.0690  0.2887
 8156TIP3    H145883   5.561   3.201  16.161  0.0009 -0.7989  0.8431
 8156TIP3    H245884   5.519   3.057  16.180 -0.6266 -1.0121 -1.9307
 8157TIP3   OH245885   3.675   0.157  16.585  0.3886 -0.4596 -0.4912
 8157TIP3    H145886   3.593   0.109  16.596 -0.1745  0.7753  0.7705
 8157TIP3    H245887   3.650   0.239  16.541  0.9735 -0.1739 -0.3020
 8158TIP3   OH245888   5.254   4.213   5.681  0.3561 -0.0685 -0.0943
 8158TIP3    H145889   5.331   4.181   5.729 -0.3645  0.9553  1.8123
 8158TIP3    H245890   5.288   4.288   5.631  0.7136  0.0565  0.3274
 8159TIP3   OH245891   0.900   4.050   2.780 -0.5017  0.3147 -0.4465
 8159TIP3    H145892   0.969   4.057   2.846 -2.8707  0.1114  2.1190
 8159TIP3    H245893   0.939   4.088   2.701  2.0985  1.4078  1.2911
 8160TIP3   OH245894   2.668   0.755  12.316 -0.1787  0.7727  0.6232
 8160TIP3    H145895   2.712   0.831  12.354  1.5981 -0.6886  1.5454
 8160TIP3    H245896   2.710   0.742  12.232  0.4190  0.0217  1.0356
 8161TIP3   OH245897   5.740   3.772   4.603 -0.6658  0.2167 -0.1480
 8161TIP3    H145898   5.751   3.830   4.679  0.1333 -0.6303  0.3939
 8161TIP3    H245899   5.830   3.747   4.580 -0.8785  0.7343 -1.5840
 8162TIP3   OH245900   2.629   4.252  17.199 -0.2071  0.5280 -0.3829
 8162TIP3    H145901   2.669   4.253  17.112  0.5720  0.3891 -0.0244
 8162TIP3    H245902   2.538   4.280  17.183  0.3112  1.8927 -1.0430
 8163TIP3   OH245903   1.327   2.775   0.803  0.0233  0.3544 -0.1819
 8163TIP3    H145904   1.252   2.804   0.752  0.2425 -0.1363 -0.8033
 8163TIP3    H245905   1.331   2.835   0.877 -0.2419  1.1511 -0.7993
 8164TIP3   OH245906   0.756   3.105  13.475  0.2423  0.4657 -0.0088
 8164TIP3    H145907   0.732   3.015  13.453 -0.8669  1.0461 -1.1884
 8164TIP3    H245908   0.693   3.131  13.542 -0.7920  1.0796 -1.1995
 8165TIP3   OH245909   5.873   3.823   4.152 -0.0347 -0.2736  0.2497
 8165TIP3    H145910   5.824   3.742   4.136 -0.0290 -0.5234  1.4558
 8165TIP3    H245911   5.883   3.827   4.247  0.1434  1.0424  0.1902
 8166TIP3   OH245912   2.440   5.972  14.659 -0.1644 -0.1453 -0.1572
 8166TIP3    H145913   2.363   5.975  14.602  0.1252  0.6001 -0.5094
 8166TIP3    H245914   2.459   6.063  14.680 -0.9471 -0.4756  2.0799
 8167TIP3   OH245915   3.171   1.217  16.093  0.0727 -0.4628  0.0806
 8167TIP3    H145916   3.153   1.190  16.003  0.7104  1.1744 -0.5454
 8167TIP3    H245917   3.260   1.186  16.110 -0.2440 -1.2481  0.3493
 8168TIP3   OH245918   2.942   0.185  15.477  0.4342  0.2611 -0.3345
 8168TIP3    H145919   2.929   0.278  15.498  0.8619 -0.1618  1.9624
 8168TIP3    H245920   2.859   0.157  15.440 -0.2102  1.2040  0.3708
 8169TIP3   OH245921   3.374   0.411   4.352 -0.2068  0.3545 -0.3686
 8169TIP3    H145922   3.296   0.367   4.386 -0.3667  0.1923 -0.9363
 8169TIP3    H245923   3.375   0.389   4.259  0.0591  1.0324 -0.5307
 8170TIP3   OH245924   2.214   3.533   5.961 -0.0001 -0.1388  0.6257
 8170TIP3    H145925   2.215   3.527   6.056 -0.9555  1.1454  0.7271
 8170TIP3    H245926   2.235   3.625   5.942  1.1942 -0.6072 -0.4390
 8171TIP3   OH245927   3.441   0.169  14.469  0.0297  0.3689  0.1986
 8171TIP3    H145928   3.385   0.171  14.391  1.8564  1.6058 -1.1010
 8171TIP3    H245929   3.521   0.126  14.441 -0.5413 -2.2374  2.3064
 8172TIP3   OH245930   4.165   3.410   5.962  0.3374  0.3465  0.0470
 8172TIP3    H145931   4.175   3.501   5.934  2.5873 -0.0750 -0.6332
 8172TIP3    H245932   4.251   3.386   5.996 -0.3157 -1.4403  0.4768
 8173TIP3   OH245933   5.344   1.737   5.488 -0.3520 -0.3279 -0.3988
 8173TIP3    H145934   5.267   1.795   5.484 -0.2354 -0.2185 -1.1207
 8173TIP3    H245935   5.324   1.677   5.560 -0.3615  0.7615  0.5226
 8174TIP3   OH245936   4.115   1.285  13.882 -0.4461 -0.1184 -0.2414
 8174TIP3    H145937   4.042   1.297  13.821 -0.4841  1.3110  0.0681
 8174TIP3    H245938   4.179   1.352  13.857  0.9959 -1.6758 -0.8341
 8175TIP3   OH245939   6.769   6.637  14.841 -0.1417  0.3624  0.2901
 8175TIP3    H145940   6.771   6.694  14.764  1.8842  0.1636  0.1849
 8175TIP3    H245941   6.758   6.549  14.805  0.1769  0.3347  0.2592
 8176TIP3   OH245942   1.144   3.175   1.431  0.8397 -0.3894  0.0653
 8176TIP3    H145943   1.068   3.232   1.438  0.5623 -0.6598 -0.6725
 8176TIP3    H245944   1.149   3.131   1.516  0.9495  0.5871  0.5783
 8177TIP3   OH245945   5.774   3.233  14.790 -0.8418  0.3740 -0.0593
 8177TIP3    H145946   5.705   3.290  14.758  0.7468  1.7484 -1.1300
 8177TIP3    H245947   5.830   3.218  14.714  2.3490  2.7518  1.6972
 8178TIP3   OH245948   0.399   3.269  11.459  0.7667 -0.3784 -0.4697
 8178TIP3    H145949   0.446   3.331  11.404  0.0432  0.1635 -0.4730
 8178TIP3    H245950   0.390   3.191  11.405 -1.4023  0.7028 -1.7475
 8179TIP3   OH245951   4.006   5.123  12.610  0.1860 -0.0846 -0.2403
 8179TIP3    H145952   4.025   5.034  12.580  2.4875  0.5699 -0.7788
 8179TIP3    H245953   3.973   5.168  12.532  0.8491  0.0658 -0.4337
 8180TIP3   OH245954   6.386   5.067  11.259 -0.2452  0.1163  0.1458
 8180TIP3    H145955   6.333   4.989  11.245  0.6156 -0.5188  0.4133
 8180TIP3    H245956   6.412   5.062  11.351  0.1240  0.5206  0.0617
 8181TIP3   OH245957   6.255   5.758  13.788  0.0167 -0.3075 -0.1637
 8181TIP3    H145958   6.257   5.691  13.719 -0.5109 -0.1191 -0.3688
 8181TIP3    H245959   6.164   5.758  13.818 -0.3618  1.4065 -1.2532
 8182TIP3   OH245960   4.137   5.477   0.461 -0.4443 -0.1321  0.1301
 8182TIP3    H145961   4.087   5.440   0.534  1.9895 -1.6221  1.1218
 8182TIP3    H245962   4.180   5.554   0.498 -1.8479  1.0369 -0.6632
 8183TIP3   OH245963   3.111   6.517  13.025  0.0984  0.0500  0.3455
 8183TIP3    H145964   3.040   6.578  13.008  0.0197  0.3527  1.6955
 8183TIP3    H245965   3.133   6.481  12.940 -2.2418 -0.6799  0.0170
 8184TIP3   OH245966   0.740   3.692   4.572 -0.3459 -0.0308  0.4764
 8184TIP3    H145967   0.817   3.711   4.627  0.4077 -1.5611 -0.0390
 8184TIP3    H245968   0.715   3.603   4.596 -0.7930 -0.2366 -0.7499
 8185TIP3   OH245969   6.714   5.629  14.549 -0.0210 -0.4195 -0.4430
 8185TIP3    H145970   6.687   5.610  14.459  0.8852 -0.3641 -0.7334
 8185TIP3    H245971   6.692   5.721  14.563 -0.5891 -0.5523 -0.4470
 8186TIP3   OH245972   3.272   4.979  13.452 -0.2891 -0.5786 -0.0801
 8186TIP3    H145973   3.355   4.999  13.408 -0.1817  0.3837  0.5364
 8186TIP3    H245974   3.216   5.054  13.432 -0.3567 -0.3009  1.1066
 8187TIP3   OH245975   0.168   6.650   1.795  0.6362 -0.1431 -0.2836
 8187TIP3    H145976   0.261   6.632   1.801  0.5839 -0.2305  0.2536
 8187TIP3    H245977   0.151   6.713   1.865  0.5894  1.0589 -1.3565
 8188TIP3   OH245978   2.616   3.484  11.506 -0.2101 -0.4236  0.1294
 8188TIP3    H145979   2.665   3.557  11.545  0.6145 -0.4442 -0.8477
 8188TIP3    H245980   2.679   3.442  11.447 -1.2649 -0.7485 -0.7729
 8189TIP3   OH245981   2.181   6.672   1.351  0.9063 -0.7789 -0.0003
 8189TIP3    H145982   2.204   6.757   1.390  1.4245 -0.5115 -0.8786
 8189TIP3    H245983   2.233   6.668   1.271 -0.7322 -0.9906 -1.0785
 8190TIP3   OH245984   0.259   4.182  14.266  0.1367  0.1345  0.0193
 8190TIP3    H145985   0.236   4.274  14.253  0.1440 -0.0043 -1.0225
 8190TIP3    H245986   0.177   4.135  14.248 -0.0932 -0.0097  1.3895
 8191TIP3   OH245987   3.566   6.669   1.240  0.2642 -0.9175  0.2261
 8191TIP3    H145988   3.619   6.736   1.199 -0.1924 -1.5419 -1.4369
 8191TIP3    H245989   3.507   6.639   1.171 -2.5970  0.0979  2.1208
 8192TIP3   OH245990   1.270   2.882  13.484  0.3750  0.0599  0.2797
 8192TIP3    H145991   1.221   2.827  13.423  0.3619 -0.2153  0.5398
 8192TIP3    H245992   1.203   2.920  13.541  0.3808  0.3668  0.0867
 8193TIP3   OH245993   2.397   2.100   3.917 -0.4500 -0.9113  0.3108
 8193TIP3    H145994   2.328   2.162   3.893 -0.1273 -1.6274 -2.6474
 8193TIP3    H245995   2.444   2.143   3.988  0.3761  2.7575 -2.3134
 8194TIP3   OH245996   0.082   2.415  13.969  0.2408 -0.4548 -0.0570
 8194TIP3    H145997  -0.005   2.435  14.003 -0.2345 -2.5841  0.0758
 8194TIP3    H245998   0.140   2.478  14.012 -0.9566 -0.2945  1.3575
 8195TIP3   OH245999   1.581   4.584   4.816  0.1780 -0.1104 -1.0970
 8195TIP3    H146000   1.605   4.654   4.755 -0.2990  0.1484 -0.9896
 8195TIP3    H246001   1.658   4.527   4.818  1.7562  2.0043  1.1238
 8196TIP3   OH246002   5.549   0.544   2.245  0.3304 -0.5845  0.4533
 8196TIP3    H146003   5.626   0.600   2.248  0.6961 -1.1170  1.3188
 8196TIP3    H246004   5.557   0.496   2.163 -0.4387  1.2336 -0.7183
 8197TIP3   OH246005   3.975   5.664  15.919  0.1161 -0.3192 -0.3326
 8197TIP3    H146006   3.884   5.690  15.905  0.5432  2.1345  1.0800
 8197TIP3    H246007   3.973   5.611  15.999  0.2182  1.9759  1.2558
 8198TIP3   OH246008   3.714   3.406   4.303  0.2552 -0.2433  0.2877
 8198TIP3    H146009   3.722   3.312   4.315 -0.0442 -0.1069  1.7637
 8198TIP3    H246010   3.696   3.439   4.391  0.3892  1.1919 -0.2112
 8199TIP3   OH246011   5.205   6.143   5.235 -0.6855 -0.6558  0.0629
 8199TIP3    H146012   5.289   6.150   5.189 -0.5557  1.0385  0.5356
 8199TIP3    H246013   5.153   6.084   5.180 -0.0188  0.1751 -1.4915
 8200TIP3   OH246014   4.162   0.001   2.175 -0.3139  0.6088 -0.3883
 8200TIP3    H146015   4.067   0.011   2.165 -0.1143  0.4237 -2.5607
 8200TIP3    H246016   4.199   0.043   2.098  1.3489 -0.1049  0.0037
 8201TIP3   OH246017   1.987   0.682   4.574  0.7618 -0.6715  0.4965
 8201TIP3    H146018   1.925   0.624   4.530  1.7122 -0.8798 -0.5827
 8201TIP3    H246019   1.941   0.710   4.654 -0.3876 -1.4822  0.1312
 8202TIP3   OH246020   4.625   6.170  14.210  0.1540  0.1616  0.5238
 8202TIP3    H146021   4.599   6.261  14.197 -2.2229 -0.6848 -0.8830
 8202TIP3    H246022   4.706   6.161  14.160 -0.9436  0.8751 -1.4310
 8203TIP3   OH246023   3.125   4.235   0.235 -0.6853 -0.0240  0.1303
 8203TIP3    H146024   3.147   4.291   0.310  0.0420  0.0642 -0.1440
 8203TIP3    H246025   3.105   4.296   0.164 -0.4523 -0.1097 -0.0095
 8204TIP3   OH246026   2.349   1.137   3.001 -0.0023  0.1372 -0.0054
 8204TIP3    H146027   2.299   1.176   3.072 -1.0861 -1.3368  0.0666
 8204TIP3    H246028   2.365   1.209   2.940 -0.9349  0.9448  0.6929
 8205TIP3   OH246029   4.550   3.366  16.175  0.6931 -0.1398  0.0826
 8205TIP3    H146030   4.622   3.311  16.143  0.9422 -0.6770  1.5441
 8205TIP3    H246031   4.592   3.446  16.205  0.5583  0.0094 -0.1256
 8206TIP3   OH246032   3.085   1.981  13.387 -0.1197  0.3141 -0.3864
 8206TIP3    H146033   3.122   1.906  13.433 -1.9841  0.9249  2.1664
 8206TIP3    H246034   3.022   1.943  13.325  0.1252 -0.3205 -0.2432
 8207TIP3   OH246035   6.636   4.750  12.638  0.5465 -0.5822  0.5058
 8207TIP3    H146036   6.545   4.770  12.619  0.6583  1.4599  1.8919
 8207TIP3    H246037   6.658   4.807  12.711  2.1751 -2.9505  1.9530
 8208TIP3   OH246038   2.079   4.875  13.704 -0.4949  0.2813  0.1523
 8208TIP3    H146039   2.163   4.831  13.692 -0.5860  0.5520 -1.6868
 8208TIP3    H246040   2.084   4.913  13.792  1.0648 -0.2120  0.2953
 8209TIP3   OH246041   5.278   2.423  16.486 -0.5436  0.3049  0.4819
 8209TIP3    H146042   5.371   2.446  16.482 -0.2839 -0.4426  2.1444
 8209TIP3    H246043   5.235   2.490  16.432  1.0047  0.3443 -0.7406
 8210TIP3   OH246044   3.116   2.969   3.832 -0.9783  0.0449  0.2230
 8210TIP3    H146045   3.087   3.014   3.753 -2.0992 -0.3754  0.3891
 8210TIP3    H246046   3.083   3.024   3.904  0.1886  0.5228  0.4150
 8211TIP3   OH246047   2.609   3.144  14.877  0.0713 -0.1300  0.2579
 8211TIP3    H146048   2.580   3.223  14.923 -1.6758 -1.3443  1.2874
 8211TIP3    H246049   2.597   3.165  14.784  1.1608  1.3936  0.4488
 8212TIP3   OH246050   6.750   3.610  12.146 -0.5926  0.2095 -0.0829
 8212TIP3    H146051   6.669   3.660  12.140 -1.3072 -0.8602  0.4362
 8212TIP3    H246052   6.819   3.676  12.154 -1.1421  1.2429 -3.1808
 8213TIP3   OH246053   6.191   2.152  13.904 -0.1449  0.2327  0.5818
 8213TIP3    H146054   6.263   2.148  13.840 -1.7715 -2.0748 -1.1890
 8213TIP3    H246055   6.134   2.222  13.871  0.2353  0.6796  0.8616
 8214TIP3   OH246056   4.756   2.009   3.264 -0.6687 -0.0965 -0.6652
 8214TIP3    H146057   4.713   1.924   3.277 -2.6486  0.9110 -0.4218
 8214TIP3    H246058   4.719   2.041   3.181  1.4447 -0.2645 -1.7186
 8215TIP3   OH246059   2.068   6.264   5.048  0.3856  0.1563 -0.0954
 8215TIP3    H146060   2.093   6.352   5.076  0.4038  0.3234 -0.6369
 8215TIP3    H246061   2.114   6.206   5.109  1.1546  0.4946 -0.3509
 8216TIP3   OH246062   2.026   1.880  13.894  0.1300 -1.0327 -0.5803
 8216TIP3    H146063   2.068   1.954  13.939 -2.6013 -0.0724  0.4989
 8216TIP3    H246064   1.983   1.831  13.963 -1.5261 -1.2909 -1.7674
 8217TIP3   OH246065   4.289   0.932   5.695 -0.4086  0.4038  0.1962
 8217TIP3    H146066   4.225   0.950   5.627  1.0494 -0.1000 -1.3350
 8217TIP3    H246067   4.239   0.937   5.777 -1.7499  3.0691 -0.7338
 8218TIP3   OH246068   0.726   6.191   4.227  0.1685 -0.1492  0.0127
 8218TIP3    H146069   0.660   6.259   4.240  0.1627  0.0202 -0.8806
 8218TIP3    H246070   0.676   6.111   4.209  0.2252  0.4719 -3.0331
 8219TIP3   OH246071   2.723   1.635  12.833 -0.4818  0.6107 -0.3446
 8219TIP3    H146072   2.703   1.605  12.744  0.5446 -0.6317 -0.1626
 8219TIP3    H246073   2.657   1.593  12.888 -0.6754  0.8135 -0.4189
 8220TIP3   OH246074   2.278   0.819  11.006 -0.1233  0.2459 -0.6539
 8220TIP3    H146075   2.188   0.841  11.028  0.3190 -0.8354  2.4571
 8220TIP3    H246076   2.274   0.789  10.915 -2.9086  0.0373 -0.4966
 8221TIP3   OH246077   5.830   5.989   4.770 -0.3162  0.3677 -0.0625
 8221TIP3    H146078   5.738   5.968   4.788 -0.4260  0.2425 -0.7673
 8221TIP3    H246079   5.831   6.084   4.759  0.0098  0.6418  2.0982
 8222TIP3   OH246080   2.993   1.987  17.039 -0.3271  0.3329  0.3141
 8222TIP3    H146081   3.052   1.914  17.017  0.0704  0.5573  0.6276
 8222TIP3    H246082   3.032   2.026  17.117 -1.7073 -0.4165  1.3857
 8223TIP3   OH246083   2.174   5.521   4.529  0.1228 -0.1472  0.2908
 8223TIP3    H146084   2.238   5.449   4.536  0.5573  0.0790 -1.2770
 8223TIP3    H246085   2.089   5.479   4.545  0.5094 -0.7185  0.8942
 8224TIP3   OH246086   5.026   6.773   2.945 -0.4009 -0.3367 -0.0568
 8224TIP3    H146087   4.956   6.835   2.967  0.8495  0.2633  2.3939
 8224TIP3    H246088   5.034   6.718   3.023  1.5812 -0.6481 -0.4548
 8225TIP3   OH246089   5.428   3.944  11.453 -0.4231 -0.1520  0.3329
 8225TIP3    H146090   5.345   3.897  11.461 -0.2623 -0.4134  0.4774
 8225TIP3    H246091   5.495   3.876  11.464 -0.1674 -0.5481 -2.9250
 8226TIP3   OH246092   6.517   1.763   3.872  0.0320 -0.2095 -0.5423
 8226TIP3    H146093   6.459   1.734   3.801 -0.4565 -0.4168 -0.0613
 8226TIP3    H246094   6.489   1.853   3.890  0.2545 -0.1066 -0.7166
 8227TIP3   OH246095   0.072   0.612   3.423 -0.2021  0.3039 -0.0131
 8227TIP3    H146096   0.082   0.518   3.404 -0.3873  0.5450 -1.3529
 8227TIP3    H246097   0.073   0.617   3.519  3.2713 -0.6913  0.0612
 8228TIP3   OH246098   6.455   2.383  13.774 -0.3240  0.8346 -0.2447
 8228TIP3    H146099   6.384   2.421  13.722 -0.6484 -0.4871 -0.7953
 8228TIP3    H246100   6.448   2.289  13.759  2.3200  0.7622 -1.2526
 8229TIP3   OH246101   2.916   6.353   0.126  0.1553  0.2876  0.2261
 8229TIP3    H146102   2.870   6.352   0.042 -0.5941  1.0216  0.6134
 8229TIP3    H246103   2.869   6.290   0.180 -0.2640  0.8650  0.5459
 8230TIP3   OH246104   3.712   6.276  11.949  0.4590  0.2025 -0.6459
 8230TIP3    H146105   3.627   6.320  11.954 -0.3386 -1.3038 -0.3795
 8230TIP3    H246106   3.715   6.242  11.859  1.1464  0.9660 -0.9091
 8231TIP3   OH246107   4.097   2.750  13.605  0.2382  0.1370 -0.0583
 8231TIP3    H146108   4.129   2.660  13.602 -1.7627 -0.7298  2.4726
 8231TIP3    H246109   4.153   2.793  13.670 -1.2364 -0.3765  1.6016
 8232TIP3   OH246110   0.091   0.540   0.798  0.5366 -0.4652 -0.2093
 8232TIP3    H146111   0.169   0.596   0.794  1.4913 -1.8527 -1.3923
 8232TIP3    H246112   0.119   0.457   0.760 -1.9760 -0.4932 -2.1024
 8233TIP3   OH246113   1.394   0.619  14.381 -0.0822  0.3090  0.0495
 8233TIP3    H146114   1.485   0.623  14.412 -0.1977  0.6291  0.3478
 8233TIP3    H246115   1.392   0.544  14.322  0.6083  0.8752 -0.7013
 8234TIP3   OH246116   4.101   2.480   3.653 -0.4394 -0.2175 -0.1173
 8234TIP3    H146117   4.148   2.515   3.729  2.7332 -1.4327 -1.4062
 8234TIP3    H246118   4.130   2.389   3.647 -1.8870 -0.5931 -1.8522
 8235TIP3   OH246119   4.501   6.359   4.004 -0.2990 -0.0322  0.1147
 8235TIP3    H146120   4.541   6.302   4.070 -2.4132 -0.6640  0.8713
 8235TIP3    H246121   4.576   6.396   3.957  1.1694 -1.7027  1.0594
 8236TIP3   OH246122   6.679   4.358   2.525  0.2411 -0.5064  0.0872
 8236TIP3    H146123   6.659   4.291   2.590  0.3795 -1.1781 -0.5717
 8236TIP3    H246124   6.773   4.373   2.534 -0.0082  0.5306  1.1254
 8237TIP3   OH246125   4.311   4.455  14.030 -0.3559  0.2215 -0.7151
 8237TIP3    H146126   4.248   4.391  14.064 -0.4786  1.2081  0.9383
 8237TIP3    H246127   4.304   4.446  13.935 -4.2543  1.5294 -0.6350
 8238TIP3   OH246128   5.103   0.822   3.618  0.4985 -0.1470 -0.1679
 8238TIP3    H146129   5.105   0.915   3.638  0.8671 -0.2569  0.3206
 8238TIP3    H246130   5.195   0.796   3.614  0.4147 -0.2948 -1.2468
 8239TIP3   OH246131   5.546   6.240  15.653 -0.2470 -0.5134 -0.2847
 8239TIP3    H146132   5.488   6.258  15.579  0.2257  0.7233 -0.3691
 8239TIP3    H246133   5.634   6.252  15.617 -0.0750  3.4210  1.2935
 8240TIP3   OH246134   5.676   3.863   6.660 -0.1432 -0.7109 -0.3883
 8240TIP3    H146135   5.714   3.823   6.582 -1.7165 -0.4330 -1.3340
 8240TIP3    H246136   5.626   3.792   6.702  0.2929 -0.7346  0.0960
 8241TIP3   OH246137   4.212   0.541  10.752 -0.5854  0.1256 -0.4361
 8241TIP3    H146138   4.149   0.498  10.810 -1.4796  0.5071 -1.1167
 8241TIP3    H246139   4.237   0.474  10.689  0.2351 -0.2312  0.2616
 8242TIP3   OH246140   4.658   2.246  13.625  0.0660 -0.0484 -0.0657
 8242TIP3    H146141   4.588   2.254  13.561  1.6355  1.4856 -1.6301
 8242TIP3    H246142   4.634   2.306  13.695  0.1515  0.9985 -0.9249
 8243TIP3   OH246143   1.708   4.046  16.400  0.3394  0.4404  0.4078
 8243TIP3    H146144   1.676   4.135  16.413 -0.1813  0.2082  0.7420
 8243TIP3    H246145   1.661   4.015  16.323  1.5974  0.9575 -0.5754
 8244TIP3   OH246146   0.934   4.281   1.986  0.3558  0.1712 -0.5715
 8244TIP3    H146147   0.866   4.255   1.924 -1.9061 -2.2448  2.7867
 8244TIP3    H246148   1.004   4.218   1.972 -0.5505 -0.9741 -0.0276
 8245TIP3   OH246149   2.193   1.344  16.992  0.6014 -0.5499  0.8034
 8245TIP3    H146150   2.241   1.294  17.057  0.1315 -0.4503  1.2356
 8245TIP3    H246151   2.154   1.278  16.934  2.4409 -0.5978 -0.4356
 8246TIP3   OH246152   2.613   2.780   5.324  0.1383 -0.0500  0.4343
 8246TIP3    H146153   2.681   2.713   5.331 -0.5296 -0.7324  0.4945
 8246TIP3    H246154   2.626   2.819   5.238 -0.2571 -1.1230 -0.1178
 8247TIP3   OH246155   4.858   2.865   2.636  0.2552  0.2698 -0.1086
 8247TIP3    H146156   4.794   2.907   2.692  1.5524 -0.1291  1.7218
 8247TIP3    H246157   4.834   2.772   2.636  1.8047 -0.1561  1.9691
 8248TIP3   OH246158   0.510   4.195   0.347 -0.4366  0.3034 -0.6243
 8248TIP3    H146159   0.536   4.279   0.311 -0.5686  0.7243  0.2610
 8248TIP3    H246160   0.419   4.207   0.373 -0.1114  0.2469  0.5707
 8249TIP3   OH246161   5.860   4.872  10.573  0.0105  0.3794  0.0902
 8249TIP3    H146162   5.937   4.928  10.564  0.9005 -0.9138 -0.6251
 8249TIP3    H246163   5.858   4.848  10.666 -0.6868  2.0067  0.5059
 8250TIP3   OH246164   6.007   0.412  14.052  0.5744 -0.2567 -0.0659
 8250TIP3    H146165   5.984   0.453  14.136 -0.3476  1.4017 -1.1057
 8250TIP3    H246166   5.941   0.345  14.039 -0.1310  0.4547 -0.1553
 8251TIP3   OH246167   3.331   6.299   0.291 -0.2654 -0.8183 -0.5987
 8251TIP3    H146168   3.408   6.334   0.247 -2.0180  1.2323 -2.1467
 8251TIP3    H246169   3.273   6.375   0.302 -2.2301 -2.3774  0.1650
 8252TIP3   OH246170   2.760   4.892   5.382 -0.0890  0.6422  0.5880
 8252TIP3    H146171   2.790   4.982   5.369 -0.5656  1.1163  2.5730
 8252TIP3    H246172   2.835   4.838   5.356  1.1431  1.6985  1.8949
 8253TIP3   OH246173   3.191   3.813  14.866 -0.0232 -0.1996  0.3101
 8253TIP3    H146174   3.265   3.760  14.836 -0.9187 -0.8012 -0.8485
 8253TIP3    H246175   3.232   3.891  14.904  1.2907 -1.5440  1.7281
 8254TIP3   OH246176   0.827   0.732  13.172 -0.1103 -0.2987 -0.0392
 8254TIP3    H146177   0.852   0.782  13.251  0.6108  0.1950 -0.5720
 8254TIP3    H246178   0.734   0.752  13.161  0.1577  0.9075 -0.2162
 8255TIP3   OH246179   4.881   6.554   5.482 -0.0626  0.6599  0.3241
 8255TIP3    H146180   4.840   6.565   5.568  0.6672  1.5895  0.5673
 8255TIP3    H246181   4.807   6.547   5.422 -0.5773 -0.2381  1.0552
 8256TIP3   OH246182   4.961   2.367   4.898  0.3778  0.8195  0.5226
 8256TIP3    H146183   4.999   2.357   4.985 -0.8977 -0.2629  0.9787
 8256TIP3    H246184   4.926   2.456   4.897  2.8167  1.8151  0.1139
 8257TIP3   OH246185   6.329   3.419  14.275  0.4215  0.5137  0.5181
 8257TIP3    H146186   6.417   3.389  14.252  0.0913 -0.5841  0.6882
 8257TIP3    H246187   6.288   3.344  14.319 -1.1696  0.4659 -0.9979
 8258TIP3   OH246188   4.232   3.828   0.090  0.8155  0.2706  0.5891
 8258TIP3    H146189   4.260   3.919   0.078  0.5885  0.1432 -0.9884
 8258TIP3    H246190   4.297   3.790   0.148  2.2189  0.8196 -0.6060
 8259TIP3   OH246191   4.293   0.404   1.519  0.4346 -0.7355  0.0823
 8259TIP3    H146192   4.292   0.319   1.475 -0.1623 -0.0895 -1.1559
 8259TIP3    H246193   4.202   0.417   1.548  0.6544 -0.7875  0.8199
 8260TIP3   OH246194   4.773   3.769   4.334 -0.0456 -0.4125  0.2337
 8260TIP3    H146195   4.739   3.775   4.423 -1.7439 -0.8701 -0.3534
 8260TIP3    H246196   4.844   3.832   4.331 -1.6367  1.4895  1.1692
 8261TIP3   OH246197   0.946   4.391  11.889 -0.1268 -0.4186 -0.1958
 8261TIP3    H146198   1.040   4.405  11.902 -0.5794  0.9472  1.6830
 8261TIP3    H246199   0.912   4.477  11.865 -0.9568 -0.8411 -0.5431
 8262TIP3   OH246200   1.028   1.090  16.203 -0.3747 -0.4693  0.1837
 8262TIP3    H146201   1.112   1.130  16.181 -0.1196 -0.3729  1.2672
 8262TIP3    H246202   1.052   1.003  16.237 -0.8951 -1.4484 -1.8543
 8263TIP3   OH246203   2.977   5.248  12.443 -0.2444  0.0885  0.0363
 8263TIP3    H146204   2.966   5.318  12.508 -1.9405 -1.9046  1.9931
 8263TIP3    H246205   3.039   5.187  12.483  1.9144  0.8895 -2.0417
 8264TIP3   OH246206   0.502   4.113   3.249  0.0535 -0.4991  0.7199
 8264TIP3    H146207   0.510   4.022   3.278  1.0942 -0.5638  0.2633
 8264TIP3    H246208   0.441   4.109   3.175  1.8438 -1.1847 -0.7733
 8265TIP3   OH246209   3.671   2.754  16.887  0.1702  0.2725 -0.1492
 8265TIP3    H146210   3.646   2.847  16.889  0.9719  0.5462 -1.9621
 8265TIP3    H246211   3.737   2.749  16.818 -0.3781 -1.7900 -0.5460
 8266TIP3   OH246212   3.129   4.983   2.850 -0.3736  0.6072 -0.2586
 8266TIP3    H146213   3.127   5.032   2.933  0.2710  2.2780 -1.2161
 8266TIP3    H246214   3.192   4.913   2.865 -1.5264 -0.1396  1.2317
 8267TIP3   OH246215   0.042   3.900  13.006  0.2718 -0.1086  0.1704
 8267TIP3    H146216   0.081   3.816  12.980  1.2457  0.4008 -0.0138
 8267TIP3    H246217   0.110   3.944  13.056  0.6035  1.5795 -1.7432
 8268TIP3   OH246218   5.197   3.553   2.078  0.1743 -0.3122  0.6350
 8268TIP3    H146219   5.254   3.598   2.015 -0.1068  0.7887  1.1581
 8268TIP3    H246220   5.153   3.485   2.027 -0.5422  0.9857 -0.5085
 8269TIP3   OH246221   4.655   6.680   4.599  0.5491 -0.2351  0.1542
 8269TIP3    H146222   4.637   6.598   4.645  2.2503 -1.2862 -0.9843
 8269TIP3    H246223   4.668   6.744   4.669 -1.3820 -0.7892  1.0423
 8270TIP3   OH246224   5.254   3.164   2.237 -0.7423 -0.3558  0.1967
 8270TIP3    H146225   5.255   3.069   2.249 -1.1394 -0.3305  0.4560
 8270TIP3    H246226   5.288   3.199   2.320 -3.4400 -0.1831  1.2867
 8271TIP3   OH246227   2.003   5.751  10.790  0.6817  0.1515  0.0011
 8271TIP3    H146228   1.997   5.736  10.695  0.0009  1.7846 -0.2236
 8271TIP3    H246229   2.023   5.665  10.826 -1.0768 -0.9162 -1.4519
 8272TIP3   OH246230   6.633   1.186  11.909 -0.1761  0.0221  0.5395
 8272TIP3    H146231   6.537   1.191  11.917 -0.1870  2.0951 -0.4840
 8272TIP3    H246232   6.650   1.199  11.816  1.1451  0.8407  0.8765
 8273TIP3   OH246233   0.488   1.487  12.603  0.0413 -0.3907 -0.5126
 8273TIP3    H146234   0.463   1.494  12.695 -0.4554 -1.1847 -0.5825
 8273TIP3    H246235   0.481   1.576  12.570 -1.0346 -0.3063 -0.0901
 8274TIP3   OH246236   2.352   2.348  10.778  0.1976  0.3840 -0.1788
 8274TIP3    H146237   2.428   2.357  10.837  1.2210  0.2234 -1.4462
 8274TIP3    H246238   2.338   2.254  10.771  1.0002  0.3382 -1.3285
 8275TIP3   OH246239   6.608   3.100   4.530  0.5706 -0.0157  0.1797
 8275TIP3    H146240   6.569   3.016   4.554  0.7136 -0.0456  0.3066
 8275TIP3    H246241   6.626   3.143   4.614  1.9493 -0.5163  0.1562
 8276TIP3   OH246242   4.456   5.330   6.238 -0.0177 -0.4828  0.4687
 8276TIP3    H146243   4.486   5.350   6.326  0.2496 -0.3545  0.3480
 8276TIP3    H246244   4.364   5.358   6.237  0.1104 -0.0510  0.5628
 8277TIP3   OH246245   2.317   1.956  11.256  0.3478 -0.3482  0.3851
 8277TIP3    H146246   2.326   1.984  11.347 -0.5275  0.2877  0.2820
 8277TIP3    H246247   2.337   2.034  11.205 -0.1654 -0.4277  0.0547
 8278TIP3   OH246248   1.771   0.177  10.767 -0.4214 -0.5309  0.0680
 8278TIP3    H146249   1.792   0.163  10.859  1.1038  0.7190 -0.0617
 8278TIP3    H246250   1.764   0.272  10.759  1.6050 -0.4804 -1.5279
 8279TIP3   OH246251   1.246   4.282   4.689 -0.1315  0.0605  0.1094
 8279TIP3    H146252   1.282   4.369   4.672 -0.5277  0.0241 -0.9758
 8279TIP3    H246253   1.157   4.285   4.654 -0.0179 -0.8981 -0.3069
 8280TIP3   OH246254   4.072   1.996   3.778 -0.0279  0.8834 -0.1754
 8280TIP3    H146255   4.135   1.957   3.838  1.0254 -0.6258 -2.2099
 8280TIP3    H246256   3.987   1.983   3.820  0.8352  1.4046  1.7730
 8281TIP3   OH246257   5.698   3.908  16.226 -0.2645 -0.5506 -0.1994
 8281TIP3    H146258   5.739   3.993  16.208  1.9228 -1.6430 -0.6031
 8281TIP3    H246259   5.657   3.919  16.311  1.0446  0.5680  0.3184
 8282TIP3   OH246260   4.746   1.308  12.861 -0.1579  0.0460  0.2758
 8282TIP3    H146261   4.671   1.368  12.862  0.9150  1.4047  0.1340
 8282TIP3    H246262   4.732   1.255  12.782 -0.4580  0.9635 -0.3049
 8283TIP3   OH246263   4.756   3.534  11.705  0.4564  0.2692 -0.0634
 8283TIP3    H146264   4.817   3.474  11.662 -0.3630 -0.3758 -0.3369
 8283TIP3    H246265   4.687   3.549  11.641 -1.2899 -1.4743  1.3338
 8284TIP3   OH246266   1.289   3.613  12.594 -0.0354 -0.5816 -0.5667
 8284TIP3    H146267   1.357   3.593  12.530 -1.0278 -0.6057 -1.6329
 8284TIP3    H246268   1.247   3.529  12.611 -1.5452 -0.1394 -1.9597
 8285TIP3   OH246269   4.885   3.481  12.185  0.1978  0.0990  0.6260
 8285TIP3    H146270   4.821   3.412  12.166  0.4951 -0.2478  0.8506
 8285TIP3    H246271   4.969   3.439  12.169  0.3165  1.7340 -3.5036
 8286TIP3   OH246272   4.910   3.755  12.019  0.2357 -0.3657 -0.0017
 8286TIP3    H146273   4.872   3.795  11.941 -0.6260 -0.3211  0.4380
 8286TIP3    H246274   4.835   3.718  12.067  0.5801  0.8740  1.5336
 8287TIP3   OH246275   2.830   4.588   2.547  0.0487 -0.4531 -0.5830
 8287TIP3    H146276   2.921   4.578   2.520  0.3500  1.8340 -0.5265
 8287TIP3    H246277   2.831   4.573   2.642  0.2486 -1.0955 -0.6867
 8288TIP3   OH246278   1.826   5.626  15.724  0.1663 -0.0361 -0.1617
 8288TIP3    H146279   1.743   5.637  15.677  1.2925  0.1216 -2.1728
 8288TIP3    H246280   1.857   5.715  15.740 -1.4716 -0.0067  3.2829
 8289TIP3   OH246281   5.204   0.136   4.664  0.0249  0.3483  0.2894
 8289TIP3    H146282   5.138   0.150   4.732 -1.6207  0.5999 -1.3072
 8289TIP3    H246283   5.253   0.059   4.693 -2.2055 -0.9932  0.6108
 8290TIP3   OH246284   1.053   4.727  13.789 -0.3073 -0.4872 -0.8193
 8290TIP3    H146285   1.097   4.803  13.826 -2.4372  1.1696 -1.5850
 8290TIP3    H246286   1.046   4.665  13.861  0.6977  0.3894  0.0399
 8291TIP3   OH246287   1.954   4.286   0.639  0.2522  0.3585  0.3045
 8291TIP3    H146288   1.865   4.301   0.671 -0.7504  0.5397 -2.4758
 8291TIP3    H246289   2.006   4.355   0.680 -0.9655  0.6012  1.4926
 8292TIP3   OH246290   1.124   4.204   6.774  0.1945 -0.2793  0.3948
 8292TIP3    H146291   1.156   4.230   6.687  1.2951  3.4943  1.8300
 8292TIP3    H246292   1.029   4.216   6.769  0.3184  0.5312 -0.0923
 8293TIP3   OH246293   4.709   0.179  16.248 -0.6371  0.0108 -0.3000
 8293TIP3    H146294   4.638   0.144  16.194  0.4633 -1.8074 -0.6070
 8293TIP3    H246295   4.684   0.157  16.337 -0.0834 -1.3830 -0.4722
 8294TIP3   OH246296   4.154   3.070   3.973 -0.2454 -0.4640  0.0726
 8294TIP3    H146297   4.169   3.042   3.883 -1.2442 -1.8647  0.3159
 8294TIP3    H246298   4.171   2.991   4.025 -0.5292  0.0979  1.0279
 8295TIP3   OH246299   5.383   0.826  10.738  0.4416  0.5277  1.0453
 8295TIP3    H146300   5.466   0.792  10.705 -0.2083  1.2851 -1.4640
 8295TIP3    H246301   5.318   0.801  10.672 -1.2806  0.2303  2.8058
 8296TIP3   OH246302   0.259   1.338  11.562  0.3943 -0.1567 -0.4152
 8296TIP3    H146303   0.200   1.403  11.598  0.9134  0.2348 -0.2713
 8296TIP3    H246304   0.346   1.362  11.596  0.3708 -1.7938  0.8880
 8297TIP3   OH246305   0.887   4.593   1.054 -0.1618 -0.5075 -0.0843
 8297TIP3    H146306   0.960   4.580   0.994  0.3746 -0.4211  0.5367
 8297TIP3    H246307   0.814   4.547   1.014  0.2024 -0.4859 -0.7772
 8298TIP3   OH246308   1.205   5.051   4.471  0.2421  0.0427  0.1497
 8298TIP3    H146309   1.237   4.964   4.450 -2.0292 -1.0813  1.1524
 8298TIP3    H246310   1.143   5.072   4.402  0.6222  0.7673  0.0265
 8299TIP3   OH246311   5.107   4.688   0.288 -0.8193  0.0043  0.1554
 8299TIP3    H146312   5.079   4.770   0.328 -0.5076  1.0598 -1.7223
 8299TIP3    H246313   5.075   4.620   0.347  0.7493  1.5254  2.8393
 8300TIP3   OH246314   1.182   2.919   3.994 -0.0501 -0.1454  0.1259
 8300TIP3    H146315   1.218   2.965   3.918  0.2443 -1.4382 -0.5245
 8300TIP3    H246316   1.093   2.896   3.967  0.3709 -1.4384 -0.2009
 8301TIP3   OH246317   6.486   3.180   1.171 -0.2058  0.3210 -0.0075
 8301TIP3    H146318   6.422   3.122   1.213  0.4650  0.5614  1.3824
 8301TIP3    H246319   6.490   3.257   1.227  2.4031 -0.3422  0.7740
 8302TIP3   OH246320   6.009   2.662  15.579 -0.2293  0.7651  0.1016
 8302TIP3    H146321   5.940   2.654  15.513  0.2103 -0.3136 -0.2381
 8302TIP3    H246322   5.975   2.727  15.641 -2.4290 -1.1222  0.9895
 8303TIP3   OH246323   5.332   3.173   3.043 -0.0063  0.2080  0.2192
 8303TIP3    H146324   5.337   3.145   3.135 -0.6952 -0.0825  0.1666
 8303TIP3    H246325   5.269   3.245   3.043 -1.6757 -1.2350 -0.3748
 8304TIP3   OH246326   4.636   2.774  14.102 -0.0852  0.0420  0.6146
 8304TIP3    H146327   4.587   2.710  14.153 -0.8683  0.8905  0.9318
 8304TIP3    H246328   4.575   2.847  14.089  0.1397 -0.1016 -1.4072
 8305TIP3   OH246329   5.062   2.676  15.888  0.0143 -0.4381 -0.1928
 8305TIP3    H146330   5.062   2.721  15.972  1.2431  0.8675 -0.8591
 8305TIP3    H246331   5.130   2.610  15.896  0.1351 -0.3097 -0.1505
 8306TIP3   OH246332   6.373   3.639   0.374  0.2436 -0.5250  0.3680
 8306TIP3    H146333   6.332   3.553   0.366  2.0977 -1.5721  1.7471
 8306TIP3    H246334   6.362   3.678   0.287 -0.7106 -2.0979 -0.2541
 8307TIP3   OH246335   2.526   2.920  16.264  0.4006 -0.0997  0.0212
 8307TIP3    H146336   2.458   2.890  16.324  1.3397  0.7298  1.5369
 8307TIP3    H246337   2.592   2.851  16.266  0.2966 -0.2109 -0.3048
 8308TIP3   OH246338   4.380   1.787  15.136 -0.3951 -0.2212  0.3984
 8308TIP3    H146339   4.297   1.746  15.157 -0.3874  0.6264  2.2818
 8308TIP3    H246340   4.392   1.774  15.042 -0.8605 -3.5839  0.7684
 8309TIP3   OH246341   6.319   0.003  11.465 -0.4312 -0.5019  0.5330
 8309TIP3    H146342   6.265   0.059  11.521  2.0739 -0.4650  3.0211
 8309TIP3    H246343   6.336  -0.074  11.517  1.2415 -0.8716 -0.5166
 8310TIP3   OH246344   2.365   2.163   4.937 -0.1686 -0.0256  0.5469
 8310TIP3    H146345   2.395   2.079   4.902 -0.1677 -0.3660  1.3527
 8310TIP3    H246346   2.433   2.226   4.911 -1.2423  0.1556 -1.9489
 8311TIP3   OH246347   1.301   4.557  15.313 -0.1773 -0.0256  0.0973
 8311TIP3    H146348   1.227   4.605  15.348 -1.3104 -0.4780 -1.5947
 8311TIP3    H246349   1.288   4.467  15.344 -0.5165 -0.1703 -0.4589
 8312TIP3   OH246350   2.029   3.227   4.985 -0.3467 -0.9246  0.0296
 8312TIP3    H146351   2.010   3.157   5.047 -0.9167 -1.2100 -0.4614
 8312TIP3    H246352   2.032   3.184   4.900 -1.1349 -0.2862 -0.3278
 8313TIP3   OH246353   5.088   0.478   0.510 -0.1691  0.6518  0.0160
 8313TIP3    H146354   5.176   0.453   0.540 -0.3627  0.5965  0.5309
 8313TIP3    H246355   5.047   0.519   0.586 -0.4985  0.9168 -0.3033
 8314TIP3   OH246356   2.953   0.619   2.713  0.4359  0.2064  0.2908
 8314TIP3    H146357   2.877   0.606   2.771  0.0759  1.1829  0.0448
 8314TIP3    H246358   2.916   0.658   2.634  1.0316 -0.4594 -0.3214
 8315TIP3   OH246359   2.069   5.883   4.714 -0.1090 -0.0186 -0.0562
 8315TIP3    H146360   2.066   5.837   4.629 -1.6825 -0.1434  0.0428
 8315TIP3    H246361   2.023   5.824   4.774 -2.2281  1.6709  0.0661
 8316TIP3   OH246362   5.496   0.809  14.113 -0.1333  0.2259 -0.4401
 8316TIP3    H146363   5.579   0.763  14.102 -0.8266 -1.4205  0.9492
 8316TIP3    H246364   5.511   0.896  14.076  1.6750 -0.6158 -1.7387
 8317TIP3   OH246365   6.732   6.550   4.443  0.0271 -0.9658  0.3648
 8317TIP3    H146366   6.668   6.572   4.511  0.8292  1.2751  0.4432
 8317TIP3    H246367   6.687   6.485   4.388 -1.8599 -0.3319  1.1084
 8318TIP3   OH246368   0.356   2.211  16.165 -0.0093  0.0802 -0.0523
 8318TIP3    H146369   0.293   2.142  16.187  0.3621 -0.3728 -0.4065
 8318TIP3    H246370   0.333   2.283  16.224 -0.4686 -0.3031  0.2469
 8319TIP3   OH246371   3.915   3.478   1.848  0.2331  0.0085  0.3492
 8319TIP3    H146372   3.877   3.404   1.801 -0.7585  1.9832 -2.0205
 8319TIP3    H246373   3.843   3.511   1.903 -0.0802  0.7179 -0.4679
 8320TIP3   OH246374   4.631   1.802   0.311  0.0442 -0.1114 -0.2014
 8320TIP3    H146375   4.614   1.760   0.395  0.3897  0.3436  0.0993
 8320TIP3    H246376   4.624   1.732   0.246  2.7078 -1.0495  0.4895
 8321TIP3   OH246377   4.259   3.264  13.537 -0.8522  0.2632  0.7992
 8321TIP3    H146378   4.349   3.245  13.510 -1.2636 -0.5415 -0.0611
 8321TIP3    H246379   4.218   3.178  13.544 -1.8433  0.6729  0.1375
 8322TIP3   OH246380   5.147   4.475  13.762 -0.2847 -0.4593 -0.7782
 8322TIP3    H146381   5.185   4.409  13.704 -1.2784 -1.0359 -0.7872
 8322TIP3    H246382   5.217   4.498  13.823 -0.3761 -2.6634  0.2026
 8323TIP3   OH246383   0.987   0.929   1.444  0.2982  0.0565 -0.2682
 8323TIP3    H146384   0.984   0.974   1.528 -1.7555 -2.6724  1.2044
 8323TIP3    H246385   0.919   0.972   1.391 -0.8086 -0.4673  0.6989
 8324TIP3   OH246386   1.310   2.227  16.614 -0.1128 -0.0731  0.2105
 8324TIP3    H146387   1.257   2.297  16.653 -0.2215 -0.5490  0.9247
 8324TIP3    H246388   1.287   2.229  16.521 -1.0089  0.0634  0.4234
 8325TIP3   OH246389   0.822   1.091  14.932 -0.7061 -0.4918  0.3192
 8325TIP3    H146390   0.872   1.065  14.854  0.2530 -0.9792  1.0813
 8325TIP3    H246391   0.767   1.163  14.902 -1.2963 -1.5158 -1.1258
 8326TIP3   OH246392   6.189   3.180  13.288 -0.3582  0.1736 -0.3072
 8326TIP3    H146393   6.140   3.127  13.351 -2.7630 -0.4757 -2.6413
 8326TIP3    H246394   6.180   3.270  13.319 -0.2496 -0.2742  1.0564
 8327TIP3   OH246395   4.700   3.951   0.151  0.1362 -0.6360  0.0434
 8327TIP3    H146396   4.748   3.891   0.093 -1.0167  0.1757 -1.8108
 8327TIP3    H246397   4.687   4.030   0.098 -0.9662  0.1364  1.4318
 8328TIP3   OH246398   0.793   5.359   5.090  0.5600 -0.2284  0.3649
 8328TIP3    H146399   0.794   5.439   5.038 -0.2213 -0.3605  0.1447
 8328TIP3    H246400   0.742   5.381   5.167 -0.3468 -0.7514 -0.0802
 8329TIP3   OH246401   3.001   5.376  13.028 -0.4645  0.1471  0.0283
 8329TIP3    H146402   3.035   5.439  12.964  1.0457 -0.9975 -0.3022
 8329TIP3    H246403   2.990   5.295  12.978 -2.5634  0.1519  0.4095
 8330TIP3   OH246404   0.925   3.553  12.392  0.0849 -0.0093 -0.1924
 8330TIP3    H146405   0.977   3.602  12.329 -0.8649 -0.9863 -1.7826
 8330TIP3    H246406   0.889   3.479  12.341  1.0896 -2.0792  1.9973
 8331TIP3   OH246407   2.346   2.217  15.444 -0.1665 -0.1035  0.1454
 8331TIP3    H146408   2.318   2.152  15.380 -1.9425 -0.1446  0.9315
 8331TIP3    H246409   2.406   2.170  15.502 -0.1086 -0.5794 -0.2986
 8332TIP3   OH246410   2.734   1.734  15.235  0.5694 -0.0629 -0.1251
 8332TIP3    H146411   2.725   1.698  15.147 -4.1593 -0.4533  0.3901
 8332TIP3    H246412   2.693   1.821  15.229 -0.3710 -0.3466  1.7904
 8333TIP3   OH246413   5.233   0.679   2.047 -0.6557 -0.3889 -0.0183
 8333TIP3    H146414   5.218   0.640   2.133  1.2666 -0.3253  0.3537
 8333TIP3    H246415   5.201   0.768   2.056  0.1064 -0.1891  0.8387
 8334TIP3   OH246416   1.489   1.281   4.647 -0.0331  0.5177  0.0425
 8334TIP3    H146417   1.542   1.339   4.593  0.9186 -0.9791 -0.6410
 8334TIP3    H246418   1.500   1.194   4.608  0.0712 -0.4638  2.1754
 8335TIP3   OH246419   4.955   1.440  10.511  0.5914  0.2022 -0.5971
 8335TIP3    H146420   4.864   1.468  10.513  0.4169 -0.3353 -0.8980
 8335TIP3    H246421   4.963   1.390  10.430  0.6746 -1.3625  0.3585
 8336TIP3   OH246422   6.313   1.991  16.397  0.1795 -0.6667 -0.3241
 8336TIP3    H146423   6.296   2.079  16.362  0.5025 -0.6444 -0.4265
 8336TIP3    H246424   6.253   1.983  16.471  1.4474  0.3455  0.8215
 8337TIP3   OH246425   0.923   2.483  16.693 -0.7767  0.1646 -0.4512
 8337TIP3    H146426   0.970   2.543  16.635  1.5083 -1.0924  0.0658
 8337TIP3    H246427   0.925   2.399  16.648  0.6005 -0.7165  1.1718
 8338TIP3   OH246428   0.684   1.120  11.342 -0.1644 -0.3662  0.4365
 8338TIP3    H146429   0.753   1.160  11.291 -0.3043  0.7576  1.1071
 8338TIP3    H246430   0.614   1.185  11.344 -0.1838 -0.4036  1.9929
 8339TIP3   OH246431   5.244   3.729   3.369 -0.2146 -0.1428  0.0635
 8339TIP3    H146432   5.285   3.799   3.420  1.0291 -0.5184 -0.4029
 8339TIP3    H246433   5.310   3.660   3.365 -0.4524 -0.2997 -1.6726
 8340TIP3   OH246434   0.454   4.370  16.246 -0.1284 -0.1153 -0.2064
 8340TIP3    H146435   0.487   4.292  16.291 -0.4460 -0.5684 -0.7602
 8340TIP3    H246436   0.363   4.376  16.273  0.1946  0.7249  0.7477
 8341TIP3   OH246437   2.394   3.382   4.911  0.1208  0.2293  0.0153
 8341TIP3    H146438   2.368   3.371   5.003 -0.9132 -1.8536 -0.4896
 8341TIP3    H246439   2.348   3.460   4.881 -2.2641 -1.0306  0.3222
 8342TIP3   OH246440   3.543   0.619  11.815  1.0161 -0.2722 -0.4914
 8342TIP3    H146441   3.480   0.549  11.833  0.1959  0.6083  0.1234
 8342TIP3    H246442   3.522   0.648  11.726 -0.5171  1.0703  0.2634
 8343TIP3   OH246443   6.636   6.776  15.837  0.1076 -0.2443  0.5342
 8343TIP3    H146444   6.549   6.811  15.853  0.2001 -1.7706  5.1727
 8343TIP3    H246445   6.684   6.792  15.919  2.8107 -3.2284 -0.3368
 8344TIP3   OH246446   0.706   3.174   5.225 -0.5890  0.0215 -0.5576
 8344TIP3    H146447   0.777   3.235   5.247  0.0963 -0.3460 -1.6677
 8344TIP3    H246448   0.667   3.211   5.146 -2.3457  0.7894  0.6544
 8345TIP3   OH246449   4.705   5.109   4.124 -0.0685 -0.4239  0.4787
 8345TIP3    H146450   4.751   5.182   4.167 -0.2049  0.5944 -1.0793
 8345TIP3    H246451   4.771   5.041   4.116  0.6669  0.3316  0.0011
 8346TIP3   OH246452   4.763   1.963   6.443 -0.7660  0.0825 -0.0574
 8346TIP3    H146453   4.677   1.937   6.476 -0.7379  0.5458  0.3907
 8346TIP3    H246454   4.749   2.050   6.406 -0.7048 -0.2635 -0.8953
 8347TIP3   OH246455   4.118   6.412  16.996  0.3902 -0.3183 -0.0888
 8347TIP3    H146456   4.102   6.432  17.088  0.9388 -2.9570  0.6185
 8347TIP3    H246457   4.194   6.466  16.973 -0.8271  1.6989  0.4565
 8348TIP3   OH246458   4.543   1.197  11.194  0.4195  0.0846  0.5734
 8348TIP3    H146459   4.605   1.270  11.194  2.6309 -1.7219  1.9656
 8348TIP3    H246460   4.514   1.190  11.285  0.6496 -1.0907  0.5627
 8349TIP3   OH246461   4.931   5.809  13.339  0.5548 -0.2206  0.2423
 8349TIP3    H146462   4.996   5.740  13.326  0.2282 -0.8537  1.8278
 8349TIP3    H246463   4.954   5.876  13.274  1.8638 -1.0906 -0.2223
 8350TIP3   OH246464   4.316   5.263  16.142 -0.0684  0.2941 -0.2210
 8350TIP3    H146465   4.231   5.301  16.122 -0.5529 -0.6940 -0.0480
 8350TIP3    H246466   4.379   5.319  16.095 -0.8466  0.6708 -0.8249
 8351TIP3   OH246467   3.315   0.087   2.344 -1.0473 -0.0087 -0.0863
 8351TIP3    H146468   3.394   0.132   2.374 -1.0794  0.2562 -0.3951
 8351TIP3    H246469   3.245   0.151   2.359 -0.6896  1.1969 -3.3101
 8352TIP3   OH246470   3.596   2.566   0.707 -0.2052  0.7167 -0.0146
 8352TIP3    H146471   3.642   2.614   0.776  2.6612  0.0209 -1.3304
 8352TIP3    H246472   3.621   2.475   0.720 -1.0793  0.3394 -0.8930
 8353TIP3   OH246473   4.989   5.770  15.989 -0.3730  0.0504  0.4159
 8353TIP3    H146474   4.997   5.703  16.056  2.3025 -2.4874 -2.2868
 8353TIP3    H246475   5.073   5.817  15.991  0.0487 -0.5707 -1.6183
 8354TIP3   OH246476   1.203   6.385   2.054 -0.3860  0.6300 -0.5236
 8354TIP3    H146477   1.112   6.412   2.066 -0.2401  0.3146  1.3329
 8354TIP3    H246478   1.206   6.295   2.085  0.6759  0.8006 -0.1075
 8355TIP3   OH246479   2.399   5.940   1.722 -0.4745 -0.1712  0.0332
 8355TIP3    H146480   2.353   6.023   1.732  0.1693  0.1768  0.1840
 8355TIP3    H246481   2.429   5.939   1.631  0.1411  0.0992  0.2275
 8356TIP3   OH246482   4.755   1.905  13.004 -0.1006  0.2758 -0.0789
 8356TIP3    H146483   4.826   1.874  12.947  1.4578  1.3454  1.2231
 8356TIP3    H246484   4.677   1.862  12.971  1.3084 -1.6499 -1.0168
 8357TIP3   OH246485   2.887   2.755  14.966  0.3633 -0.7733 -0.0933
 8357TIP3    H146486   2.945   2.680  14.953  0.5459 -0.2502 -2.5732
 8357TIP3    H246487   2.846   2.769  14.880 -1.1309  0.7456  0.8411
 8358TIP3   OH246488   5.878   0.951   0.792 -0.2284  0.7877  0.0109
 8358TIP3    H146489   5.913   0.907   0.714 -0.6627  0.6815 -0.1239
 8358TIP3    H246490   5.929   1.031   0.799 -0.8574  1.2716 -0.9540
 8359TIP3   OH246491   3.440   4.382  10.780 -0.6484 -0.0253 -0.1079
 8359TIP3    H146492   3.472   4.442  10.848  1.6170 -0.3182 -0.8759
 8359TIP3    H246493   3.368   4.336  10.822 -1.0276  1.6907  1.2159
 8360TIP3   OH246494   3.025   4.527   1.051  0.1743 -0.7161  0.1298
 8360TIP3    H146495   2.932   4.549   1.057 -0.0345 -1.7196  0.6058
 8360TIP3    H246496   3.027   4.447   0.997  0.6059 -1.7427  1.6571
 8361TIP3   OH246497   6.698   2.977   1.149 -0.4772  0.7240  0.0240
 8361TIP3    H146498   6.637   3.049   1.164  0.3861  1.5432 -0.3303
 8361TIP3    H246499   6.783   3.012   1.176  0.1970  0.3586 -1.5253
 8362TIP3   OH246500   4.777   4.142   0.555  0.0767 -0.1975 -0.2601
 8362TIP3    H146501   4.849   4.122   0.495 -0.2979 -1.8110 -0.1958
 8362TIP3    H246502   4.718   4.198   0.504  0.5969 -0.1641 -0.8350
 8363TIP3   OH246503   0.501   1.202   1.030  0.1370  0.0465 -0.6825
 8363TIP3    H146504   0.518   1.170   1.119  0.2533  2.3443  0.1407
 8363TIP3    H246505   0.583   1.186   0.983  0.1385 -1.0080 -0.3395
 8364TIP3   OH246506   2.106   6.229   3.291 -0.2715 -0.1715  0.3311
 8364TIP3    H146507   2.166   6.156   3.306 -0.2719 -0.0256  1.0775
 8364TIP3    H246508   2.122   6.256   3.201  1.7019  0.6914  0.9265
 8365TIP3   OH246509   6.089   2.917   4.284  0.1506 -0.0751 -0.2993
 8365TIP3    H146510   6.178   2.883   4.277 -0.3878 -1.5563 -0.2477
 8365TIP3    H246511   6.042   2.877   4.211 -0.4172  0.8817 -0.4650
 8366TIP3   OH246512   6.097   4.672  13.292 -0.7423 -0.0174 -0.0021
 8366TIP3    H146513   6.095   4.729  13.215  0.5422 -0.7237 -0.5667
 8366TIP3    H246514   6.149   4.720  13.356 -1.1836  0.2366  0.1716
 8367TIP3   OH246515   0.591   4.387  13.625 -0.1495  0.2348 -0.6037
 8367TIP3    H146516   0.643   4.404  13.546 -0.7795 -0.8047 -1.2604
 8367TIP3    H246517   0.650   4.407  13.697  1.1156 -0.7811 -1.3305
 8368TIP3   OH246518   4.862   0.540   4.579  0.6949  0.3234 -0.3704
 8368TIP3    H146519   4.883   0.448   4.594  1.8677  0.5212 -0.7100
 8368TIP3    H246520   4.777   0.538   4.535  0.6944 -0.6019 -0.3438
 8369TIP3   OH246521   4.724   0.503  13.153 -0.0747 -0.5780 -0.2098
 8369TIP3    H146522   4.630   0.490  13.163  0.0641  0.2614  2.8092
 8369TIP3    H246523   4.735   0.599  13.152  0.8329 -0.6537  0.7998
 8370TIP3   OH246524   2.406   0.631   4.782 -0.3800 -0.2223 -0.6276
 8370TIP3    H146525   2.390   0.554   4.837 -0.6295  1.0418  1.1177
 8370TIP3    H246526   2.322   0.677   4.781  0.6829  1.8448  1.2650
 8371TIP3   OH246527   5.308   3.387   0.495 -0.3792 -0.3074  0.5091
 8371TIP3    H146528   5.374   3.453   0.472 -1.8328  1.1982  0.6265
 8371TIP3    H246529   5.260   3.372   0.414 -1.5802  0.5505  1.0376
 8372TIP3   OH246530   2.213   0.841   4.751  0.5424 -0.0151  1.0300
 8372TIP3    H146531   2.141   0.778   4.746 -1.0061  1.6557  1.6064
 8372TIP3    H246532   2.234   0.860   4.659 -1.9857  1.9338  0.8077
 8373TIP3   OH246533   2.335   6.476   1.148 -0.1069  0.0121  1.1801
 8373TIP3    H146534   2.289   6.530   1.084  0.0323  0.4757  1.4700
 8373TIP3    H246535   2.408   6.530   1.178  0.5926 -0.6884  0.7830
 8374TIP3   OH246536   0.321   2.830   4.324  0.2887 -0.0996  0.0853
 8374TIP3    H146537   0.366   2.904   4.283 -1.0043  1.3425  1.1691
 8374TIP3    H246538   0.334   2.843   4.418  0.4857 -1.5618  0.2778
 8375TIP3   OH246539   5.997   4.372   2.089  0.0236  0.4631 -0.2421
 8375TIP3    H146540   6.091   4.380   2.072 -0.0817 -0.7096 -1.4559
 8375TIP3    H246541   5.977   4.280   2.069 -0.6655 -0.3232  3.5111
 8376TIP3   OH246542   0.667   5.446  15.735 -0.3318 -0.9870  0.2773
 8376TIP3    H146543   0.629   5.531  15.756 -0.1875 -0.7074 -0.5837
 8376TIP3    H246544   0.621   5.418  15.656  2.1632 -0.0251 -1.5706
 8377TIP3   OH246545   5.168   2.356   2.596 -0.0342 -0.3296 -0.0003
 8377TIP3    H146546   5.141   2.406   2.673 -1.5612 -0.9626 -0.1063
 8377TIP3    H246547   5.144   2.411   2.522  0.9996  0.0659 -0.0602
 8378TIP3   OH246548   2.882   4.189   2.028  0.1236 -0.1442  0.5246
 8378TIP3    H146549   2.973   4.172   2.002 -0.1416  0.2082 -0.6824
 8378TIP3    H246550   2.861   4.273   1.987 -0.4315  0.2579  1.6214
 8379TIP3   OH246551   5.964   1.537  13.720 -0.8413 -0.1630 -0.0995
 8379TIP3    H146552   6.031   1.470  13.708 -0.3284  0.4473 -0.6465
 8379TIP3    H246553   5.905   1.500  13.786  1.1584  0.1784  1.9052
 8380TIP3   OH246554   2.672   3.455  16.153 -0.2082 -0.0133  0.1849
 8380TIP3    H146555   2.619   3.386  16.192  0.2344 -0.4148  0.0814
 8380TIP3    H246556   2.685   3.426  16.063  1.2253 -0.5376  0.5484
 8381TIP3   OH246557   3.587   5.348  12.976  0.5064 -0.1327  0.4342
 8381TIP3    H146558   3.651   5.419  12.970  2.0583 -1.5472 -0.1532
 8381TIP3    H246559   3.640   5.268  12.975 -1.1119 -1.2753  2.6331
 8382TIP3   OH246560   6.208   0.500   4.598 -0.1918  0.1236  0.2924
 8382TIP3    H146561   6.285   0.452   4.568  0.5706  0.9509  0.8882
 8382TIP3    H246562   6.244   0.577   4.642 -1.3209 -0.0790  1.6017
 8383TIP3   OH246563   2.658   1.086   3.162  0.0508 -0.1079 -0.0612
 8383TIP3    H146564   2.580   1.032   3.164 -0.6176  0.8846  1.2755
 8383TIP3    H246565   2.658   1.126   3.074 -0.3632 -0.9223 -0.4315
 8384TIP3   OH246566   2.719   4.021   4.557  0.1180 -0.4646 -0.0149
 8384TIP3    H146567   2.685   4.043   4.644  0.3900  0.3786 -0.1170
 8384TIP3    H246568   2.733   4.106   4.514  1.3723 -0.8314 -0.3492
 8385TIP3   OH246569   6.478   4.981   2.480  0.2625 -0.0513 -0.1960
 8385TIP3    H146570   6.446   4.892   2.469 -1.1217  0.6299 -1.8757
 8385TIP3    H246571   6.401   5.036   2.468  1.2575  1.4218  0.0458
 8386TIP3   OH246572   3.550   1.543  11.210  0.0989 -0.0455  0.8268
 8386TIP3    H146573   3.617   1.475  11.207 -0.6721 -0.8070  0.5771
 8386TIP3    H246574   3.474   1.504  11.167  0.9883  2.5451 -3.3074
 8387TIP3   OH246575   4.330   6.522   3.658  0.2707 -0.8285 -0.4450
 8387TIP3    H146576   4.261   6.516   3.593  0.5498 -1.0542 -0.7212
 8387TIP3    H246577   4.311   6.452   3.721  1.3488 -2.1937 -1.5832
 8388TIP3   OH246578   2.179   4.902   3.343  0.1920 -0.2644 -0.2352
 8388TIP3    H146579   2.090   4.907   3.307 -0.7579  0.2296  2.0301
 8388TIP3    H246580   2.190   4.810   3.368  0.1625 -0.2560 -0.1895
 8389TIP3   OH246581   3.281   0.976   6.045 -0.0157  0.3491 -0.0165
 8389TIP3    H146582   3.225   1.033   5.991  1.8993  1.2566 -1.0763
 8389TIP3    H246583   3.265   1.006   6.134 -0.2198  1.5128 -0.4268
 8390TIP3   OH246584   4.313   1.071   6.527 -0.3785  0.0390  0.6783
 8390TIP3    H146585   4.269   1.064   6.612 -0.6511  0.2392  0.5549
 8390TIP3    H246586   4.371   1.147   6.537 -0.2245 -0.0896  0.7676
 8391TIP3   OH246587   2.358   5.305  12.202 -0.2764  0.4629 -0.2220
 8391TIP3    H146588   2.381   5.235  12.140 -1.3291  0.2339 -0.3612
 8391TIP3    H246589   2.431   5.366  12.197  1.3319 -1.2896  0.8933
 8392TIP3   OH246590   4.078   1.061   5.095  0.0494  0.4858  0.4038
 8392TIP3    H146591   4.148   1.048   5.031 -0.7474 -1.1180 -0.1669
 8392TIP3    H246592   4.038   0.975   5.105 -0.4175  0.9026  2.4102
 8393TIP3   OH246593   1.254   3.653  15.768  0.0836  0.2934  0.3852
 8393TIP3    H146594   1.342   3.622  15.790  0.4571  1.0369 -0.0270
 8393TIP3    H246595   1.210   3.577  15.730  0.6109 -0.0306  0.4223
 8394TIP3   OH246596   0.151   6.727   0.588 -0.1883 -0.2949 -0.3760
 8394TIP3    H146597   0.149   6.706   0.681 -2.6876  0.4821 -0.2388
 8394TIP3    H246598   0.154   6.641   0.544  0.2705 -0.6723  0.3827
 8395TIP3   OH246599   3.623   3.763   2.640 -0.0332 -0.1783 -0.5319
 8395TIP3    H146600   3.696   3.807   2.683 -1.2583  0.8414  0.5521
 8395TIP3    H246601   3.554   3.760   2.707 -1.1383 -0.7201 -1.6792
 8396TIP3   OH246602   1.774   0.732   5.400 -0.4167 -0.1842 -0.3373
 8396TIP3    H146603   1.760   0.750   5.307 -3.0841  0.3413  0.1260
 8396TIP3    H246604   1.751   0.640   5.411 -2.4790  0.3873  0.2315
 8397TIP3   OH246605   5.171   3.414   3.014  0.4301  0.1328  0.1614
 8397TIP3    H146606   5.157   3.432   3.107  1.1083 -1.1370  0.5126
 8397TIP3    H246607   5.085   3.425   2.974  0.4232  2.2031  0.6727
 8398TIP3   OH246608   6.761   4.204   2.843 -0.1319  0.4361 -0.5745
 8398TIP3    H146609   6.695   4.157   2.893  0.3590  1.8963  1.4948
 8398TIP3    H246610   6.784   4.279   2.897  2.3707  0.6033 -1.7735
 8399TIP3   OH246611   0.546   3.588  12.934  0.1263  0.3187 -0.2774
 8399TIP3    H146612   0.621   3.605  12.877  1.0982 -0.5980  0.7147
 8399TIP3    H246613   0.470   3.594  12.876  0.9772  1.1217 -1.3185
 8400TIP3   OH246614   6.279   5.715   6.064 -0.0565  0.4542 -0.2908
 8400TIP3    H146615   6.328   5.707   5.982  3.9252  0.0105  2.0021
 8400TIP3    H246616   6.265   5.624   6.092 -1.6206  0.6003 -0.5172
 8401TIP3   OH246617   3.554   0.280   1.683  0.5133 -0.1345  0.2986
 8401TIP3    H146618   3.505   0.345   1.633 -0.7272 -0.4059  1.1142
 8401TIP3    H246619   3.504   0.271   1.764 -0.4579 -3.4853 -0.5781
 8402TIP3   OH246620   0.618   0.283  15.907 -0.2198  0.3420 -0.4032
 8402TIP3    H146621   0.605   0.212  15.844 -0.4831  1.0008 -1.1014
 8402TIP3    H246622   0.565   0.355  15.873  1.1500  1.3451 -0.4849
 8403TIP3   OH246623   4.646   4.629   4.926 -0.0750 -0.0562  0.5496
 8403TIP3    H146624   4.720   4.641   4.985  0.4636  1.0764 -0.3303
 8403TIP3    H246625   4.592   4.561   4.968  1.2276 -0.5801  1.4123
 8404TIP3   OH246626   2.451   3.269  16.169 -0.7192 -0.4450  0.2097
 8404TIP3    H146627   2.521   3.208  16.146 -1.0525 -0.1566 -1.6126
 8404TIP3    H246628   2.422   3.240  16.256 -0.2377 -2.2982 -0.2291
 8405TIP3   OH246629   3.779   0.413   4.543  0.4778 -0.0703 -0.0589
 8405TIP3    H146630   3.696   0.443   4.580  0.4355 -0.0244 -0.1891
 8405TIP3    H246631   3.815   0.353   4.609  0.4063  0.0145  0.0578
 8406TIP3   OH246632   5.005   1.966   5.276  0.0743  0.1251 -0.3135
 8406TIP3    H146633   4.975   2.035   5.216 -1.2553 -0.3513 -0.2155
 8406TIP3    H246634   4.933   1.904   5.279  0.8911 -0.8055  0.3364
 8407TIP3   OH246635   1.788   4.446  16.287  0.4560 -0.1054 -0.4170
 8407TIP3    H146636   1.831   4.519  16.332  1.2258 -0.8760  0.1215
 8407TIP3    H246637   1.860   4.386  16.266 -0.1904 -0.7877 -0.6922
 8408TIP3   OH246638   0.739   3.204  17.058  0.1268 -0.4048  0.6064
 8408TIP3    H146639   0.774   3.156  17.133  1.8660  0.1273  0.1550
 8408TIP3    H246640   0.731   3.137  16.989  1.0958 -0.3613  0.4486
 8409TIP3   OH246641   3.611   5.209  11.742  0.3237  0.6177 -0.4521
 8409TIP3    H146642   3.643   5.266  11.812  1.2044  1.8490 -1.8252
 8409TIP3    H246643   3.686   5.152  11.723 -1.0858 -2.1842  2.0544
 8410TIP3   OH246644   5.420   0.341   3.803  0.0690  0.1273  0.1358
 8410TIP3    H146645   5.444   0.372   3.716  3.6345 -1.4028  0.4749
 8410TIP3    H246646   5.414   0.421   3.856 -0.5922  0.9467 -1.1478
 8411TIP3   OH246647   4.001   1.132  15.815 -0.6927 -0.0590 -0.3915
 8411TIP3    H146648   3.979   1.082  15.894 -0.8654 -0.7543 -0.8755
 8411TIP3    H246649   3.930   1.114  15.754 -0.6503  0.6198 -0.6482
 8412TIP3   OH246650   0.114   0.589  16.805 -0.5639 -0.6509 -0.2399
 8412TIP3    H146651   0.087   0.522  16.743 -2.8010  3.2279 -3.6980
 8412TIP3    H246652   0.049   0.584  16.875 -0.6481 -2.0825 -0.3975
 8413TIP3   OH246653   5.059   5.469   4.364  0.3712 -0.4832 -0.0588
 8413TIP3    H146654   5.138   5.436   4.323  0.6515 -0.9835  0.8595
 8413TIP3    H246655   5.049   5.416   4.444  0.5836  1.3341  1.2111
 8414TIP3   OH246656   5.721   2.813  14.304 -0.4416  0.1398  0.0665
 8414TIP3    H146657   5.644   2.783  14.255 -1.6111  1.4178  1.0499
 8414TIP3    H246658   5.686   2.833  14.392  1.3457 -0.8860  1.0251
 8415TIP3   OH246659   0.781   5.635   5.547  0.2402 -0.6464  0.4899
 8415TIP3    H146660   0.795   5.584   5.627 -0.0256  1.7276  2.0839
 8415TIP3    H246661   0.868   5.665   5.522  0.1123  0.0398  0.8620
 8416TIP3   OH246662   1.358   4.673  17.168 -0.2181  0.8345  0.3251
 8416TIP3    H146663   1.417   4.727  17.220  0.7727  1.0894 -1.0555
 8416TIP3    H246664   1.410   4.645  17.093 -1.9193  1.2332 -1.0294
 8417TIP3   OH246665   1.894   5.338  11.572 -0.0326 -0.1172  0.1685
 8417TIP3    H146666   1.946   5.278  11.519 -0.4129 -2.4332  2.3203
 8417TIP3    H246667   1.958   5.389  11.621  0.2828  1.0438 -1.4042
 8418TIP3   OH246668   5.037   3.400   3.265  0.0515  0.4386 -0.1160
 8418TIP3    H146669   5.008   3.442   3.346  0.0670  1.7112 -0.7517
 8418TIP3    H246670   5.020   3.307   3.279 -0.6354  0.7247  1.0559
 8419TIP3   OH246671   5.952   1.452   3.664  0.3893 -0.3388 -0.1199
 8419TIP3    H146672   5.984   1.480   3.750  0.4570 -0.8136  0.0106
 8419TIP3    H246673   5.942   1.357   3.672 -2.1878 -0.0728  0.2255
 8420TIP3   OH246674   2.450   2.447  15.596  0.8593 -0.1038 -0.1006
 8420TIP3    H146675   2.484   2.372  15.548 -2.2817 -1.7142  0.0566
 8420TIP3    H246676   2.403   2.498  15.530 -2.8718 -1.9536  1.0174
 8421TIP3   OH246677   3.225   1.478   3.291  0.6371  0.9439 -0.7856
 8421TIP3    H146678   3.313   1.506   3.319  0.2737  2.1403 -0.7892
 8421TIP3    H246679   3.179   1.459   3.373  1.0868 -0.2969 -0.8111
 8422TIP3   OH246680   1.926   4.130   0.042 -0.2520 -0.2507  0.0443
 8422TIP3    H146681   1.988   4.189   0.085 -0.6867 -0.0182  0.3575
 8422TIP3    H246682   1.850   4.186   0.022  0.4703 -0.0331 -2.2225
 8423TIP3   OH246683   4.496   4.822  16.701 -0.1806  0.4286 -0.0518
 8423TIP3    H146684   4.469   4.862  16.618 -1.0144  0.8439  0.4111
 8423TIP3    H246685   4.567   4.878  16.733  3.1090 -2.1246 -2.5429
 8424TIP3   OH246686   1.027   0.549  11.939  0.1247 -0.0891 -0.2277
 8424TIP3    H146687   1.121   0.537  11.952  0.4524  1.2054 -1.2400
 8424TIP3    H246688   1.020   0.632  11.892 -1.6077  0.5042  1.0332
 8425TIP3   OH246689   3.190   0.567  13.144 -0.0899  0.1650  0.5177
 8425TIP3    H146690   3.269   0.515  13.131 -1.1875 -1.4139  0.1049
 8425TIP3    H246691   3.201   0.642  13.085  1.3938  0.3315  0.9683
 8426TIP3   OH246692   3.485   4.163  13.646 -0.2016  0.7180 -0.6487
 8426TIP3    H146693   3.580   4.171  13.642 -0.1566 -0.4187 -2.3826
 8426TIP3    H246694   3.458   4.228  13.711  1.6636  1.7528 -0.8830
 8427TIP3   OH246695   3.838   3.829  11.550 -0.1671  0.1373 -0.3446
 8427TIP3    H146696   3.914   3.784  11.588  0.6690  0.5616 -1.4989
 8427TIP3    H246697   3.811   3.891  11.618 -0.7402 -1.3853  0.8788
 8428TIP3   OH246698   5.200   3.444   4.716 -0.1929 -0.0303  0.4287
 8428TIP3    H146699   5.156   3.368   4.677  0.5547  0.6023 -1.7458
 8428TIP3    H246700   5.150   3.520   4.684  2.3210  0.7026 -2.0254
 8429TIP3   OH246701   2.453   0.107   4.420  0.5998  0.0457 -0.7424
 8429TIP3    H146702   2.546   0.117   4.437  0.8249  0.7168 -2.3254
 8429TIP3    H246703   2.441   0.139   4.331 -0.7526 -2.2404 -1.4109
 8430TIP3   OH246704   3.327   2.628   3.329  0.0308  0.7069 -0.0171
 8430TIP3    H146705   3.292   2.543   3.303 -0.0645  0.3194  1.3062
 8430TIP3    H246706   3.264   2.661   3.393  1.0827  0.8659  0.9508
 8431TIP3   OH246707   0.449   2.214  14.588  0.6555 -0.1756 -0.1175
 8431TIP3    H146708   0.408   2.208  14.674  0.8682  0.7686  0.0501
 8431TIP3    H246709   0.378   2.193  14.527  0.6197 -1.3191  0.2937
 8432TIP3   OH246710   0.676   4.808  16.050 -0.4071 -0.0982  0.1910
 8432TIP3    H146711   0.637   4.858  15.978 -0.3474 -1.5350 -0.8389
 8432TIP3    H246712   0.736   4.747  16.008  0.1385 -0.4824  1.5119
 8433TIP3   OH246713   5.918   1.860  11.621  0.2202 -0.0492  0.1488
 8433TIP3    H146714   5.953   1.949  11.616 -0.8802  0.4769  1.5690
 8433TIP3    H246715   5.858   1.854  11.548  0.6336  0.2230 -0.2182
 8434TIP3   OH246716   2.314   3.611  13.962 -0.7164 -0.1370 -0.3605
 8434TIP3    H146717   2.329   3.560  14.041 -0.4273  0.5441  0.0367
 8434TIP3    H246718   2.301   3.701  13.994 -0.3184  0.1883 -1.1083
 8435TIP3   OH246719   2.767   4.354   4.892  0.9119  0.5053 -0.1519
 8435TIP3    H146720   2.801   4.290   4.954  0.6983  0.4159 -0.1281
 8435TIP3    H246721   2.774   4.312   4.807 -1.1554 -0.3560  0.0869
 8436TIP3   OH246722   0.059   3.056  16.272  0.6632  0.0791 -0.5162
 8436TIP3    H146723   0.036   3.138  16.315  0.8602  1.3277 -2.7061
 8436TIP3    H246724   0.110   3.008  16.338  1.3912  2.1277  0.4646
 8437TIP3   OH246725   5.673   3.078   4.741 -0.3373  0.3546 -0.1278
 8437TIP3    H146726   5.610   3.143   4.773  1.0076  1.0745  1.1643
 8437TIP3    H246727   5.739   3.073   4.811  0.4608 -1.1721 -0.9689
 8438TIP3   OH246728   5.316   2.146  16.936 -0.0551 -0.1210 -0.0067
 8438TIP3    H146729   5.338   2.200  16.861 -1.1282 -1.1039 -1.0629
 8438TIP3    H246730   5.293   2.208  17.005  0.1812  0.7865 -0.7437
 8439TIP3   OH246731   6.229   2.331  12.630 -0.3854 -0.1117  0.0716
 8439TIP3    H146732   6.155   2.272  12.647 -0.0373 -0.6495 -0.2815
 8439TIP3    H246733   6.198   2.417  12.659 -1.2680 -0.2771 -0.3642
 8440TIP3   OH246734   6.583   6.642   2.780  0.7760 -0.2365 -0.4052
 8440TIP3    H146735   6.667   6.614   2.814  0.0093 -1.3741  0.5638
 8440TIP3    H246736   6.567   6.585   2.705 -0.3629 -1.7976  1.0180
 8441TIP3   OH246737   3.414   2.466   2.829 -0.2990 -0.1225  0.3956
 8441TIP3    H146738   3.384   2.557   2.825 -1.2484 -0.3918  1.1584
 8441TIP3    H246739   3.358   2.425   2.895  0.2246 -1.2252  0.1719
 8442TIP3   OH246740   2.461   1.692  11.665  0.3513  0.7582  0.0131
 8442TIP3    H146741   2.531   1.725  11.723  0.2815  1.4201 -0.2800
 8442TIP3    H246742   2.505   1.678  11.581  0.4915 -0.3723  0.2654
 8443TIP3   OH246743   3.481   5.812  13.035 -0.2887  0.3796 -0.0287
 8443TIP3    H146744   3.477   5.819  13.131 -2.0310 -0.8227  0.0028
 8443TIP3    H246745   3.550   5.874  13.010  2.3403 -1.4593  2.2296
 8444TIP3   OH246746   3.400   2.088   2.879  0.0881  0.2346 -0.3530
 8444TIP3    H146747   3.312   2.106   2.847  0.1187 -0.6883 -0.9936
 8444TIP3    H246748   3.457   2.121   2.810  0.3168  2.4488  0.8606
 8445TIP3   OH246749   4.865   5.679   0.752  0.1626 -0.4019 -0.3381
 8445TIP3    H146750   4.825   5.748   0.698  0.2321  1.6026  2.0749
 8445TIP3    H246751   4.943   5.652   0.703 -0.2681  0.7173 -1.6745
 8446TIP3   OH246752   6.780   6.528  16.594 -0.1316  0.6865 -0.4973
 8446TIP3    H146753   6.776   6.496  16.684 -0.5506 -0.8856 -1.0635
 8446TIP3    H246754   6.856   6.586  16.593 -0.6372  1.4062  1.0762
 8447TIP3   OH246755   1.757   0.945   4.846 -0.5013 -0.2833  0.4569
 8447TIP3    H146756   1.752   0.851   4.828  0.7134 -0.7364  2.2873
 8447TIP3    H246757   1.849   0.967   4.832 -0.8029  0.6523 -0.0373
 8448TIP3   OH246758   3.039   1.853  15.197  0.3901  0.0644  0.1002
 8448TIP3    H146759   3.075   1.936  15.228  1.5878  0.0667 -1.2469
 8448TIP3    H246760   2.963   1.878  15.144  0.4162  0.2669  0.1590
 8449TIP3   OH246761   3.362   0.461   2.274 -0.2539  0.6958 -0.2853
 8449TIP3    H146762   3.296   0.397   2.300 -0.0688  0.7522  0.3185
 8449TIP3    H246763   3.446   0.421   2.295 -0.1689  1.5537  1.0591
 8450TIP3   OH246764   6.225   2.138   5.169  0.1162 -0.0887  0.0617
 8450TIP3    H146765   6.183   2.056   5.145 -0.1076  0.4641 -1.5379
 8450TIP3    H246766   6.319   2.120   5.167  0.1073 -0.0410 -1.3828
 8451TIP3   OH246767   4.295   0.853  14.050 -0.1670  0.6149 -0.2583
 8451TIP3    H146768   4.357   0.842  13.978  0.1476 -0.4246  0.1555
 8451TIP3    H246769   4.224   0.905  14.013  0.3424  0.7252 -1.1017
 8452TIP3   OH246770   3.529   3.700   4.778  0.7470 -0.0729 -0.3235
 8452TIP3    H146771   3.514   3.686   4.685  0.5619 -1.9768 -0.0366
 8452TIP3    H246772   3.456   3.656   4.821  0.0128  2.0652  0.6933
 8453TIP3   OH246773   4.987   0.635  14.979 -0.3001 -0.0581 -0.2125
 8453TIP3    H146774   4.930   0.712  14.989  0.2148  0.4311 -0.9719
 8453TIP3    H246775   5.028   0.647  14.893 -1.3258 -1.9195 -0.9889
 8454TIP3   OH246776   5.175   5.532  11.103 -0.2438 -0.3758  0.5054
 8454TIP3    H146777   5.268   5.542  11.125  0.0773  1.9608 -1.6092
 8454TIP3    H246778   5.176   5.481  11.022 -0.7189  0.5632 -0.1001
 8455TIP3   OH246779   5.550   4.515  16.841  0.4511  0.0468  0.0305
 8455TIP3    H146780   5.572   4.607  16.829 -0.9029  0.2055 -1.3843
 8455TIP3    H246781   5.521   4.486  16.755  1.3321 -1.8450  0.3372
 8456TIP3   OH246782   3.173   1.060   0.894 -0.0053 -0.6179  0.5539
 8456TIP3    H146783   3.172   1.023   0.983 -0.3127  0.6515  1.0921
 8456TIP3    H246784   3.085   1.044   0.860 -0.7745  1.3020  1.5227
 8457TIP3   OH246785   0.155   3.494   1.649  0.2602 -0.0139 -0.5858
 8457TIP3    H146786   0.185   3.552   1.579  0.9192 -2.0194 -2.0039
 8457TIP3    H246787   0.235   3.454   1.683 -0.2799 -0.8954 -0.3404
 8458TIP3   OH246788   3.147   0.562   2.533  0.2385 -0.1698 -0.0816
 8458TIP3    H146789   3.107   0.606   2.457  0.4286  0.0803 -0.0354
 8458TIP3    H246790   3.091   0.586   2.607 -1.1304 -2.0506 -0.4729
 8459TIP3   OH246791   5.125   5.355   0.095 -0.3269 -0.2210  0.1534
 8459TIP3    H146792   5.098   5.301   0.169  0.6919  1.0556  1.4943
 8459TIP3    H246793   5.220   5.364   0.106 -0.2719  0.5469 -0.9136
 8460TIP3   OH246794   3.415   2.891  16.304 -0.1680 -0.3098 -0.2545
 8460TIP3    H146795   3.492   2.840  16.281 -1.1842 -1.1694 -1.7892
 8460TIP3    H246796   3.448   2.959  16.364  1.8391 -0.3888 -1.2505
 8461TIP3   OH246797   5.289   6.546   1.351  0.2039  0.1614  0.1414
 8461TIP3    H146798   5.335   6.628   1.332 -0.7962  0.4677 -1.0650
 8461TIP3    H246799   5.299   6.533   1.445  0.7871  1.4172  0.2578
 8462TIP3   OH246800   5.686   2.530   2.851  0.4013 -0.0105  0.8753
 8462TIP3    H146801   5.724   2.568   2.931  0.0543 -0.7850  1.4165
 8462TIP3    H246802   5.689   2.436   2.866  1.6301 -0.2275 -0.6267
 8463TIP3   OH246803   2.624   5.764  16.205  0.0056  0.2513 -0.5996
 8463TIP3    H146804   2.687   5.777  16.134 -0.8428  1.4125 -1.1571
 8463TIP3    H246805   2.675   5.721  16.274  1.1947  0.4115 -1.3522
 8464TIP3   OH246806   3.444   6.684  10.619 -0.5951 -0.7538 -0.3116
 8464TIP3    H146807   3.441   6.610  10.680  1.5225 -1.0164 -0.4594
 8464TIP3    H246808   3.467   6.644  10.535 -1.4073 -0.1501 -0.8238
 8465TIP3   OH246809   2.771   2.500  16.770 -0.3934  0.0065  0.4260
 8465TIP3    H146810   2.708   2.436  16.803 -1.4943  0.4644 -0.7609
 8465TIP3    H246811   2.856   2.456  16.779 -0.9811 -1.0112  1.0860
 8466TIP3   OH246812   4.236   1.731  16.831  0.0572  0.0554 -0.9131
 8466TIP3    H146813   4.202   1.801  16.775 -1.3619 -1.4706 -1.9984
 8466TIP3    H246814   4.164   1.669  16.839  0.9953 -0.8522  0.7724
 8467TIP3   OH246815   0.104   0.415  12.187 -0.2671  0.8645  0.2913
 8467TIP3    H146816   0.040   0.449  12.249  0.1916  0.6489  0.8897
 8467TIP3    H246817   0.112   0.322  12.208  0.3761  0.9269  0.3458
 8468TIP3   OH246818   6.226   3.265  16.869 -0.2833 -0.2020 -0.0916
 8468TIP3    H146819   6.161   3.314  16.819  0.1946  0.2387 -0.2740
 8468TIP3    H246820   6.200   3.277  16.960  0.5190  1.3566 -0.0673
 8469TIP3   OH246821   2.023   0.990   1.157 -0.6699  0.5489 -0.3908
 8469TIP3    H146822   2.068   1.070   1.185 -0.6939 -0.1446  1.6597
 8469TIP3    H246823   1.961   1.021   1.091  0.3634  2.0123 -0.7070
 8470TIP3   OH246824   5.708   1.263   0.683 -0.2898 -0.1046  0.2835
 8470TIP3    H146825   5.687   1.349   0.647 -1.0601 -0.8210 -1.0219
 8470TIP3    H246826   5.790   1.276   0.730 -1.0488  1.6233  1.1762
 8471TIP3   OH246827   2.948   5.721  12.806 -0.0508 -0.1078 -0.1753
 8471TIP3    H146828   2.888   5.665  12.856  1.5099 -1.7481 -0.0530
 8471TIP3    H246829   2.925   5.705  12.715 -1.7761  1.5804 -0.0499
 8472TIP3   OH246830   2.412   5.262   0.953  0.5047  0.2027 -0.3191
 8472TIP3    H146831   2.430   5.304   0.869  0.6094 -0.2450 -0.5180
 8472TIP3    H246832   2.486   5.287   1.009  0.4394  0.4921 -0.3567
 8473TIP3   OH246833   3.181   6.430   5.789 -0.2002 -0.6986 -0.1784
 8473TIP3    H146834   3.149   6.431   5.879 -2.9570 -1.3862 -1.1017
 8473TIP3    H246835   3.218   6.342   5.778  0.2313 -0.5780  0.3135
 8474TIP3   OH246836   1.386   0.192   4.222 -0.2841  0.1327 -0.1087
 8474TIP3    H146837   1.441   0.192   4.143 -1.1217 -1.0054 -0.6923
 8474TIP3    H246838   1.342   0.107   4.222 -1.4010  0.6883  0.8214
 8475TIP3   OH246839   3.641   0.905   6.056  0.3725  0.3848  0.4462
 8475TIP3    H146840   3.673   0.815   6.048  0.4353  0.4013  0.5092
 8475TIP3    H246841   3.590   0.905   6.137  0.4527  0.4297  0.4965
 8476TIP3   OH246842   5.553   3.525   1.325  0.2431  0.2056 -0.7336
 8476TIP3    H146843   5.644   3.537   1.350  0.0984 -0.4797  0.1611
 8476TIP3    H246844   5.504   3.535   1.406 -0.7144  2.9052 -1.5928
 8477TIP3   OH246845   3.763   4.253   6.183  0.2118  0.3949 -0.1856
 8477TIP3    H146846   3.856   4.231   6.191  0.1087 -1.2555 -2.7407
 8477TIP3    H246847   3.719   4.190   6.240  0.5051 -0.6948 -1.1282
 8478TIP3   OH246848   4.607   6.525  16.851 -0.5514 -0.5743  0.1654
 8478TIP3    H146849   4.656   6.518  16.769 -1.1085  0.4785 -0.2669
 8478TIP3    H246850   4.531   6.468  16.839 -1.5602  0.9401 -0.7446
 8479TIP3   OH246851   6.319   5.142  12.259  0.2452  0.3764 -0.1148
 8479TIP3    H146852   6.355   5.054  12.269 -0.8093 -0.1084 -0.5101
 8479TIP3    H246853   6.258   5.151  12.332 -1.0656  0.0519 -1.1492
 8480TIP3   OH246854   2.783   3.248   1.674 -0.3792  0.2355 -0.0144
 8480TIP3    H146855   2.744   3.179   1.728  0.1501 -1.9323 -2.3198
 8480TIP3    H246856   2.877   3.231   1.677 -0.3396  0.1464 -1.5578
 8481TIP3   OH246857   4.464   2.300  14.974  0.5289  0.3549 -0.6523
 8481TIP3    H146858   4.496   2.297  15.064  0.4477 -0.8453 -0.6482
 8481TIP3    H246859   4.516   2.234  14.928 -0.6035 -0.2589 -1.0802
 8482TIP3   OH246860   6.035   5.136   2.051 -0.1523  0.3366 -0.4995
 8482TIP3    H146861   6.001   5.199   1.987 -1.3629  0.8101  0.5805
 8482TIP3    H246862   6.029   5.051   2.006 -1.7834  0.5538 -0.7324
 8483TIP3   OH246863   4.034   6.518   5.790  0.4689  0.0683  0.0812
 8483TIP3    H146864   4.126   6.540   5.781  0.3138  0.2416 -1.0588
 8483TIP3    H246865   4.029   6.474   5.876  1.5045  0.5311  0.3907
 8484TIP3   OH246866   0.015   4.579  16.682 -0.1115 -0.4229  0.1854
 8484TIP3    H146867  -0.031   4.656  16.649 -0.2717 -0.5802  0.0454
 8484TIP3    H246868  -0.054   4.519  16.709 -0.0203 -1.4112 -1.7079
 8485TIP3   OH246869   5.128   6.062   4.211  0.0556 -0.3176  0.3641
 8485TIP3    H146870   5.072   6.050   4.288 -0.0692 -1.8783  0.0309
 8485TIP3    H246871   5.217   6.064   4.247 -0.0534 -0.1370  0.6329
 8486TIP3   OH246872   0.228   3.329   2.631  0.0504 -0.3650 -0.0130
 8486TIP3    H146873   0.289   3.255   2.639 -0.1568 -0.4469  0.7751
 8486TIP3    H246874   0.203   3.328   2.538  1.5425 -0.0956 -0.4353
 8487TIP3   OH246875   1.168   6.519   0.992 -0.3713  0.0766  0.5982
 8487TIP3    H146876   1.130   6.539   0.906 -2.2113 -0.8672  1.1506
 8487TIP3    H246877   1.109   6.563   1.054  0.9103  0.7054  1.4022
 8488TIP3   OH246878   5.105   0.920   2.742  0.1197 -0.0965  0.6659
 8488TIP3    H146879   5.133   1.010   2.724  0.1436 -0.3788 -0.8123
 8488TIP3    H246880   5.009   0.925   2.749  0.2140  0.2325  1.8042
 8489TIP3   OH246881   4.211   2.629   1.825  0.1909  0.0495  0.3205
 8489TIP3    H146882   4.144   2.647   1.891 -0.0369  0.0747  0.0868
 8489TIP3    H246883   4.204   2.703   1.764  0.1833 -0.1309  0.0995
 8490TIP3   OH246884   2.267   0.487   0.489  0.2278  0.5620  0.6160
 8490TIP3    H146885   2.351   0.489   0.443 -0.0725 -1.0255 -0.0084
 8490TIP3    H246886   2.285   0.527   0.574  1.5234  0.5686  0.3398
 8491TIP3   OH246887   0.268   1.667  16.070  0.2140  0.3383 -0.2908
 8491TIP3    H146888   0.275   1.609  15.994 -1.4114  1.4737 -1.3514
 8491TIP3    H246889   0.269   1.608  16.146  1.3610 -0.8463 -1.2147
 8492TIP3   OH246890   4.725   2.081  11.850  0.4373  0.3248  0.0410
 8492TIP3    H146891   4.714   2.176  11.840 -0.1899  0.4380  1.6724
 8492TIP3    H246892   4.710   2.065  11.943  1.7605 -1.2271 -0.0046
 8493TIP3   OH246893   3.084   2.015   0.434 -0.1017 -0.0048  0.2806
 8493TIP3    H146894   3.070   2.007   0.529 -0.5439  0.0042  0.2170
 8493TIP3    H246895   2.998   2.037   0.399 -0.0311 -0.4556 -0.1801
 8494TIP3   OH246896   2.653   2.016   4.504  0.0489 -0.6737 -0.8963
 8494TIP3    H146897   2.563   1.997   4.479 -0.1956  0.2457 -0.7408
 8494TIP3    H246898   2.689   2.064   4.429 -0.7399  2.2508  0.5309
 8495TIP3   OH246899   3.047   5.722   1.610  0.3112  0.2267 -0.4417
 8495TIP3    H146900   3.017   5.761   1.692  0.2442  0.4239 -0.5588
 8495TIP3    H246901   2.983   5.653   1.592 -1.2777  1.9532 -1.7327
 8496TIP3   OH246902   3.701   2.885   1.946  0.0184 -0.6218 -0.0373
 8496TIP3    H146903   3.685   2.882   2.040  1.0346  0.0024  0.1667
 8496TIP3    H246904   3.761   2.812   1.929  0.5494 -0.1785 -0.0564
 8497TIP3   OH246905   5.432   6.473  15.449  0.4034  0.1338 -0.1428
 8497TIP3    H146906   5.407   6.558  15.487  0.3329 -0.2577  0.6899
 8497TIP3    H246907   5.486   6.496  15.373 -0.7806  0.9547 -0.7590
 8498TIP3   OH246908   4.310   6.622  13.438 -0.8003  0.1352 -0.7294
 8498TIP3    H146909   4.218   6.623  13.464 -0.2196  1.8563  1.4077
 8498TIP3    H246910   4.356   6.582  13.512  0.3662  0.9269 -1.0034
 8499TIP3   OH246911   5.043   3.425  14.639  0.3196 -0.0848  0.0430
 8499TIP3    H146912   4.957   3.452  14.606 -1.0332 -1.9931  1.8623
 8499TIP3    H246913   5.041   3.329  14.634  2.0344 -0.1776  0.8519
 8500TIP3   OH246914   3.582   4.037   3.175 -0.1404  0.0831  0.0583
 8500TIP3    H146915   3.577   4.005   3.085 -1.6793  1.5837 -0.4155
 8500TIP3    H246916   3.585   3.958   3.229  0.4319 -0.8316 -1.2835
 8501TIP3   OH246917   4.370   1.854   0.803  0.0839  0.4492 -0.0101
 8501TIP3    H146918   4.337   1.830   0.890  0.9170 -1.3973 -0.1859
 8501TIP3    H246919   4.420   1.934   0.818  0.6521 -0.1317  1.3169
 8502TIP3   OH246920   2.398   4.227   5.301  0.0087  0.1487 -0.3051
 8502TIP3    H146921   2.371   4.249   5.390  0.5139  0.4012 -0.2109
 8502TIP3    H246922   2.418   4.134   5.304  0.9268  0.3567  0.0754
 8503TIP3   OH246923   6.301   1.204   5.943  0.3638  0.5723  0.1281
 8503TIP3    H146924   6.236   1.221   6.011  0.5230  1.8173 -0.0272
 8503TIP3    H246925   6.378   1.253   5.970  0.0178  2.1201 -1.5966
 8504TIP3   OH246926   4.416   4.847   5.594  0.2423 -0.3875 -0.3975
 8504TIP3    H146927   4.358   4.801   5.533 -1.3272  0.5844  0.3218
 8504TIP3    H246928   4.392   4.813   5.680  0.9152 -0.1601 -0.1172
 8505TIP3   OH246929   1.370   4.249   1.617  0.3812 -0.4487 -0.3900
 8505TIP3    H146930   1.410   4.255   1.530 -1.5398  1.1379 -1.2249
 8505TIP3    H246931   1.435   4.286   1.677  1.3980 -0.8031 -1.2683
 8506TIP3   OH246932   2.228   5.204  12.921 -0.2555 -0.3966 -0.3455
 8506TIP3    H146933   2.299   5.194  12.858  0.2535  2.7283 -0.3715
 8506TIP3    H246934   2.266   5.255  12.993 -2.3678  1.1868 -0.2652
 8507TIP3   OH246935   1.609   4.094   0.589 -0.4229  0.1146 -0.4926
 8507TIP3    H146936   1.597   4.188   0.600  2.1897  0.3984  0.3487
 8507TIP3    H246937   1.666   4.087   0.512  0.2661 -0.6847  0.0749
 8508TIP3   OH246938   1.905   6.505  13.137  0.0975 -0.6236 -0.0437
 8508TIP3    H146939   1.973   6.474  13.197  0.3001  0.2166  0.1779
 8508TIP3    H246940   1.953   6.555  13.071 -0.4064  1.0621  0.8294
 8509TIP3   OH246941   4.557   5.685  14.192  0.1948 -0.4491  0.0716
 8509TIP3    H146942   4.529   5.757  14.249  1.6174 -1.2538  1.8485
 8509TIP3    H246943   4.597   5.729  14.117 -0.9794  0.6285  0.0538
 8510TIP3   OH246944   5.019   1.307   5.737 -0.0299  0.2166 -0.3625
 8510TIP3    H146945   5.035   1.336   5.827 -2.7239 -0.9256  0.5519
 8510TIP3    H246946   5.032   1.212   5.739 -0.1062  0.1824 -1.1793
 8511TIP3   OH246947   4.908   3.169   0.231 -0.5179  0.1870 -0.1625
 8511TIP3    H146948   4.837   3.195   0.289 -0.4375 -2.0948  1.0162
 8511TIP3    H246949   4.985   3.217   0.263 -0.5656 -0.7446  1.3901
 8512TIP3   OH246950   4.738   4.072  14.911 -0.1764  0.0274 -0.4357
 8512TIP3    H146951   4.761   4.161  14.886 -0.5257  1.4281  3.9010
 8512TIP3    H246952   4.809   4.043  14.968 -1.4149 -1.4425  0.4084
 8513TIP3   OH246953   4.180   4.636   2.824  0.1911 -0.1244  0.3023
 8513TIP3    H146954   4.231   4.697   2.769  0.3823 -0.2322  0.3600
 8513TIP3    H246955   4.235   4.558   2.829  1.5615  0.9576  3.0984
 8514TIP3   OH246956   1.138   2.607  12.759 -0.0277 -0.2278 -0.5586
 8514TIP3    H146957   1.202   2.603  12.689  0.1616 -0.5407 -0.3683
 8514TIP3    H246958   1.095   2.522  12.757 -1.3229  0.4314 -1.5155
 8515TIP3   OH246959   5.837   1.547   0.521 -0.2909  0.2169  0.4050
 8515TIP3    H146960   5.933   1.552   0.516 -0.1247 -1.0830  1.9851
 8515TIP3    H246961   5.809   1.530   0.432  1.1192 -1.6615  0.2942
 8516TIP3   OH246962   4.779   6.708  16.990  0.1292 -0.2305  0.2822
 8516TIP3    H146963   4.731   6.638  16.945 -3.0157  1.4282  0.9113
 8516TIP3    H246964   4.738   6.711  17.077  1.5916  1.0645  0.9344
 8517TIP3   OH246965   6.664   4.398  13.064 -0.6110  0.2395 -0.3482
 8517TIP3    H146966   6.750   4.400  13.106 -0.3491 -2.1350 -0.6624
 8517TIP3    H246967   6.676   4.441  12.980  0.0747  0.6360 -0.0466
 8518TIP3   OH246968   4.053   3.054  13.612  0.0463  0.5047 -0.5991
 8518TIP3    H146969   4.046   3.072  13.705 -1.4803  0.7172 -0.7396
 8518TIP3    H246970   3.964   3.029  13.586  0.5931 -0.1769 -1.8612
 8519TIP3   OH246971   3.445   5.365  14.215  0.2074  0.6033 -0.1422
 8519TIP3    H146972   3.354   5.389  14.229  0.0306 -1.4387  2.7246
 8519TIP3    H246973   3.442   5.276  14.182  1.1755  0.1156  1.0292
 8520TIP3   OH246974   4.162   1.983  17.036  0.2195 -0.3805 -1.0115
 8520TIP3    H146975   4.181   1.976  16.942  0.0538 -3.4021 -0.8573
 8520TIP3    H246976   4.067   1.984  17.042  0.2223  1.2025 -0.9250
 8521TIP3   OH246977   3.853   0.325  14.493 -0.0950  0.0545  0.4584
 8521TIP3    H146978   3.785   0.372  14.541  0.5001  0.4121  0.9534
 8521TIP3    H246979   3.871   0.380  14.417 -0.5426 -0.1692  0.1885
 8522TIP3   OH246980   3.757   2.427   2.096 -0.0282 -0.0882 -0.1602
 8522TIP3    H146981   3.746   2.503   2.040  1.5123 -0.7258 -1.3748
 8522TIP3    H246982   3.850   2.405   2.089 -0.6428 -2.7385 -0.7374
 8523TIP3   OH246983   6.175   1.898  11.163  0.7607 -0.0133 -0.1949
 8523TIP3    H146984   6.195   1.961  11.093 -0.8437 -0.9556 -1.5255
 8523TIP3    H246985   6.109   1.840  11.126  0.6366 -1.1827  1.7617
 8524TIP3   OH246986   0.629   4.832   0.399  0.2205  0.4660 -0.7899
 8524TIP3    H146987   0.622   4.927   0.389 -4.5708  0.1418 -1.9814
 8524TIP3    H246988   0.650   4.800   0.312  1.0376  0.3579 -0.5581
 8525TIP3   OH246989   0.132   6.220   2.845 -0.4667 -0.2815  0.5089
 8525TIP3    H146990   0.121   6.271   2.926 -0.1993  0.3513  0.1533
 8525TIP3    H246991   0.190   6.148   2.870  0.5530  0.5547  0.6180
 8526TIP3   OH246992   1.691   6.470  13.986  0.0720  0.2137  0.3118
 8526TIP3    H146993   1.740   6.528  14.045  1.8085 -0.2353 -0.6677
 8526TIP3    H246994   1.745   6.392  13.977  0.2532  0.5958 -2.5136
 8527TIP3   OH246995   4.445   5.152   4.134  0.2217  0.1452 -0.2581
 8527TIP3    H146996   4.538   5.171   4.117 -0.2894  2.3508 -0.8282
 8527TIP3    H246997   4.408   5.140   4.047 -0.3782  1.1763 -0.1601
 8528TIP3   OH246998   1.668   0.860   5.622 -0.4552 -0.3820  0.5179
 8528TIP3    H146999   1.731   0.850   5.694  0.5667  0.3073 -0.2796
 8528TIP3    H247000   1.716   0.830   5.544 -0.9857  0.5158 -0.1542
 8529TIP3   OH247001   6.571   0.001   3.661 -0.8481  0.5085 -0.5540
 8529TIP3    H147002   6.520   0.009   3.741  0.3225  0.5756  0.1903
 8529TIP3    H247003   6.505   0.002   3.591 -2.0477 -1.6464  0.4849
 8530TIP3   OH247004   6.006   1.294   1.404  0.5143  0.1895 -0.5330
 8530TIP3    H147005   6.077   1.280   1.341  2.2589  1.1366  1.1558
 8530TIP3    H247006   6.025   1.233   1.476  0.7858  1.8914  0.8615
 8531TIP3   OH247007   1.569   5.062   2.213 -0.8923  0.0672 -0.4681
 8531TIP3    H147008   1.500   5.100   2.267 -1.1785 -0.4331 -0.4814
 8531TIP3    H247009   1.526   4.993   2.163 -0.1016 -1.2115  0.5829
 8532TIP3   OH247010   3.202   2.476   1.233  0.1735  0.5544  0.4508
 8532TIP3    H147011   3.268   2.493   1.166 -0.7696 -0.8088 -0.8506
 8532TIP3    H247012   3.251   2.433   1.303  1.0908  1.6242  0.4945
 8533TIP3   OH247013   6.064   6.652  13.597 -0.6979  0.8152  0.1090
 8533TIP3    H147014   6.024   6.731  13.560 -0.9246  0.8320  0.3876
 8533TIP3    H247015   6.014   6.580  13.559 -1.0092  0.8378  0.4809
 8534TIP3   OH247016   6.782   3.142   0.622  0.1846 -0.3117  0.3261
 8534TIP3    H147017   6.696   3.183   0.611 -0.0360 -1.1278 -1.2268
 8534TIP3    H247018   6.841   3.194   0.567  0.3399 -0.7532  0.0696
 8535TIP3   OH247019   6.345   5.561  13.984  0.5210 -0.3905 -0.5276
 8535TIP3    H147020   6.254   5.586  13.968  0.6262  0.7917  0.6364
 8535TIP3    H247021   6.396   5.636  13.954  0.9737 -0.1632  0.7491
 8536TIP3   OH247022   5.890   2.817  13.063 -0.9320 -0.0415 -0.1180
 8536TIP3    H147023   5.855   2.884  13.122 -1.0117  0.4041 -0.6707
 8536TIP3    H247024   5.979   2.848  13.043 -0.6361 -0.5667  0.3428
 8537TIP3   OH247025   5.817   3.529  12.388 -0.7841 -0.4349 -0.2449
 8537TIP3    H147026   5.786   3.511  12.477 -0.5378  0.9073  0.1337
 8537TIP3    H247027   5.904   3.488  12.385 -0.1016  0.8988  0.6957
 8538TIP3   OH247028   2.169   2.265   3.929 -0.2210 -0.3170  0.1224
 8538TIP3    H147029   2.241   2.326   3.944 -1.2401  1.0442 -0.4573
 8538TIP3    H247030   2.095   2.320   3.903 -1.5900 -1.6537  1.0964
 8539TIP3   OH247031   6.221   3.288  12.922  0.0565  0.6158 -0.0715
 8539TIP3    H147032   6.163   3.344  12.974 -0.2084  1.9393 -1.7522
 8539TIP3    H247033   6.181   3.285  12.835  2.2034  1.1820 -1.1449
 8540TIP3   OH247034   4.370   1.296  12.198 -0.0079 -0.3528  0.7252
 8540TIP3    H147035   4.416   1.307  12.115 -1.8135 -0.3468 -0.3090
 8540TIP3    H247036   4.344   1.203  12.199 -0.5035 -0.2151  0.9875
 8541TIP3   OH247037   6.619   4.757  14.797  0.6082  0.5750  0.1067
 8541TIP3    H147038   6.667   4.675  14.805  1.1587  0.8020 -0.7793
 8541TIP3    H247039   6.653   4.797  14.716 -0.6045  1.0369 -0.1882
 8542TIP3   OH247040   5.439   1.710   1.555 -0.7368 -0.0574 -0.2943
 8542TIP3    H147041   5.518   1.760   1.577 -0.0733 -1.3482  0.3225
 8542TIP3    H247042   5.377   1.732   1.624 -0.6969  0.4250 -0.4039
 8543TIP3   OH247043   4.358   3.480   5.692 -0.1853 -0.4269 -0.0375
 8543TIP3    H147044   4.387   3.542   5.759 -1.2472  0.0685 -0.0249
 8543TIP3    H247045   4.346   3.532   5.613 -0.8208 -0.6540 -0.0978
 8544TIP3   OH247046   1.890   4.974  14.737 -0.3320  0.0665  0.7168
 8544TIP3    H147047   1.915   4.942  14.650  1.5192  1.6305  0.6528
 8544TIP3    H247048   1.844   5.055  14.721  0.6456  0.7329  1.2130
 8545TIP3   OH247049   3.602   2.235  15.760 -0.2454 -0.0028  0.2097
 8545TIP3    H147050   3.598   2.222  15.665 -0.4797  1.6147 -0.0182
 8545TIP3    H247051   3.696   2.245  15.778 -0.2756  0.7760 -0.0238
 8546TIP3   OH247052   0.445   0.127   1.949 -0.2824  0.0202 -0.2256
 8546TIP3    H147053   0.445   0.108   1.855  0.5595 -1.3578  0.0290
 8546TIP3    H247054   0.517   0.074   1.984 -0.4558  0.6799  1.1679
 8547TIP3   OH247055   0.579   0.859  16.369  0.2625 -0.3511  0.7620
 8547TIP3    H147056   0.663   0.838  16.409 -0.7998 -2.9242  1.7850
 8547TIP3    H247057   0.545   0.932  16.420  2.0405  0.9892  0.0722
 8548TIP3   OH247058   1.970   2.455   4.419 -0.1284 -0.3275  0.3989
 8548TIP3    H147059   2.038   2.419   4.475  0.3959 -0.7280 -0.4815
 8548TIP3    H247060   1.944   2.537   4.462  1.8197  0.4944  0.0850
 8549TIP3   OH247061   6.378   4.956  14.584 -0.4620 -0.7323 -0.3648
 8549TIP3    H147062   6.413   4.930  14.499 -1.4929 -0.7096 -0.8034
 8549TIP3    H247063   6.283   4.960  14.571 -0.4773  1.5062  0.1491
 8550TIP3   OH247064   6.635   2.620   3.477 -0.4644 -0.2502  0.3835
 8550TIP3    H147065   6.675   2.608   3.391 -0.7668  0.4351  0.1377
 8550TIP3    H247066   6.707   2.610   3.539 -0.6239 -2.7416  0.1843
 8551TIP3   OH247067   4.450   2.391   2.036 -0.1440 -0.2186 -0.0803
 8551TIP3    H147068   4.436   2.485   2.031  3.0530  0.3656  0.6433
 8551TIP3    H247069   4.468   2.364   1.946 -0.1890  0.0394 -0.1660
 8552TIP3   OH247070   3.566   1.412   3.383 -0.0249  0.6403  0.4306
 8552TIP3    H147071   3.507   1.345   3.350 -0.2677  0.6476  0.8365
 8552TIP3    H247072   3.593   1.462   3.306  0.4825 -0.1744  0.0677
 8553TIP3   OH247073   5.298   2.429   5.318  0.1127  0.1484 -0.1581
 8553TIP3    H147074   5.371   2.485   5.296  2.1864 -3.6809 -3.7911
 8553TIP3    H247075   5.334   2.364   5.379 -0.7721 -0.5228 -0.3199
 8554TIP3   OH247076   1.823   1.815  13.145  0.0924  0.0187  0.4302
 8554TIP3    H147077   1.864   1.894  13.179  0.3885 -1.1058  2.8692
 8554TIP3    H247078   1.807   1.833  13.053 -3.0209  4.2331  1.6366
 8555TIP3   OH247079   5.123   4.712  16.168 -0.1733 -0.1210 -0.0132
 8555TIP3    H147080   5.168   4.654  16.230  0.1046  0.4855  0.3631
 8555TIP3    H247081   5.121   4.662  16.086 -1.4985 -1.3637  0.7461
 8556TIP3   OH247082   1.808   5.897   0.961  0.1137 -0.2425  0.5131
 8556TIP3    H147083   1.776   5.968   0.906  2.9215  0.5000 -0.2347
 8556TIP3    H247084   1.779   5.817   0.917  0.0547  0.4010 -0.6144
 8557TIP3   OH247085   0.944   0.432   4.230 -0.1065  0.1005  0.4012
 8557TIP3    H147086   1.036   0.449   4.249 -0.1163 -0.0271  0.5643
 8557TIP3    H247087   0.924   0.489   4.156 -0.3655  1.4585  1.4973
 8558TIP3   OH247088   4.976   5.012  17.224  0.2087 -0.4852  0.2193
 8558TIP3    H147089   4.998   4.986  17.135  0.6126  1.7326 -0.3545
 8558TIP3    H247090   5.060   5.025  17.267  0.0239  0.5962  0.2641
 8559TIP3   OH247091   2.542   1.983   0.983  0.2915 -0.4394  0.4982
 8559TIP3    H147092   2.558   2.061   0.930  0.0214 -2.0221 -2.0187
 8559TIP3    H247093   2.453   1.994   1.016  0.6650  0.8304  1.0999
 8560TIP3   OH247094   4.717   2.672  12.718 -0.1676 -0.1112 -0.1113
 8560TIP3    H147095   4.705   2.707  12.630 -2.5856  0.4153  0.4022
 8560TIP3    H247096   4.685   2.583  12.714  1.0587 -0.5686 -0.0943
 8561TIP3   OH247097   2.195   4.322   3.606 -0.0845  0.0505 -0.4635
 8561TIP3    H147098   2.221   4.401   3.653 -0.6832 -0.1963  0.2892
 8561TIP3    H247099   2.268   4.261   3.619 -1.9090 -1.4687  3.5699
 8562TIP3   OH247100   0.568   3.933  16.934  0.1950 -0.0839  0.5877
 8562TIP3    H147101   0.600   4.001  16.874  0.5937  0.0281  0.9288
 8562TIP3    H247102   0.645   3.880  16.954  0.2127  0.3066  1.5736
 8563TIP3   OH247103   4.553   1.217   2.706 -0.6012  0.5029  0.0706
 8563TIP3    H147104   4.615   1.272   2.658 -1.0476 -0.9040 -2.2240
 8563TIP3    H247105   4.468   1.261   2.696 -0.6724  0.2751 -0.3375
 8564TIP3   OH247106   0.207   6.041   2.396 -0.0712 -0.4912 -0.3340
 8564TIP3    H147107   0.253   5.988   2.461 -1.7758 -0.2432  1.1301
 8564TIP3    H247108   0.232   6.131   2.417  2.1647 -0.6126 -2.2947
 8565TIP3   OH247109   2.089   4.302   4.293  0.6045 -0.8725  0.0665
 8565TIP3    H147110   2.042   4.385   4.282 -2.5120 -2.7113 -1.3451
 8565TIP3    H247111   2.158   4.305   4.226  1.5405  1.2041  1.0764
 8566TIP3   OH247112   1.045   1.935   5.166  0.1828  0.2028  0.7393
 8566TIP3    H147113   1.089   2.019   5.168  1.2895 -0.2992 -1.1704
 8566TIP3    H247114   0.964   1.951   5.117  0.8066 -0.0170 -0.3766
 8567TIP3   OH247115   3.082   1.701  13.231  0.1393  0.9576  0.0876
 8567TIP3    H147116   3.018   1.754  13.280 -0.0857 -1.4358  2.4923
 8567TIP3    H247117   3.146   1.674  13.297 -0.2877 -2.5203 -0.8262
 8568TIP3   OH247118   3.389   4.942  15.287 -0.1085 -0.1148 -0.7877
 8568TIP3    H147119   3.407   5.027  15.247 -2.2770 -0.5395 -2.7577
 8568TIP3    H247120   3.328   4.962  15.358  0.6785  0.1622 -0.1820
 8569TIP3   OH247121   6.661   4.482   5.142  0.2750 -0.1158 -0.0267
 8569TIP3    H147122   6.579   4.459   5.099 -0.4356 -0.1963  1.3379
 8569TIP3    H247123   6.698   4.398   5.170  1.1914 -0.1393 -1.2814
 8570TIP3   OH247124   6.735   1.211  11.638  0.0124  0.2759 -0.1775
 8570TIP3    H147125   6.716   1.304  11.627 -0.5341  0.2127  0.2179
 8570TIP3    H247126   6.731   1.175  11.549  1.7127  0.8958 -0.5391
 8571TIP3   OH247127   4.653   6.201  16.997  0.0814  0.4769  0.3392
 8571TIP3    H147128   4.691   6.253  16.926 -0.1769 -1.3085 -1.1535
 8571TIP3    H247129   4.665   6.110  16.969 -2.2534 -0.1952  1.4295
 8572TIP3   OH247130   2.691   1.145   5.168  0.3158 -0.3003 -0.4395
 8572TIP3    H147131   2.664   1.095   5.244  1.7042 -2.7587 -1.4721
 8572TIP3    H247132   2.632   1.116   5.098  1.5431 -1.0222 -1.2004
 8573TIP3   OH247133   5.366   1.559  11.294  0.5110  0.0656 -0.2368
 8573TIP3    H147134   5.279   1.541  11.259 -0.5726  0.9738  1.9405
 8573TIP3    H247135   5.411   1.606  11.223 -0.1620 -1.8780 -1.9962
 8574TIP3   OH247136   1.650   0.826   2.017 -0.1775  0.5047 -0.2134
 8574TIP3    H147137   1.738   0.842   2.052  0.0167  2.6230 -1.5857
 8574TIP3    H247138   1.660   0.832   1.922 -1.7770  0.6180 -0.3889
 8575TIP3   OH247139   3.395   2.375  13.829 -0.0435  0.3380  0.2066
 8575TIP3    H147140   3.359   2.463  13.837  1.6176  0.9356  1.3203
 8575TIP3    H247141   3.391   2.339  13.918 -3.7161 -1.9691 -0.7535
 8576TIP3   OH247142   3.768   2.324   1.354 -0.1907  0.0049  0.6937
 8576TIP3    H147143   3.690   2.308   1.300 -1.0266  0.5605  1.7293
 8576TIP3    H247144   3.790   2.416   1.338  0.3740 -0.1972  0.2661
 8577TIP3   OH247145   0.771   3.090   4.269  0.0471 -0.5002 -0.0596
 8577TIP3    H147146   0.826   3.131   4.336 -1.3131  0.8945  0.2430
 8577TIP3    H247147   0.769   3.155   4.198  0.7588 -1.5910 -1.1134
 8578TIP3   OH247148   5.080   2.219   4.284 -0.4688 -0.0342  0.1696
 8578TIP3    H147149   5.085   2.175   4.199 -1.9231 -1.4780  0.7951
 8578TIP3    H247150   5.153   2.183   4.334  1.2223  1.8291 -0.8858
 8579TIP3   OH247151   6.386   1.683  13.899 -0.0906 -1.0727  0.1168
 8579TIP3    H147152   6.452   1.616  13.877  1.6429  0.4070  0.6666
 8579TIP3    H247153   6.395   1.748  13.829  0.0834 -0.1260  1.0171
 8580TIP3   OH247154   0.442   1.290   0.472  0.6727 -0.0157 -0.1937
 8580TIP3    H147155   0.485   1.318   0.391 -1.4677  0.9033 -1.0295
 8580TIP3    H247156   0.378   1.225   0.444  0.0855  0.1252  0.7969
 8581TIP3   OH247157   4.407   1.873  12.387 -0.3481 -0.1319 -0.3869
 8581TIP3    H147158   4.387   1.935  12.317  0.4250 -0.0583 -0.5563
 8581TIP3    H247159   4.391   1.787  12.349 -0.3813 -0.0735 -0.5036
 8582TIP3   OH247160   6.158   3.771   0.902 -0.6205 -0.3834 -0.1490
 8582TIP3    H147161   6.168   3.836   0.971 -0.1624  1.5712 -1.9983
 8582TIP3    H247162   6.070   3.788   0.867  0.3106  0.7091 -2.0462
 8583TIP3   OH247163   3.895   1.148  16.101 -0.5127  0.3123 -0.5378
 8583TIP3    H147164   3.946   1.078  16.142 -1.1750 -0.6448 -1.3253
 8583TIP3    H247165   3.840   1.183  16.171 -1.3572 -1.0505 -0.5121
 8584TIP3   OH247166   1.527   0.930   0.388  0.0116 -0.1778 -0.0883
 8584TIP3    H147167   1.540   0.883   0.306 -0.9392 -1.2456  0.3525
 8584TIP3    H247168   1.568   0.875   0.455 -1.5515 -0.6704  0.4998
 8585TIP3   OH247169   0.211   0.364   0.630 -0.5331 -0.6570  0.1482
 8585TIP3    H147170   0.295   0.391   0.595 -0.7684  3.8240  2.6652
 8585TIP3    H247171   0.156   0.349   0.553  0.8006  2.4946 -1.5089
 8586TIP3   OH247172   4.801   5.226  16.376  0.3716  0.1201  0.0845
 8586TIP3    H147173   4.729   5.192  16.323  0.5341  0.9380 -0.6709
 8586TIP3    H247174   4.777   5.317  16.394  1.5553  0.6223 -0.7993
 8587TIP3   OH247175   0.229   1.187   0.995  0.4198 -0.4973 -0.1591
 8587TIP3    H147176   0.174   1.244   1.048  0.4940  0.3494 -0.9818
 8587TIP3    H247177   0.317   1.222   1.005  0.3506  0.0173 -1.2959
 8588TIP3   OH247178   3.032   5.511  16.467  0.2812  0.7564  0.4159
 8588TIP3    H147179   3.037   5.541  16.558 -0.1408  1.1881  0.2965
 8588TIP3    H247180   2.977   5.575  16.424  1.2466  1.0803 -0.3578
 8589TIP3   OH247181   5.928   1.910   2.260 -0.0756 -0.0775 -0.0159
 8589TIP3    H147182   5.859   1.858   2.218 -0.3477  0.5525 -0.3574
 8589TIP3    H247183   6.007   1.890   2.211 -0.3044  0.3106 -0.5442
 8590TIP3   OH247184   1.784   5.247  12.747  0.2469 -0.2653 -0.0503
 8590TIP3    H147185   1.845   5.318  12.725  0.1649 -0.2400 -0.1874
 8590TIP3    H247186   1.841   5.177  12.779  0.4802 -0.8199 -1.6490
 8591TIP3   OH247187   4.656   5.684   1.985 -0.1034  0.0639 -0.0702
 8591TIP3    H147188   4.721   5.702   1.917 -0.1377 -0.7211 -0.3138
 8591TIP3    H247189   4.583   5.645   1.939 -0.0934 -0.5540  0.4296
 8592TIP3   OH247190   2.236   1.021  10.746  0.3423  0.0277 -0.3185
 8592TIP3    H147191   2.204   1.103  10.710  1.6271 -0.1339 -1.8331
 8592TIP3    H247192   2.328   1.036  10.764  0.5226 -1.0051 -0.3575
 8593TIP3   OH247193   5.780   5.364  14.939  0.0985 -0.0711 -0.4253
 8593TIP3    H147194   5.764   5.335  15.028  1.0137 -1.3683 -0.6672
 8593TIP3    H247195   5.808   5.456  14.948  0.3929 -0.2604  0.6249
 8594TIP3   OH247196   0.654   6.659  13.423 -0.0040  0.6840 -0.2310
 8594TIP3    H147197   0.674   6.654  13.329 -0.6133 -1.8746 -0.2696
 8594TIP3    H247198   0.681   6.747  13.449  3.1097  0.3640 -2.1465
 8595TIP3   OH247199   6.602   3.496   5.448 -0.5818  0.1526 -0.2520
 8595TIP3    H147200   6.506   3.494   5.452 -0.6416 -1.6084 -2.0820
 8595TIP3    H247201   6.626   3.418   5.398  1.8354  0.4361  0.4071
 8596TIP3   OH247202   6.462   4.567  12.187  0.4796  0.4530  0.1414
 8596TIP3    H147203   6.492   4.543  12.099  0.8148 -2.0803  0.9173
 8596TIP3    H247204   6.542   4.593  12.233  0.8588 -1.7265  0.7685
 8597TIP3   OH247205   4.329   0.889   6.098  0.3245 -0.7097  0.2688
 8597TIP3    H147206   4.389   0.880   6.171  2.6129  0.1389 -1.4450
 8597TIP3    H247207   4.320   0.983   6.086 -1.3549 -0.8303  0.5011
 8598TIP3   OH247208   0.998   5.007  15.354 -0.7717 -0.0983 -0.2307
 8598TIP3    H147209   1.041   4.967  15.429 -0.0315  1.0450 -0.0433
 8598TIP3    H247210   1.059   4.994  15.281  0.5372  2.7160  0.3213
 8599TIP3   OH247211   0.938   2.621   4.131 -0.3647 -0.7529 -0.0177
 8599TIP3    H147212   0.920   2.616   4.037  0.9823 -0.8451 -0.2827
 8599TIP3    H247213   0.864   2.671   4.167 -1.9384 -2.4448 -0.8138
 8600TIP3   OH247214   2.616   1.416  11.664 -0.3549 -0.6422 -0.3835
 8600TIP3    H147215   2.691   1.472  11.644 -0.0669 -0.8205  0.1765
 8600TIP3    H247216   2.568   1.464  11.732 -2.2789  0.7879 -2.6587
 8601TIP3   OH247217   2.857   0.869   0.426 -0.1069 -0.0907 -0.0164
 8601TIP3    H147218   2.843   0.953   0.381  1.4511 -0.7685 -1.8107
 8601TIP3    H247219   2.881   0.894   0.515  0.0634  1.3786 -0.4555
 8602TIP3   OH247220   2.985   1.082   2.769  0.3219 -0.0377 -0.0461
 8602TIP3    H147221   2.955   1.047   2.685  0.1456  2.0196 -0.8682
 8602TIP3    H247222   3.071   1.118   2.750  1.3916 -1.8644  1.2682
 8603TIP3   OH247223   5.935   3.995   4.635 -1.0040  0.4204 -0.9018
 8603TIP3    H147224   5.981   4.079   4.636 -0.1470 -0.0685 -0.0014
 8603TIP3    H247225   5.962   3.954   4.553  0.4739 -0.0487 -0.1754
 8604TIP3   OH247226   4.329   1.273  14.842 -0.2088 -0.2021 -0.0463
 8604TIP3    H147227   4.328   1.339  14.911 -1.4973 -0.9002  0.6104
 8604TIP3    H247228   4.346   1.190  14.888  1.7493 -0.3023 -0.8994
 8605TIP3   OH247229   5.607   4.743   3.469 -0.4214 -0.0941  0.3541
 8605TIP3    H147230   5.565   4.820   3.432 -1.0591 -0.5663  0.1030
 8605TIP3    H247231   5.625   4.686   3.394 -0.0088 -0.2209  0.5465
 8606TIP3   OH247232   6.069   5.004  15.013  0.0427 -0.4450  0.2660
 8606TIP3    H147233   6.105   5.082  15.056 -0.1304 -0.1808 -0.0706
 8606TIP3    H247234   6.116   4.999  14.930 -1.5197  0.5770 -0.7054
 8607TIP3   OH247235   5.512   2.553   0.663  0.9255  0.8261  0.5486
 8607TIP3    H147236   5.497   2.476   0.718  0.6627  1.0367  0.7746
 8607TIP3    H247237   5.499   2.627   0.722 -0.0984  1.0708  0.0285
 8608TIP3   OH247238   1.983   4.489  12.068 -0.1483 -0.2190 -0.1970
 8608TIP3    H147239   1.985   4.428  12.141  0.0920  1.4283  1.1959
 8608TIP3    H247240   1.964   4.574  12.108  1.4716  0.9674 -1.8583
 8609TIP3   OH247241   0.534   3.807   1.626 -0.0217 -0.3806  0.3989
 8609TIP3    H147242   0.514   3.719   1.595 -1.0915  0.9934 -3.0167
 8609TIP3    H247243   0.630   3.808   1.635  0.2080 -1.2379 -1.6697
 8610TIP3   OH247244   4.053   5.680   6.333 -0.4005  0.2283 -0.1232
 8610TIP3    H147245   4.003   5.687   6.414  1.6611 -0.2224  1.2515
 8610TIP3    H247246   4.107   5.760   6.332 -1.8129  1.1750 -2.0509
 8611TIP3   OH247247   5.692   3.940   5.265  0.3269  0.3021 -0.3742
 8611TIP3    H147248   5.723   4.010   5.209 -1.8916 -0.2093 -2.3404
 8611TIP3    H247249   5.642   3.984   5.334 -1.4929  0.6603 -1.8913
 8612TIP3   OH247250   5.257   5.718   2.010 -0.4341 -0.6592  0.5965
 8612TIP3    H147251   5.323   5.744   2.075 -1.0705  0.0235  0.9681
 8612TIP3    H247252   5.244   5.625   2.025  0.8490 -0.9219  0.1660
 8613TIP3   OH247253   2.545   2.368   4.861  0.6193  0.5147  0.0081
 8613TIP3    H147254   2.553   2.407   4.774 -0.9101  0.7864 -0.0250
 8613TIP3    H247255   2.608   2.416   4.915 -0.7682  2.6060 -0.1806
 8614TIP3   OH247256   4.323   6.051  12.835  0.3580  0.3491 -0.2678
 8614TIP3    H147257   4.247   6.008  12.797 -0.1879  1.6568 -0.7017
 8614TIP3    H247258   4.396   5.993  12.816 -0.5570 -1.0131  0.3175
 8615TIP3   OH247259   4.831   1.183  11.361  0.5922  0.3185 -0.5452
 8615TIP3    H147260   4.913   1.134  11.368 -0.9603 -2.2820  0.3381
 8615TIP3    H247261   4.774   1.127  11.307 -1.7586  0.3191  1.7835
 8616TIP3   OH247262   3.891   6.217   5.028 -0.1797 -0.0194  0.4042
 8616TIP3    H147263   3.933   6.137   4.995  1.9531  0.6144  1.5161
 8616TIP3    H247264   3.960   6.263   5.075 -1.9858  1.3746  1.7675
 8617TIP3   OH247265   1.771   1.861   3.317  0.1929 -0.7966 -0.5652
 8617TIP3    H147266   1.848   1.918   3.307 -0.0548 -0.3886 -0.1589
 8617TIP3    H247267   1.807   1.772   3.317  0.6632 -0.6101 -0.3824
 8618TIP3   OH247268   2.621   5.835   2.277 -0.2525 -0.2105  0.4697
 8618TIP3    H147269   2.688   5.870   2.218  0.4326 -3.3746 -0.7498
 8618TIP3    H247270   2.650   5.862   2.364 -0.0740  2.6301 -0.4134
 8619TIP3   OH247271   1.030   2.242  11.462  0.3975  0.6555 -0.6310
 8619TIP3    H147272   0.938   2.216  11.458  0.6814 -0.1665 -2.9294
 8619TIP3    H247273   1.033   2.325  11.415  0.5296  1.6428  1.1119
 8620TIP3   OH247274   6.700   2.355   5.154 -0.3798 -0.1156 -0.0275
 8620TIP3    H147275   6.731   2.350   5.244 -0.6419  0.4324  0.1013
 8620TIP3    H247276   6.778   2.346   5.100 -0.0871  0.5301  0.2786
 8621TIP3   OH247277   2.696   5.044   3.289  0.4576  0.1810 -0.1897
 8621TIP3    H147278   2.603   5.046   3.309  0.5751 -0.3107  0.4449
 8621TIP3    H247279   2.738   5.089   3.363  0.7402  0.1718 -0.3414
 8622TIP3   OH247280   1.527   3.448  13.158 -0.4915 -0.0392  0.5153
 8622TIP3    H147281   1.492   3.484  13.239 -1.3118 -0.3162  0.2859
 8622TIP3    H247282   1.621   3.438  13.175 -0.3213  1.8201  0.6995
 8623TIP3   OH247283   4.824   2.357  14.050  0.6437  0.4767  0.4293
 8623TIP3    H147284   4.830   2.392  13.961 -1.3823  0.0113  0.0834
 8623TIP3    H247285   4.899   2.297  14.057  1.5037  1.4200 -0.5330
 8624TIP3   OH247286   5.985   5.692  14.312  0.2541  0.5945  0.2488
 8624TIP3    H147287   5.903   5.707  14.358 -0.2860 -0.0057 -0.5097
 8624TIP3    H247288   6.037   5.771  14.330 -0.1138  0.5554  1.5104
 8625TIP3   OH247289   6.245   0.243  14.014 -0.2839  0.2481  0.0791
 8625TIP3    H147290   6.208   0.328  14.040 -0.1008  0.2763  0.2466
 8625TIP3    H247291   6.247   0.246  13.918 -1.7297 -0.1856  0.0337
 8626TIP3   OH247292   6.547   0.206   1.663 -0.6661  0.4720  0.0495
 8626TIP3    H147293   6.459   0.224   1.630 -0.4601  1.6608  0.1259
 8626TIP3    H247294   6.534   0.138   1.729 -1.4970  0.4625 -0.1158
 8627TIP3   OH247295   3.122   3.448   4.517  0.0179  0.2759 -0.2079
 8627TIP3    H147296   3.029   3.441   4.538 -0.6642  0.5452 -2.9473
 8627TIP3    H247297   3.145   3.538   4.542 -0.1543 -0.1238  1.4785
 8628TIP3   OH247298   6.780   3.544   1.854  0.1972 -0.3197  0.3296
 8628TIP3    H147299   6.713   3.598   1.811 -1.4749 -1.4473  1.4735
 8628TIP3    H247300   6.841   3.521   1.783 -1.2429 -0.2176 -0.9623
 8629TIP3   OH247301   5.762   4.205   5.131 -0.0707  0.9575 -0.3567
 8629TIP3    H147302   5.850   4.211   5.167 -0.5753 -1.2929  1.3306
 8629TIP3    H247303   5.705   4.242   5.199 -0.7040 -0.2586 -0.2213
 8630TIP3   OH247304   4.199   6.431  14.054  0.0854 -0.2770 -0.0219
 8630TIP3    H147305   4.256   6.354  14.051 -0.4072 -0.6114 -0.9292
 8630TIP3    H247306   4.224   6.475  14.136  1.2273 -0.7281 -0.1060
 8631TIP3   OH247307   4.490   4.565   2.160 -0.1508  0.0895 -0.0125
 8631TIP3    H147308   4.511   4.570   2.254 -0.6210  1.8427  0.0250
 8631TIP3    H247309   4.461   4.475   2.147 -0.0259 -0.1932  1.5309
 8632TIP3   OH247310   0.755   2.682  13.209 -0.3558 -0.4017  0.3641
 8632TIP3    H147311   0.839   2.672  13.165 -0.3072 -0.7285  0.5244
 8632TIP3    H247312   0.727   2.592  13.228  0.2184 -0.2360  2.1167
 8633TIP3   OH247313   2.572   1.654  15.570 -0.0022  0.1665  0.0843
 8633TIP3    H147314   2.658   1.634  15.533 -0.6397 -4.1775  0.6926
 8633TIP3    H247315   2.590   1.678  15.661  0.6416 -0.1295  0.0407
 8634TIP3   OH247316   4.859   0.128  14.210  0.1862  0.5087 -0.0067
 8634TIP3    H147317   4.845   0.093  14.298 -0.3383  0.9942  0.1081
 8634TIP3    H247318   4.812   0.068  14.152  0.2686  0.3626  0.0807
 8635TIP3   OH247319   4.280   6.105  15.624 -0.8585  0.2844  0.1507
 8635TIP3    H147320   4.282   6.201  15.625 -1.2823  0.3182 -0.8401
 8635TIP3    H247321   4.266   6.083  15.532 -2.4461 -0.6815  0.5941
 8636TIP3   OH247322   4.895   4.076   4.732 -0.5314  0.1451 -0.0300
 8636TIP3    H147323   4.801   4.063   4.740 -0.3929 -0.3598  0.8164
 8636TIP3    H247324   4.904   4.145   4.667 -1.5684  1.8483  1.6005
 8637TIP3   OH247325   0.469   4.859   1.542 -0.1835 -0.3396  0.0735
 8637TIP3    H147326   0.398   4.912   1.579 -1.1020 -1.8855  0.5523
 8637TIP3    H247327   0.439   4.837   1.454  0.4743  0.4553 -0.3515
 8638TIP3   OH247328   5.547   3.669  15.721  0.5707  0.3710  0.2106
 8638TIP3    H147329   5.586   3.688  15.806 -0.9142 -0.1944  1.0566
 8638TIP3    H247330   5.621   3.659  15.662  1.5738  2.5667  1.0363
 8639TIP3   OH247331   2.784   5.375   5.942  0.2281 -0.4648 -0.6190
 8639TIP3    H147332   2.828   5.455   5.969  0.0234 -0.1142 -1.3321
 8639TIP3    H247333   2.786   5.376   5.847 -1.9703 -0.0545 -0.7082
 8640TIP3   OH247334   6.764   4.079   4.880 -0.2694  0.3920 -0.7228
 8640TIP3    H147335   6.813   4.000   4.857 -0.6844 -0.1774  0.2980
 8640TIP3    H247336   6.830   4.140   4.912 -0.2297 -0.4627  0.8939
 8641TIP3   OH247337   5.525   3.652  12.787  0.3472 -0.1237 -0.5736
 8641TIP3    H147338   5.534   3.562  12.755  1.9562 -0.2158  0.0887
 8641TIP3    H247339   5.557   3.649  12.877 -0.3733  0.9459 -0.2757
 8642TIP3   OH247340   4.213   1.580  10.580 -0.3794  0.0653  0.0026
 8642TIP3    H147341   4.244   1.514  10.518 -0.0411 -0.7663  1.0202
 8642TIP3    H247342   4.292   1.629  10.604 -0.6336  0.8359 -0.7574
 8643TIP3   OH247343   5.705   2.894   6.202  0.1045  0.8345 -0.2044
 8643TIP3    H147344   5.788   2.847   6.213  0.0185  0.7215 -0.0479
 8643TIP3    H247345   5.662   2.888   6.287 -0.8450 -0.5953 -0.7720
 8644TIP3   OH247346   3.818   2.533   2.353 -0.2120  0.1421 -0.1301
 8644TIP3    H147347   3.735   2.570   2.383 -0.4470 -0.2283 -0.3117
 8644TIP3    H247348   3.795   2.485   2.273  0.5282  1.6963 -1.2897
 8645TIP3   OH247349   3.067   6.582  13.957  0.1644  0.1378 -0.1950
 8645TIP3    H147350   2.982   6.585  13.914  1.3002  1.7625 -2.4396
 8645TIP3    H247351   3.080   6.670  13.993  1.2448  0.1587 -0.6001
 8646TIP3   OH247352   3.132   2.514   0.238  0.0958  0.7671  0.3096
 8646TIP3    H147353   3.222   2.510   0.206  0.0070 -2.6177  0.3470
 8646TIP3    H247354   3.140   2.524   0.333  0.5235 -2.7841  0.7012
 8647TIP3   OH247355   3.890   0.007  16.638  0.2855 -0.4528  0.2725
 8647TIP3    H147356   3.807   0.050  16.615  0.2727 -0.0700  1.0098
 8647TIP3    H247357   3.868  -0.086  16.644  0.1396 -0.4732 -0.5646
 8648TIP3   OH247358   5.323   6.772  11.777 -0.8705  0.0744  0.4649
 8648TIP3    H147359   5.280   6.839  11.830 -0.9442  1.4027 -1.2625
 8648TIP3    H247360   5.342   6.815  11.694 -0.5640 -1.9349 -0.5265
 8649TIP3   OH247361   1.179   0.779  12.067  0.3341 -0.2985  0.1298
 8649TIP3    H147362   1.169   0.799  11.974  0.3146  0.1200  0.2187
 8649TIP3    H247363   1.089   0.771  12.099  0.2886  1.4309  0.5017
 8650TIP3   OH247364   3.722   4.232   6.574 -0.1951 -1.2326  0.3532
 8650TIP3    H147365   3.749   4.141   6.568  0.6306 -0.8526 -2.3594
 8650TIP3    H247366   3.783   4.279   6.517 -2.4520  0.5762 -0.6358
 8651TIP3   OH247367   6.426   3.076  14.504 -0.3425 -0.0931 -0.0122
 8651TIP3    H147368   6.466   2.993  14.531 -0.8900 -0.5176 -0.4815
 8651TIP3    H247369   6.376   3.104  14.580  0.5633  0.2546  0.4501
 8652TIP3   OH247370   4.634   6.532   3.725 -0.5290 -0.3053  0.4197
 8652TIP3    H147371   4.661   6.610   3.677 -1.3713  0.7831  1.6908
 8652TIP3    H247372   4.546   6.513   3.692 -0.5971 -0.3121  0.6056
 8653TIP3   OH247373   5.017   5.222  15.650  0.0703 -0.2471 -0.2175
 8653TIP3    H147374   4.998   5.207  15.743  1.7406  2.2370  0.5908
 8653TIP3    H247375   5.090   5.162  15.631  1.3143  0.9151  0.7647
 8654TIP3   OH247376   6.318   3.268   3.288 -0.1854  0.0013  0.3737
 8654TIP3    H147377   6.378   3.339   3.265  1.0785 -1.5227 -1.2127
 8654TIP3    H247378   6.257   3.264   3.214 -1.0130  0.2466  1.0431
 8655TIP3   OH247379   4.142   5.362  14.899 -0.0550 -0.1702 -0.0643
 8655TIP3    H147380   4.105   5.397  14.818  0.3812 -0.0713 -0.2232
 8655TIP3    H247381   4.229   5.332  14.874 -0.3525 -1.1973  0.1112
 8656TIP3   OH247382   1.350   4.835  13.146  0.6708  0.4064  0.8834
 8656TIP3    H147383   1.404   4.901  13.103  1.2051 -0.1177  0.7453
 8656TIP3    H247384   1.362   4.850  13.239 -0.4957  1.5533  0.8673
 8657TIP3   OH247385   2.945   4.155  13.063 -0.2811 -0.4229 -0.1169
 8657TIP3    H147386   2.862   4.168  13.017  0.3749 -0.6590 -1.3624
 8657TIP3    H247387   2.957   4.236  13.113  0.5631  1.1854 -2.8270
 8658TIP3   OH247388   2.058   5.204   1.392  0.3978 -0.2556 -0.4026
 8658TIP3    H147389   1.986   5.220   1.454  0.5406  0.1437 -0.3378
 8658TIP3    H247390   2.072   5.109   1.396 -1.6422 -0.6619 -2.1200
 8659TIP3   OH247391   3.082   5.497  14.390 -0.1123  0.2389  0.1115
 8659TIP3    H147392   3.000   5.492  14.342  0.6776 -0.5365 -1.2147
 8659TIP3    H247393   3.063   5.459  14.476 -1.6859  2.1484  0.6203
 8660TIP3   OH247394   2.302   3.928   1.781 -0.4088 -0.5286 -0.2035
 8660TIP3    H147395   2.256   3.857   1.826 -0.0549 -0.6667 -0.0516
 8660TIP3    H247396   2.259   3.935   1.696 -1.1529 -0.2001  0.1967
 8661TIP3   OH247397   0.452   0.111  15.138 -0.0969  0.7286 -0.0289
 8661TIP3    H147398   0.472   0.190  15.086 -1.1258  0.0350 -1.5126
 8661TIP3    H247399   0.460   0.140  15.229 -2.6045  3.1508 -0.4899
 8662TIP3   OH247400   0.370   0.402   3.406 -0.5925  0.4074 -0.4363
 8662TIP3    H147401   0.308   0.377   3.338  1.3459 -0.9797 -1.7662
 8662TIP3    H247402   0.385   0.322   3.456 -1.2729  1.1849  1.0737
 8663TIP3   OH247403   3.070   3.223   4.330 -0.6071  0.0487 -0.3004
 8663TIP3    H147404   3.061   3.173   4.410  0.7209 -0.5548 -0.5097
 8663TIP3    H247405   3.112   3.305   4.357 -2.5652  0.9838  0.0067
 8664TIP3   OH247406   0.876   0.041  15.940 -0.3823  0.1550  0.4595
 8664TIP3    H147407   0.822   0.069  15.867  0.7540  1.0571 -0.0559
 8664TIP3    H247408   0.818   0.044  16.016 -1.8415 -1.7486 -0.5480
 8665TIP3   OH247409   0.944   5.176  13.724  0.0146  0.7273 -0.1501
 8665TIP3    H147410   0.932   5.258  13.772  0.2662  0.5242  0.2603
 8665TIP3    H247411   1.017   5.132  13.768 -0.5844 -0.0488  0.0769
 8666TIP3   OH247412   2.268   0.393  11.568 -0.6379 -0.1081  0.3982
 8666TIP3    H147413   2.268   0.309  11.614 -1.1552 -0.2402  0.1624
 8666TIP3    H247414   2.263   0.458  11.637  1.1730 -0.2204  0.6561
 8667TIP3   OH247415   1.934   3.594  12.086  0.2077 -0.3566  0.1777
 8667TIP3    H147416   1.848   3.595  12.044  0.0156 -0.1867  0.5802
 8667TIP3    H247417   1.953   3.501  12.100  0.2639 -0.4124 -0.2680
 8668TIP3   OH247418   5.702   3.202  16.918  0.4256  0.0650  0.3163
 8668TIP3    H147419   5.697   3.117  16.964 -2.5695  0.6776  1.2388
 8668TIP3    H247420   5.703   3.267  16.989  0.2457  0.8958 -0.4434
 8669TIP3   OH247421   2.990   0.198   5.828 -0.6267 -0.5956 -0.1107
 8669TIP3    H147422   3.055   0.154   5.884 -2.0036 -1.1499  1.0730
 8669TIP3    H247423   2.915   0.212   5.885 -1.0299  1.3462 -1.0887
 8670TIP3   OH247424   5.208   0.993  11.170 -0.0879 -0.2663  0.3979
 8670TIP3    H147425   5.302   0.976  11.174  0.0078  0.4341  1.3048
 8670TIP3    H247426   5.173   0.921  11.118  0.7397 -1.3781  1.3602
 8671TIP3   OH247427   1.295   0.430   5.032 -0.4374  0.9042 -1.0971
 8671TIP3    H147428   1.216   0.405   4.984 -0.5453 -1.8778  0.4193
 8671TIP3    H247429   1.364   0.375   4.995 -0.5856 -1.5242  2.0621
 8672TIP3   OH247430   0.336   0.803  15.756 -0.5301 -0.2068 -0.2556
 8672TIP3    H147431   0.401   0.873  15.752 -0.8171  0.0979  0.3178
 8672TIP3    H247432   0.317   0.782  15.664 -1.0226  1.0080 -0.4356
 8673TIP3   OH247433   2.895   2.286   5.328  0.6665  0.0921  0.3538
 8673TIP3    H147434   2.964   2.253   5.271  0.2204 -0.1135 -0.0781
 8673TIP3    H247435   2.927   2.371   5.359  1.1508 -0.0463  0.2384
 8674TIP3   OH247436   5.560   0.504  15.480 -0.3187  0.3965  0.1323
 8674TIP3    H147437   5.516   0.529  15.562  0.0241  1.5814 -0.0275
 8674TIP3    H247438   5.615   0.580  15.459 -0.3735  0.0794 -1.1692
 8675TIP3   OH247439   3.863   2.249  15.846 -0.1773  0.1197 -0.0530
 8675TIP3    H147440   3.873   2.155  15.861 -2.4058  0.2569  2.7554
 8675TIP3    H247441   3.933   2.289  15.897  0.1159  0.0413 -0.3905
 8676TIP3   OH247442   5.268   2.085   5.279 -0.0223  0.5643  0.1048
 8676TIP3    H147443   5.177   2.060   5.294  0.3764 -0.5519  0.7161
 8676TIP3    H247444   5.294   2.131   5.359 -0.9240  3.5255 -1.2379
 8677TIP3   OH247445   3.667   5.255   4.654 -0.7603  0.1883  0.4334
 8677TIP3    H147446   3.573   5.236   4.655 -0.6632 -0.5426 -1.5475
 8677TIP3    H247447   3.709   5.169   4.649 -0.0357  0.5470  0.2885
 8678TIP3   OH247448   5.425   3.774   5.414  0.1626  0.3306 -0.9685
 8678TIP3    H147449   5.367   3.829   5.465  1.8315  1.5028 -0.2852
 8678TIP3    H247450   5.412   3.802   5.323 -2.3857 -1.3611 -1.1822
 8679TIP3   OH247451   4.383   3.723   3.596  0.2898 -0.0568 -0.7162
 8679TIP3    H147452   4.378   3.641   3.547 -0.4108 -0.7724  0.5225
 8679TIP3    H247453   4.315   3.715   3.663  0.6439  1.2695 -0.1846
 8680TIP3   OH247454   2.321   6.769   6.636 -0.1307  0.1312  0.1031
 8680TIP3    H147455   2.249   6.816   6.594 -1.4646 -0.0806  2.0825
 8680TIP3    H247456   2.289   6.679   6.645  0.1099  0.1798  1.5825
 8681TIP3   OH247457   4.555   3.955  14.696  0.2549 -0.3903  0.8335
 8681TIP3    H147458   4.517   3.868  14.712 -0.3505  0.0857  2.0803
 8681TIP3    H247459   4.588   3.982  14.782  0.2377  0.7068  0.4928
 8682TIP3   OH247460   6.489   4.543  11.701  0.1096 -0.5167  0.4957
 8682TIP3    H147461   6.559   4.543  11.766  0.0910 -0.8214  0.5165
 8682TIP3    H247462   6.415   4.583  11.745  0.2678 -0.2028  0.4783
 8683TIP3   OH247463   2.627   5.349   1.081  0.6303 -0.2000 -0.2747
 8683TIP3    H147464   2.599   5.339   1.172  1.3337 -0.6353 -0.1034
 8683TIP3    H247465   2.722   5.343   1.084  0.7579  1.3243 -0.8457
 8684TIP3   OH247466   3.332   4.139  17.061  0.1077 -0.4129 -0.4893
 8684TIP3    H147467   3.328   4.130  17.156  0.7997  1.3965 -0.2687
 8684TIP3    H247468   3.424   4.120  17.039  0.0586 -0.3516 -0.7451
 8685TIP3   OH247469   5.397   1.241   2.121  0.3730  0.1094 -0.1870
 8685TIP3    H147470   5.346   1.322   2.132  1.5301  0.6220  1.6929
 8685TIP3    H247471   5.340   1.173   2.157  0.6408  0.5540  1.1209
 8686TIP3   OH247472   3.250   2.070   0.773 -0.2250  0.5888  0.2108
 8686TIP3    H147473   3.261   2.155   0.814 -0.5848  1.1140 -0.7654
 8686TIP3    H247474   3.191   2.022   0.831  0.3018  0.8455  0.9730
 8687TIP3   OH247475   2.687   5.771  13.626 -0.0183  0.2514  0.3982
 8687TIP3    H147476   2.654   5.842  13.571 -0.0854  0.3612  0.5801
 8687TIP3    H247477   2.781   5.770  13.609 -0.1856 -0.4345 -0.5588
 8688TIP3   OH247478   3.045   6.006  14.362 -0.5770  0.7890 -0.0747
 8688TIP3    H147479   3.106   5.932  14.364  0.8445  1.9304 -0.4525
 8688TIP3    H247480   2.971   5.975  14.310 -1.1112 -1.2090  1.7961
 8689TIP3   OH247481   5.158   6.211  16.006 -0.3298  0.3226 -0.6882
 8689TIP3    H147482   5.217   6.271  15.961  0.4391  0.2678  0.2276
 8689TIP3    H247483   5.158   6.241  16.097 -0.9453 -0.2764 -0.4881
 8690TIP3   OH247484   6.291   4.014  16.912 -0.1153  0.1628  0.4699
 8690TIP3    H147485   6.351   4.081  16.945  0.3487 -0.5491  1.0902
 8690TIP3    H247486   6.349   3.944  16.881 -0.5780  0.4047 -0.9547
 8691TIP3   OH247487   1.539   5.857  14.658 -0.4542  0.1693  0.5735
 8691TIP3    H147488   1.589   5.828  14.734  0.5319  1.7040  0.5423
 8691TIP3    H247489   1.598   5.841  14.584 -0.5141  0.8008  0.3901
 8692TIP3   OH247490   6.768   1.153   6.552 -0.3349 -0.1979  0.0175
 8692TIP3    H147491   6.848   1.167   6.602 -1.0495  0.2760  1.0485
 8692TIP3    H247492   6.793   1.172   6.461 -0.0108  2.8806  0.7012
 8693TIP3   OH247493   3.657   0.259  12.610 -0.0791 -0.1257  0.3048
 8693TIP3    H147494   3.750   0.241  12.591 -0.2345  1.1699 -1.7335
 8693TIP3    H247495   3.612   0.177  12.587  0.0987  0.4804 -2.3313
 8694TIP3   OH247496   0.660   0.292   3.404  0.0215  0.5268  0.4963
 8694TIP3    H147497   0.600   0.305   3.477 -1.2842  0.2846 -0.5141
 8694TIP3    H247498   0.658   0.198   3.387  0.6467  0.5254  0.4319
 8695TIP3   OH247499   1.916   3.780  10.319 -0.1819 -0.0721 -0.2871
 8695TIP3    H147500   1.876   3.861  10.348 -1.0489 -1.2220  1.8416
 8695TIP3    H247501   1.843   3.719  10.309  0.5986 -0.9945 -0.4702
 8696TIP3   OH247502   1.615   0.714   5.160 -0.3036 -0.1578 -0.3535
 8696TIP3    H147503   1.640   0.622   5.165  1.1009  0.1969 -0.5316
 8696TIP3    H247504   1.554   0.719   5.086 -0.1334 -0.8913 -0.5456
 8697TIP3   OH247505   6.731   6.061  12.017 -0.0739 -0.0075  0.8666
 8697TIP3    H147506   6.658   6.094  12.069 -1.9096 -3.7496  0.8076
 8697TIP3    H247507   6.783   6.010  12.080  2.1717  2.0455  0.7481
 8698TIP3   OH247508   2.476   6.441   5.854  0.3170  0.2763  0.2512
 8698TIP3    H147509   2.510   6.355   5.831  1.4258  0.4802  1.1222
 8698TIP3    H247510   2.534   6.473   5.923 -0.7727  1.2413  0.7411
 8699TIP3   OH247511   6.239   2.056  10.909 -0.0326 -0.4704  0.5640
 8699TIP3    H147512   6.261   2.122  10.844 -2.3159  0.6405  0.8775
 8699TIP3    H247513   6.264   1.973  10.868  0.6808  0.3960 -0.7935
 8700TIP3   OH247514   5.974   2.768  14.066 -0.4354  0.4915  0.6551
 8700TIP3    H147515   5.904   2.828  14.092 -0.4696  0.0199  1.6938
 8700TIP3    H247516   6.023   2.752  14.147  1.2850  1.3319 -0.1820
 8701TIP3   OH247517   6.532   1.511  14.164 -0.3582  0.0831 -0.7897
 8701TIP3    H147518   6.526   1.495  14.258  0.7772 -0.1414 -0.7428
 8701TIP3    H247519   6.498   1.431  14.124  0.7257 -0.5009 -0.5622
 8702TIP3   OH247520   6.149   0.056  12.783 -0.2251  0.3754  0.5018
 8702TIP3    H147521   6.138   0.014  12.868  0.6116  0.2490  0.5501
 8702TIP3    H247522   6.072   0.113  12.774 -0.3944  0.2715  1.2730
 8703TIP3   OH247523   1.901   5.770  15.298 -0.1331  0.2388 -0.2157
 8703TIP3    H147524   1.990   5.758  15.331  0.6334 -0.8806 -2.5786
 8703TIP3    H247525   1.875   5.856  15.331  1.2045 -0.1170  1.8547
 8704TIP3   OH247526   4.208   3.068   5.862  0.1600  0.0900 -0.2368
 8704TIP3    H147527   4.210   3.062   5.958 -0.1255 -0.0021 -0.2367
 8704TIP3    H247528   4.161   2.990   5.834  3.7113 -1.9899 -0.6732
 8705TIP3   OH247529   2.925   0.453  12.281  0.5588 -0.0513 -0.1884
 8705TIP3    H147530   2.955   0.368  12.312 -0.2481 -0.3986 -0.3484
 8705TIP3    H247531   2.842   0.468  12.327  0.5326  0.4898 -0.4086
 8706TIP3   OH247532   0.765   2.827   4.735  0.2302  0.0647 -0.5117
 8706TIP3    H147533   0.840   2.777   4.767 -0.4224  0.1658  1.1929
 8706TIP3    H247534   0.769   2.910   4.781 -0.7828  0.1663 -0.5923
 8707TIP3   OH247535   0.157   6.149  11.176 -0.1649 -0.7268  0.1119
 8707TIP3    H147536   0.178   6.207  11.249  1.2230  0.3192 -1.0892
 8707TIP3    H247537   0.118   6.206  11.110  1.8842 -0.9668 -1.3747
 8708TIP3   OH247538   3.184   0.306   2.920  0.1406  0.2836  0.5347
 8708TIP3    H147539   3.250   0.375   2.930  0.3717  0.0001  0.9924
 8708TIP3    H247540   3.121   0.324   2.990  0.9692 -0.8277  1.5886
 8709TIP3   OH247541   4.131   1.147  14.336 -0.1453 -0.4004 -0.4714
 8709TIP3    H147542   4.099   1.213  14.274  0.2201  1.7157  1.5261
 8709TIP3    H247543   4.183   1.197  14.399  1.2794 -2.8135  0.3250
 8710TIP3   OH247544   5.561   6.720  14.856  0.3299 -0.2688  0.1032
 8710TIP3    H147545   5.578   6.724  14.762  1.0555 -1.5975  0.1617
 8710TIP3    H247546   5.467   6.703  14.864 -0.0577  1.5505 -0.3346
 8711TIP3   OH247547   4.675   1.269   3.114  0.0491 -0.0291  0.2859
 8711TIP3    H147548   4.766   1.291   3.091  0.5380 -2.2527 -0.0686
 8711TIP3    H247549   4.633   1.251   3.030 -0.9036  1.5346  0.4029
 8712TIP3   OH247550   5.055   2.698  14.193 -0.3554 -0.3005 -1.0885
 8712TIP3    H147551   4.990   2.737  14.251 -0.3689 -0.0204 -1.2941
 8712TIP3    H247552   5.132   2.685  14.249 -1.1795 -2.3470 -0.3675
 8713TIP3   OH247553   4.991   0.427  13.980 -0.1552 -0.5184 -0.1275
 8713TIP3    H147554   4.898   0.408  13.965 -1.1888  2.3259  2.3156
 8713TIP3    H247555   5.008   0.507  13.931  0.9134 -0.7485 -0.1480
 8714TIP3   OH247556   6.759   6.301  11.051 -0.3053  0.3727 -0.1643
 8714TIP3    H147557   6.670   6.314  11.084 -0.0726  1.7470 -0.0646
 8714TIP3    H247558   6.747   6.259  10.966 -0.9851 -0.9593  0.5718
 8715TIP3   OH247559   0.005   0.846  11.880  0.2178  0.2268 -0.5122
 8715TIP3    H147560   0.064   0.920  11.870 -0.6894  0.7676 -2.1287
 8715TIP3    H247561  -0.081   0.880  11.855 -0.3190 -1.1960 -0.6598
 8716TIP3   OH247562   6.701   3.172  11.799  0.0058 -0.1885  0.2879
 8716TIP3    H147563   6.665   3.142  11.883 -1.6321 -1.0981 -0.7046
 8716TIP3    H247564   6.751   3.097  11.767 -0.9992 -0.5547 -0.4512
 8717TIP3   OH247565   0.542   1.819   5.014  0.1471 -0.0909 -0.3627
 8717TIP3    H147566   0.451   1.792   5.024  0.0151 -0.0773 -1.4111
 8717TIP3    H247567   0.539   1.914   5.012 -0.0371 -0.1174 -2.1886
 8718TIP3   OH247568   0.871   5.849   3.585  0.0208  0.3443  0.2106
 8718TIP3    H147569   0.947   5.792   3.569 -1.6443 -1.4751 -1.5391
 8718TIP3    H247570   0.886   5.925   3.528  0.1422 -0.4097 -0.7947
 8719TIP3   OH247571   1.129   4.489   3.864  0.3266 -0.3248  0.2955
 8719TIP3    H147572   1.206   4.480   3.809 -0.6293 -0.1107 -1.1059
 8719TIP3    H247573   1.068   4.540   3.811 -0.1421  0.9814  2.0441
 8720TIP3   OH247574   6.608   2.078   1.872  0.4128 -0.3361 -0.0890
 8720TIP3    H147575   6.546   2.085   1.800 -0.5252  0.5385  0.8001
 8720TIP3    H247576   6.676   2.142   1.851 -0.2983  0.5325  0.2366
 8721TIP3   OH247577   4.352   1.555  12.284  0.0911  0.0068  0.5085
 8721TIP3    H147578   4.307   1.538  12.367  1.3498  0.8090  1.3653
 8721TIP3    H247579   4.363   1.468  12.245  0.2440 -0.4617  1.5825
 8722TIP3   OH247580   1.078   3.186  13.409 -0.1123  0.4344  0.0286
 8722TIP3    H147581   0.994   3.141  13.409 -0.0140  0.2376  1.2943
 8722TIP3    H247582   1.061   3.270  13.452  0.0066  1.0479 -1.0969
 8723TIP3   OH247583   6.193   0.176  11.656  0.3321 -0.1388  0.3748
 8723TIP3    H147584   6.148   0.132  11.584  2.9924 -1.2183 -0.6957
 8723TIP3    H247585   6.198   0.268  11.629  2.5811 -0.7675 -1.5855
 8724TIP3   OH247586   4.236   2.554   3.901 -0.3774  0.7908  0.2176
 8724TIP3    H147587   4.304   2.599   3.952  1.4929 -2.1300  0.4183
 8724TIP3    H247588   4.239   2.463   3.931 -1.6717 -0.2525 -2.5871
 8725TIP3   OH247589   2.890   4.069   3.843  0.1437  0.2060 -0.5392
 8725TIP3    H147590   2.942   4.071   3.763  1.0462  0.7098  0.0556
 8725TIP3    H247591   2.812   4.019   3.820 -0.4721  1.9265 -2.2701
 8726TIP3   OH247592   5.745   6.135  13.880  0.0955  0.3031  0.3739
 8726TIP3    H147593   5.807   6.148  13.809 -0.5190 -0.6822 -0.3574
 8726TIP3    H247594   5.746   6.040  13.896 -1.1351  0.2908  0.4176
 8727TIP3   OH247595   0.472   3.082   3.611 -0.0235 -0.3549  0.6253
 8727TIP3    H147596   0.427   3.072   3.527 -1.9304  0.2429  1.5478
 8727TIP3    H247597   0.429   3.018   3.668 -0.5797  1.0821  1.8515
 8728TIP3   OH247598   0.147   2.584   1.117  0.1336  0.4454 -0.1412
 8728TIP3    H147599   0.132   2.639   1.194  3.0981 -2.3884  2.5946
 8728TIP3    H247600   0.068   2.531   1.109 -0.5899  1.4338  0.3272
 8729TIP3   OH247601   1.544   3.341   3.935  0.5051  0.4033 -0.5092
 8729TIP3    H147602   1.620   3.399   3.925  0.3179  0.7033 -0.2112
 8729TIP3    H247603   1.520   3.318   3.845  2.0760 -1.1927 -0.5266
 8730TIP3   OH247604   4.498   4.618   1.256 -0.2734 -0.0381  0.0524
 8730TIP3    H147605   4.411   4.605   1.294  0.3579 -1.7034  0.9660
 8730TIP3    H247606   4.542   4.678   1.316  0.2335 -1.5625  1.2477
 8731TIP3   OH247607   2.978   4.633  12.592  0.1173  0.2293  0.1285
 8731TIP3    H147608   3.023   4.707  12.551 -2.5753  1.4118 -0.8584
 8731TIP3    H247609   2.946   4.668  12.675  0.5251 -0.4157  0.5581
 8732TIP3   OH247610   2.000   3.566  15.302 -0.2061 -0.2346  0.0663
 8732TIP3    H147611   2.063   3.628  15.336 -2.1518  1.6929  0.2784
 8732TIP3    H247612   2.011   3.488  15.355  2.3059 -0.1202 -0.2354
 8733TIP3   OH247613   1.077   6.644  15.833  0.4024 -0.2108 -0.3174
 8733TIP3    H147614   1.021   6.711  15.871  1.1843  2.2069 -3.1956
 8733TIP3    H247615   1.024   6.603  15.765  0.6751 -0.9204 -0.1058
 8734TIP3   OH247616   2.520   2.957   2.278 -0.3332  0.1644  0.8934
 8734TIP3    H147617   2.481   2.996   2.356 -2.1252 -0.8504  0.5401
 8734TIP3    H247618   2.481   2.869   2.273  1.2294 -0.5003 -0.0575
 8735TIP3   OH247619   3.548   1.174  13.260 -0.4510 -0.0482  0.4822
 8735TIP3    H147620   3.643   1.163  13.258 -0.6477 -1.6897 -0.2665
 8735TIP3    H247621   3.532   1.259  13.218  0.4352 -1.4079 -2.6780
 8736TIP3   OH247622   5.175   0.592  14.357  0.4194 -0.6107  0.1761
 8736TIP3    H147623   5.141   0.636  14.279  2.0881  0.4995  0.0620
 8736TIP3    H247624   5.152   0.500  14.345 -1.1691 -0.1369 -0.6217
 8737TIP3   OH247625   0.771   1.576   5.907  0.0258 -0.8883 -0.3670
 8737TIP3    H147626   0.722   1.641   5.958  0.1792 -2.0298  1.2818
 8737TIP3    H247627   0.835   1.628   5.857 -1.8820  0.4852 -1.4454
 8738TIP3   OH247628   1.912   0.816  16.210 -0.3587  0.1836 -0.4765
 8738TIP3    H147629   1.828   0.789  16.174 -0.1232 -0.4951 -0.5376
 8738TIP3    H247630   1.971   0.742  16.192 -0.4796 -0.6243  2.1396
 8739TIP3   OH247631   6.000   1.570   1.406  0.6358  0.1079 -0.3912
 8739TIP3    H147632   6.010   1.475   1.406 -0.1966  0.0137 -0.5177
 8739TIP3    H247633   5.916   1.585   1.363 -0.3220  0.7634  1.6163
 8740TIP3   OH247634   0.212   4.452  14.255 -0.6777  0.8683  0.1435
 8740TIP3    H147635   0.293   4.501  14.241  0.1547 -0.5453 -0.0601
 8740TIP3    H247636   0.149   4.493  14.195  0.5598  0.3976 -1.5227
 8741TIP3   OH247637   1.992   5.175  11.413 -0.1338 -0.5090 -0.3082
 8741TIP3    H147638   2.048   5.102  11.440 -0.7202  0.3853  3.6049
 8741TIP3    H247639   1.912   5.134  11.382 -0.1996 -1.5699  1.2148
 8742TIP3   OH247640   5.402   4.041   5.819 -0.0223  0.0521  0.2208
 8742TIP3    H147641   5.332   3.997   5.866  0.4015 -0.4813  0.3513
 8742TIP3    H247642   5.481   4.021   5.869  0.3592 -0.1173 -0.4503
 8743TIP3   OH247643   5.248   2.172  16.312 -0.8291 -0.1047 -0.2988
 8743TIP3    H147644   5.336   2.135  16.317 -0.5752  0.4531 -0.6510
 8743TIP3    H247645   5.255   2.258  16.351 -0.6407  0.9863 -2.6547
 8744TIP3   OH247646   1.717   1.513  17.146 -0.0863 -0.2397 -0.3120
 8744TIP3    H147647   1.724   1.419  17.134  0.4274 -0.1781 -0.4869
 8744TIP3    H247648   1.802   1.548  17.119 -0.7590  0.4126 -1.6475
 8745TIP3   OH247649   1.277   2.550  15.960  0.2866 -0.1577 -0.5573
 8745TIP3    H147650   1.291   2.583  15.871  2.9903  0.4618  0.0562
 8745TIP3    H247651   1.233   2.623  16.005  1.0768  0.4538 -0.7565
 8746TIP3   OH247652   4.371   0.373   4.058  0.4078  0.0375  0.3238
 8746TIP3    H147653   4.276   0.380   4.061  0.4724  0.9339  0.5494
 8746TIP3    H247654   4.388   0.283   4.031 -0.5015 -0.1454  0.3449
 8747TIP3   OH247655   5.948   3.321   4.749  0.1541 -0.7095  0.3527
 8747TIP3    H147656   5.895   3.258   4.797 -0.2107  1.2101  2.5253
 8747TIP3    H247657   6.004   3.361   4.816  0.3035  1.3448 -0.9678
 8748TIP3   OH247658   1.441   5.100   4.218  0.2004 -0.4573 -0.0319
 8748TIP3    H147659   1.473   5.015   4.187 -0.4980 -0.6818 -0.1437
 8748TIP3    H247660   1.379   5.128   4.151  0.9412  0.4644 -0.3316
 8749TIP3   OH247661   1.061   6.733  11.391 -0.0130  0.1563  0.2301
 8749TIP3    H147662   1.062   6.818  11.346  2.4357  0.3080  0.4859
 8749TIP3    H247663   0.969   6.713  11.403 -0.6859  3.8978  2.2290
 8750TIP3   OH247664   4.778   4.133   4.404  0.3811 -0.4689 -0.1120
 8750TIP3    H147665   4.723   4.123   4.482 -1.7765 -0.9897 -1.6680
 8750TIP3    H247666   4.846   4.195   4.431 -1.6001  1.0814  1.5438
 8751TIP3   OH247667   5.328   6.547   2.353 -0.5756  0.0965  0.4093
 8751TIP3    H147668   5.239   6.561   2.321 -1.4164 -0.0584  2.5668
 8751TIP3    H247669   5.385   6.574   2.281 -2.3563  1.6398 -0.4451
 8752TIP3   OH247670   0.736   1.053  15.565  0.0173 -0.1290 -0.4639
 8752TIP3    H147671   0.676   1.070  15.638  1.4020  0.4564  0.5442
 8752TIP3    H247672   0.678   1.045  15.489 -1.4047 -0.3135  0.6135
 8753TIP3   OH247673   0.232   5.185   1.111  0.5082 -0.4583 -0.4003
 8753TIP3    H147674   0.314   5.158   1.070  0.8000 -1.0666  0.5621
 8753TIP3    H247675   0.165   5.168   1.045  1.2366  0.8388 -1.5125
 8754TIP3   OH247676   3.043   2.322  14.272  0.4396  0.1595  0.1290
 8754TIP3    H147677   2.983   2.371  14.215 -1.3398  0.7520  2.4339
 8754TIP3    H247678   3.102   2.389  14.307  0.5432  0.0364  0.1901
 8755TIP3   OH247679   6.707   6.330   2.016  0.0541 -0.6640 -0.1748
 8755TIP3    H147680   6.793   6.290   2.004 -0.6391 -2.0739 -0.5551
 8755TIP3    H247681   6.664   6.320   1.930 -0.9903 -1.2231  0.4029
 8756TIP3   OH247682   5.565   1.937   4.222  0.3320 -0.2289 -0.2298
 8756TIP3    H147683   5.637   1.959   4.280 -0.2717 -0.1883  0.5116
 8756TIP3    H247684   5.486   1.947   4.276 -0.2347 -0.1605 -1.0584
 8757TIP3   OH247685   0.119   3.223  10.900  0.8255  0.4596 -0.6037
 8757TIP3    H147686   0.150   3.163  10.968 -0.0915  0.4127 -0.2173
 8757TIP3    H247687   0.193   3.281  10.883  0.9214  0.7446  0.7519
 8758TIP3   OH247688   3.577   2.416  16.566 -0.4927 -0.4830 -0.6670
 8758TIP3    H147689   3.567   2.477  16.639 -3.3710 -1.3060 -0.2964
 8758TIP3    H247690   3.546   2.332  16.601  1.0245 -1.5926 -1.9187
 8759TIP3   OH247691   5.899   5.554   3.381  0.0736 -0.7369  0.5577
 8759TIP3    H147692   5.904   5.493   3.308 -0.3321 -0.3576  0.2136
 8759TIP3    H247693   5.990   5.575   3.401  0.1604  0.2247 -0.7427
 8760TIP3   OH247694   5.952   0.394   3.256  0.3006 -0.1837 -0.4014
 8760TIP3    H147695   5.885   0.454   3.224  0.2935  0.1284  0.2029
 8760TIP3    H247696   5.930   0.379   3.348  2.1627  1.4373  0.3368
 8761TIP3   OH247697   5.287   0.829  13.885  0.0645  0.0569  0.6574
 8761TIP3    H147698   5.329   0.862  13.805  0.6113 -0.8221  0.5680
 8761TIP3    H247699   5.316   0.738  13.891 -0.2639  0.0102  1.6681
 8762TIP3   OH247700   2.488   6.485   4.485 -0.1230 -0.0357 -0.2530
 8762TIP3    H147701   2.406   6.471   4.436 -1.1013  1.7130  0.8534
 8762TIP3    H247702   2.467   6.457   4.574  1.8522 -3.8345 -0.8767
 8763TIP3   OH247703   5.724   3.108   2.338  0.2781  0.4148 -0.6147
 8763TIP3    H147704   5.646   3.102   2.284  1.5934  3.9933 -3.1092
 8763TIP3    H247705   5.705   3.178   2.401  0.5575 -0.4134  0.4112
 8764TIP3   OH247706   4.172   2.934  16.418  0.7010  0.2816 -0.5295
 8764TIP3    H147707   4.243   2.879  16.451 -0.0265  0.0936  0.7549
 8764TIP3    H247708   4.131   2.970  16.497 -2.4433 -1.9038 -1.1208
 8765TIP3   OH247709   3.321   2.913   5.387 -0.0076 -0.3345  0.2625
 8765TIP3    H147710   3.268   2.956   5.320  1.5038 -0.2797 -0.9240
 8765TIP3    H247711   3.282   2.825   5.395  0.1312 -0.5245 -1.0746
 8766TIP3   OH247712   3.658   5.505   5.770 -0.0751 -0.2619 -0.5060
 8766TIP3    H147713   3.664   5.493   5.865 -0.3504 -1.9622 -0.6929
 8766TIP3    H247714   3.625   5.422   5.737 -0.8399  0.6205 -2.0159
 8767TIP3   OH247715   0.406   4.163  11.251 -0.4630 -0.2007 -0.7695
 8767TIP3    H147716   0.321   4.207  11.254  0.1106  0.8606  1.2030
 8767TIP3    H247717   0.394   4.091  11.189 -3.2540 -1.0052  0.6299
 8768TIP3   OH247718   3.053   4.165   6.110  1.0153 -0.1931 -0.2131
 8768TIP3    H147719   3.060   4.147   6.204  1.0123 -1.0742 -0.3701
 8768TIP3    H247720   3.107   4.242   6.095 -0.1635  0.8545  0.7596
 8769TIP3   OH247721   5.822   6.473   0.660  0.3460  0.1757 -0.1954
 8769TIP3    H147722   5.732   6.488   0.632  0.2716  0.2867  0.0981
 8769TIP3    H247723   5.830   6.521   0.743  0.8683  0.6974 -0.5468
 8770TIP3   OH247724   0.033   6.773  17.094 -0.8732 -0.2438 -0.0113
 8770TIP3    H147725   0.085   6.697  17.071 -0.5709  0.2161 -0.8980
 8770TIP3    H247726  -0.053   6.756  17.055 -0.3469  0.5569 -1.5461
 8771TIP3   OH247727   0.554   2.005   4.267  0.6099 -0.0624  0.3925
 8771TIP3    H147728   0.643   2.014   4.233  0.2069  0.7506 -0.4576
 8771TIP3    H247729   0.532   1.912   4.254  0.9269 -0.0284 -0.4113
 8772TIP3   OH247730   1.998   2.327   1.423 -0.0206  0.0578  0.1914
 8772TIP3    H147731   1.969   2.372   1.344  0.6718  0.1153 -0.0312
 8772TIP3    H247732   1.978   2.235   1.407 -0.9561  0.2170  0.4312
 8773TIP3   OH247733   1.063   4.982  11.710 -0.2658 -0.0998 -0.2114
 8773TIP3    H147734   1.044   4.903  11.659  1.7127 -0.4278 -0.4791
 8773TIP3    H247735   1.112   4.951  11.785  1.7861  1.0004 -1.0457
 8774TIP3   OH247736   4.948   5.960  15.633  0.0002 -0.0239  0.0589
 8774TIP3    H147737   4.923   6.038  15.584  1.5303  1.0724  0.9863
 8774TIP3    H247738   4.932   5.982  15.724  1.1713 -0.4850  0.3914
 8775TIP3   OH247739   3.472   6.351  15.028 -0.4500 -0.0259  0.1316
 8775TIP3    H147740   3.401   6.360  15.092 -0.1608 -0.5632  0.5282
 8775TIP3    H247741   3.522   6.432  15.035  0.6549 -0.8223  1.8865
 8776TIP3   OH247742   2.575   0.259  16.850  0.9038 -0.6777  0.7587
 8776TIP3    H147743   2.484   0.287  16.860  0.8702 -0.8644  0.9963
 8776TIP3    H247744   2.617   0.286  16.932  0.9874 -0.8697  0.7814
 8777TIP3   OH247745   5.304   3.737  14.352 -0.5416 -0.3330  0.2328
 8777TIP3    H147746   5.282   3.680  14.279 -1.6702  0.6283 -0.1978
 8777TIP3    H247747   5.277   3.824  14.324  1.2482  0.4389  0.8498
 8778TIP3   OH247748   2.082   1.227  10.945  0.1867  0.5627 -0.3697
 8778TIP3    H147749   2.040   1.240  10.860  0.9221  1.9078 -0.5449
 8778TIP3    H247750   2.064   1.136  10.968  0.1238  0.1404 -2.0503
 8779TIP3   OH247751   0.842   4.194  11.166  0.1314 -0.1584 -0.0179
 8779TIP3    H147752   0.791   4.231  11.238 -0.6619  0.4520 -0.8842
 8779TIP3    H247753   0.858   4.268  11.107  1.1155 -0.5661 -0.2688
 8780TIP3   OH247754   3.816   2.887   0.990 -0.1722 -0.0449  0.2073
 8780TIP3    H147755   3.789   2.939   1.065  1.3801 -0.6243  1.1888
 8780TIP3    H247756   3.883   2.940   0.947  0.0349 -0.3939  0.1005
 8781TIP3   OH247757   3.085   0.887  15.695 -0.4228 -0.1866  0.4117
 8781TIP3    H147758   3.043   0.860  15.777  1.8240 -1.5785  1.1387
 8781TIP3    H247759   3.017   0.875  15.629 -1.1895 -2.4373  1.5584
 8782TIP3   OH247760   5.602   2.758  15.774  0.0030  0.6625  0.1550
 8782TIP3    H147761   5.535   2.708  15.726  0.0061  2.0231 -1.3305
 8782TIP3    H247762   5.556   2.836  15.804  0.4995  0.7600  0.6604
 8783TIP3   OH247763   4.097   1.162   2.596 -0.4105 -0.1332 -0.3340
 8783TIP3    H147764   4.008   1.167   2.562 -1.0048 -1.8548  0.9035
 8783TIP3    H247765   4.087   1.138   2.688  1.3164  0.2082 -0.0264
 8784TIP3   OH247766   0.802   3.206   0.722 -0.0870  0.3134  0.3014
 8784TIP3    H147767   0.767   3.278   0.670 -2.8483 -0.6120  0.7946
 8784TIP3    H247768   0.834   3.143   0.658  1.5863  1.6021 -0.1458
 8785TIP3   OH247769   6.735   5.359   2.490  0.0229  0.0617  0.1821
 8785TIP3    H147770   6.698   5.282   2.446 -1.1645  0.5377  0.3438
 8785TIP3    H247771   6.765   5.415   2.418 -1.6423  0.7018 -0.0414
 8786TIP3   OH247772   4.062   5.338  12.918  0.6612 -0.0152 -0.1742
 8786TIP3    H147773   4.123   5.361  12.988 -1.2593 -2.2156  2.3652
 8786TIP3    H247774   3.981   5.313  12.964 -1.3898  0.5508 -3.3030
 8787TIP3   OH247775   2.133   1.059   2.004  0.0913 -0.0331 -0.1122
 8787TIP3    H147776   2.226   1.074   1.986  0.0712  2.1714  1.4595
 8787TIP3    H247777   2.100   1.019   1.924  2.4909 -1.3613 -0.5111
 8788TIP3   OH247778   1.697   4.559  17.107  0.2404  0.1999  0.1571
 8788TIP3    H147779   1.729   4.501  17.038  0.2691  0.1769  0.1926
 8788TIP3    H247780   1.651   4.629  17.060 -1.0514 -0.6236  0.1957
 8789TIP3   OH247781   0.860   3.028  12.195 -0.1006 -0.1359 -0.0286
 8789TIP3    H147782   0.935   3.080  12.225  0.8956  0.8178 -3.8847
 8789TIP3    H247783   0.899   2.963  12.136 -2.0788 -1.2071 -0.1964
 8790TIP3   OH247784   4.132   3.170  17.114 -0.1810 -0.2980 -0.7124
 8790TIP3    H147785   4.082   3.238  17.069  2.0551  2.2174  0.4716
 8790TIP3    H247786   4.105   3.176  17.205  0.7322 -0.3440 -0.4318
 8791TIP3   OH247787   5.002   2.823   1.394  0.2754 -0.7283  0.1296
 8791TIP3    H147788   5.023   2.743   1.442  1.1919 -0.3907  0.2947
 8791TIP3    H247789   5.084   2.871   1.391 -0.3244  0.3032  0.2076
 8792TIP3   OH247790   5.451   1.831  11.473 -0.1544  0.1579 -0.2135
 8792TIP3    H147791   5.390   1.788  11.534  1.2102  0.4157  1.3726
 8792TIP3    H247792   5.425   1.800  11.387 -0.3382 -2.4415  0.7442
 8793TIP3   OH247793   0.342   3.719   3.172 -0.1167 -0.2107  0.4098
 8793TIP3    H147794   0.418   3.762   3.211 -0.3169  1.0354 -0.5440
 8793TIP3    H247795   0.378   3.639   3.133  0.7692  0.4888 -0.2432
 8794TIP3   OH247796   3.066   5.677   3.155 -0.2667  0.2427  0.2229
 8794TIP3    H147797   3.009   5.626   3.096  0.5352  0.6001 -0.8739
 8794TIP3    H247798   3.126   5.613   3.192 -0.3620  0.1127  0.1538
 8795TIP3   OH247799   4.786   2.472   4.701 -0.1638  0.2154  0.3060
 8795TIP3    H147800   4.748   2.409   4.763 -1.3547 -0.6515 -1.2664
 8795TIP3    H247801   4.818   2.418   4.629 -3.7606  1.4990 -2.4383
 8796TIP3   OH247802   0.674   2.364  13.999 -0.2520  0.0011  0.0823
 8796TIP3    H147803   0.666   2.382  14.093  1.6581 -0.4627  0.3687
 8796TIP3    H247804   0.648   2.445  13.956 -0.1610  0.5477  1.0447
 8797TIP3   OH247805   0.711   3.345   3.612  0.4934 -0.1344 -0.4787
 8797TIP3    H147806   0.793   3.381   3.578  0.2047  0.3927 -0.6243
 8797TIP3    H247807   0.718   3.355   3.707  1.0360 -1.0368 -0.4235
 8798TIP3   OH247808   1.762   1.426   6.526  0.1341  0.1305 -0.5020
 8798TIP3    H147809   1.764   1.515   6.493  1.5996  0.2182 -0.1841
 8798TIP3    H247810   1.695   1.427   6.595 -0.6599  0.6979 -1.2733
 8799TIP3   OH247811   2.501   0.310  11.733  0.0039 -0.2679  0.4983
 8799TIP3    H147812   2.540   0.395  11.754 -1.1226  0.2202  0.6889
 8799TIP3    H247813   2.444   0.291  11.808 -0.3964 -0.7955  0.0678
 8800TIP3   OH247814   3.776   6.312  14.766 -0.0164  1.1903  0.7265
 8800TIP3    H147815   3.867   6.303  14.795  0.0390 -2.0465 -0.2580
 8800TIP3    H247816   3.741   6.383  14.819  2.1567  0.2790  3.5137
 8801TIP3   OH247817   4.660   3.561  13.352 -0.4916 -0.5237  0.5446
 8801TIP3    H147818   4.589   3.615  13.385  0.9318  0.0510  2.7633
 8801TIP3    H247819   4.692   3.608  13.275  0.2674  1.4621  2.0276
 8802TIP3   OH247820   3.079   0.707  11.374  0.2879  0.0708 -0.1486
 8802TIP3    H147821   3.115   0.665  11.295  0.4124 -0.1658  0.0318
 8802TIP3    H247822   3.037   0.635  11.421 -1.8594  0.6136 -1.1520
 8803TIP3   OH247823   0.143   5.493   5.425  0.1495 -0.3212  0.3332
 8803TIP3    H147824   0.219   5.551   5.430 -1.3419  2.1007 -3.5058
 8803TIP3    H247825   0.070   5.546   5.456 -0.5379 -1.6449  1.0416
 8804TIP3   OH247826   5.562   3.454   5.128 -0.1706 -0.0918  0.4240
 8804TIP3    H147827   5.517   3.392   5.187  0.2290  0.3978  1.2582
 8804TIP3    H247828   5.508   3.457   5.050 -1.4894  0.3509  1.3488
 8805TIP3   OH247829   2.537   2.353  16.876 -0.0157 -0.3431 -0.2964
 8805TIP3    H147830   2.455   2.310  16.852 -0.8905  1.0850  0.0333
 8805TIP3    H247831   2.517   2.447  16.871  1.8308  0.0357 -0.9889
 8806TIP3   OH247832   5.830   1.574   3.120 -0.3362  0.3172  0.0303
 8806TIP3    H147833   5.801   1.509   3.056  1.7068 -0.0827 -0.5143
 8806TIP3    H247834   5.839   1.524   3.202 -0.6848  0.3335  0.0784
 8807TIP3   OH247835   3.560   0.534   6.627 -0.7774 -0.0319  0.1190
 8807TIP3    H147836   3.527   0.622   6.647 -2.5074 -0.5973 -0.1094
 8807TIP3    H247837   3.654   0.540   6.638 -0.7787  2.0958 -0.8081
 8808TIP3   OH247838   1.493   3.987   5.892  0.1712  0.1329 -0.6165
 8808TIP3    H147839   1.471   3.896   5.910 -1.9805  0.5421 -1.0352
 8808TIP3    H247840   1.587   3.986   5.873  0.0157 -2.1192 -1.4362
 8809TIP3   OH247841   6.019   4.214  10.679  0.0437  0.3149 -0.3030
 8809TIP3    H147842   5.938   4.164  10.667 -0.5576  1.1246  0.3272
 8809TIP3    H247843   5.993   4.305  10.662  0.3874  0.8166  1.7343
 8810TIP3   OH247844   4.094   0.430   0.740  0.0698 -0.5889 -0.1535
 8810TIP3    H147845   4.035   0.374   0.789 -0.0773 -0.8032 -0.5724
 8810TIP3    H247846   4.114   0.503   0.799 -1.2459 -0.1021 -0.2919
 8811TIP3   OH247847   3.626   4.997   6.175  0.4814  0.5162 -0.1234
 8811TIP3    H147848   3.537   5.002   6.208  0.9278  0.2677  1.1216
 8811TIP3    H247849   3.633   4.910   6.135  0.3161  0.3582  0.1989
 8812TIP3   OH247850   6.116   2.252  14.353  0.4770  0.0210  0.1192
 8812TIP3    H147851   6.198   2.293  14.380  1.7552 -0.7367 -2.4400
 8812TIP3    H247852   6.082   2.308  14.284 -1.6562  0.7923  1.7257
 8813TIP3   OH247853   2.812   0.569   3.410  0.7880 -0.3328  0.6941
 8813TIP3    H147854   2.789   0.606   3.325 -0.8066  0.1227  1.3111
 8813TIP3    H247855   2.891   0.616   3.437  0.4431  0.5558  0.1527
 8814TIP3   OH247856   2.608   4.160   4.749 -0.3132 -0.7723  0.2616
 8814TIP3    H147857   2.617   4.138   4.842  2.6297 -0.4578  0.1242
 8814TIP3    H247858   2.538   4.225   4.746 -0.7777 -1.1580  2.2168
 8815TIP3   OH247859   1.122   3.848   3.477 -0.0895  0.3607 -0.2192
 8815TIP3    H147860   1.051   3.912   3.479  0.1150  0.5666  0.8179
 8815TIP3    H247861   1.099   3.785   3.546 -0.2265 -0.6084 -1.1487
 8816TIP3   OH247862   2.127   0.490  13.330 -0.7853  0.1236 -0.3527
 8816TIP3    H147863   2.111   0.566  13.386  2.0054  0.3919  0.1520
 8816TIP3    H247864   2.159   0.526  13.248  1.8506 -0.4732  0.3480
 8817TIP3   OH247865   1.498   2.856   1.544 -0.2093 -0.3854 -0.0183
 8817TIP3    H147866   1.587   2.828   1.523  0.3828  0.6808  1.0466
 8817TIP3    H247867   1.487   2.938   1.496 -0.2890 -0.0436  0.5832
 8818TIP3   OH247868   0.940   1.656   5.124 -0.9807 -0.6367  0.9059
 8818TIP3    H147869   0.941   1.573   5.170 -2.2108  0.2094  2.4853
 8818TIP3    H247870   0.849   1.684   5.125 -0.4802  1.0776  1.0597
 8819TIP3   OH247871   6.427   0.582   1.517  0.3961 -0.2091 -0.1390
 8819TIP3    H147872   6.369   0.658   1.507  0.5418 -0.0633  0.1109
 8819TIP3    H247873   6.480   0.602   1.595  0.8226 -0.3110 -0.3993
 8820TIP3   OH247874   0.506   5.603   6.444 -0.1177 -0.1817  0.0889
 8820TIP3    H147875   0.422   5.590   6.487  0.0931  0.5295  0.7406
 8820TIP3    H247876   0.551   5.666   6.500  1.6718 -2.0928  0.8721
 8821TIP3   OH247877   4.170   4.008  13.678 -0.2507  0.5261  0.7529
 8821TIP3    H147878   4.250   4.050  13.710 -0.0569  0.4980  0.3194
 8821TIP3    H247879   4.101   4.071  13.698  0.2168  1.6987 -1.1193
 8822TIP3   OH247880   1.546   2.715   0.280  0.6994  0.0048 -0.6008
 8822TIP3    H147881   1.537   2.725   0.185  1.2818 -0.7985 -0.7463
 8822TIP3    H247882   1.635   2.746   0.298  0.0082  1.7527 -0.0778
 8823TIP3   OH247883   0.056   4.071  14.722  0.0652 -0.2195  0.3828
 8823TIP3    H147884   0.119   4.125  14.674  0.4597 -0.4584  0.6280
 8823TIP3    H247885  -0.002   4.134  14.763  2.2096  0.1725  2.9897
 8824TIP3   OH247886   1.136   4.216  16.827 -0.0848  0.9682 -0.1924
 8824TIP3    H147887   1.070   4.242  16.891 -1.6931 -0.8915 -1.0407
 8824TIP3    H247888   1.218   4.215  16.877 -1.2665 -0.2521  1.8098
 8825TIP3   OH247889   0.955   2.956   2.663 -0.5650  0.4853  0.0134
 8825TIP3    H147890   0.973   3.023   2.729 -2.2671  3.3589 -2.3015
 8825TIP3    H247891   1.039   2.945   2.617  0.1966 -0.3439  1.5888
 8826TIP3   OH247892   2.449   5.777  14.846  0.6277  0.9165  0.0966
 8826TIP3    H147893   2.475   5.821  14.927 -2.0892  1.7578  0.5609
 8826TIP3    H247894   2.450   5.847  14.780 -1.6037  1.2596  0.3874
 8827TIP3   OH247895   0.007   4.030   3.132  0.1067 -0.5124 -0.4708
 8827TIP3    H147896  -0.016   4.087   3.206  1.5282  0.9728 -1.1373
 8827TIP3    H247897   0.013   3.942   3.170 -0.4727  0.0432  0.9172
 8828TIP3   OH247898   5.492   6.250  15.096  0.3095  0.1860  0.4884
 8828TIP3    H147899   5.490   6.200  15.014 -0.4375  2.6749 -1.0828
 8828TIP3    H247900   5.573   6.301  15.090  0.3334  0.2542  1.4083
 8829TIP3   OH247901   3.980   4.682   1.762  0.5333 -0.4229  0.1975
 8829TIP3    H147902   4.075   4.696   1.756  0.6241 -1.7999 -1.7783
 8829TIP3    H247903   3.971   4.591   1.791 -0.1912 -0.1709  0.7837
 8830TIP3   OH247904   1.299   1.066  11.434  0.2418 -1.2732  0.1667
 8830TIP3    H147905   1.272   0.994  11.491 -1.2400 -1.4806 -0.7594
 8830TIP3    H247906   1.303   1.142  11.491 -0.9127 -1.5404  0.6188
 8831TIP3   OH247907   5.532   2.956   5.608 -0.1819  0.2465 -0.1790
 8831TIP3    H147908   5.497   3.001   5.685  0.4177 -0.6586  0.6387
 8831TIP3    H247909   5.495   2.867   5.614  0.9860 -0.2490 -0.1599
 8832TIP3   OH247910   2.126   4.421   2.314  0.2599  0.3181  0.2414
 8832TIP3    H147911   2.120   4.384   2.226  0.9409  1.4681 -0.3019
 8832TIP3    H247912   2.216   4.403   2.341  0.4044  1.0120  0.2264
 8833TIP3   OH247913   1.325   1.116   2.219  0.1590  0.5158 -0.2973
 8833TIP3    H147914   1.404   1.064   2.202  0.7352  0.8337  1.3343
 8833TIP3    H247915   1.279   1.118   2.135  0.2671 -2.3581 -0.4602
 8834TIP3   OH247916   1.637   0.744   3.895  0.0505 -0.0865  0.3064
 8834TIP3    H147917   1.668   0.722   3.807 -0.6702 -0.5415  0.1670
 8834TIP3    H247918   1.554   0.697   3.904 -0.9018  1.6088  0.4635
 8835TIP3   OH247919   1.318   0.499   5.973 -0.0563  0.1156  0.6447
 8835TIP3    H147920   1.380   0.436   6.010 -0.4897 -0.8372 -0.2104
 8835TIP3    H247921   1.373   0.567   5.934  0.4314 -0.0745  1.0063
 8836TIP3   OH247922   5.182   4.232   3.135 -0.4402  0.2809  0.4709
 8836TIP3    H147923   5.167   4.243   3.041  0.1863 -1.7514  0.1000
 8836TIP3    H247924   5.097   4.205   3.170 -0.0793 -1.4541  0.0460
 8837TIP3   OH247925   0.087   5.051   4.067  0.3151 -0.2970 -0.6572
 8837TIP3    H147926   0.058   4.989   4.000  2.4387 -0.9554 -1.0014
 8837TIP3    H247927   0.084   5.137   4.023 -2.0829 -0.1973 -0.3522
 8838TIP3   OH247928   2.648   0.032   3.288 -0.2215 -0.4969 -0.0911
 8838TIP3    H147929   2.673   0.124   3.291 -2.1809 -0.0112  2.4170
 8838TIP3    H247930   2.721  -0.011   3.243  1.6118  1.9660  0.4429
 8839TIP3   OH247931   4.403   5.557  12.709 -0.2634 -0.2984 -0.0698
 8839TIP3    H147932   4.400   5.594  12.797  0.7288 -1.5927  0.5194
 8839TIP3    H247933   4.332   5.602  12.662 -0.5978  0.6276  1.2875
 8840TIP3   OH247934   3.387   6.144   5.880  0.2816 -0.4438 -0.5400
 8840TIP3    H147935   3.417   6.058   5.853  0.6492  0.1621 -2.1164
 8840TIP3    H247936   3.399   6.199   5.803 -1.2078  0.7095  0.0145
 8841TIP3   OH247937   3.251   6.749  15.820  0.3694  0.0356  0.1486
 8841TIP3    H147938   3.303   6.702  15.754 -2.1741 -2.2319 -0.3707
 8841TIP3    H247939   3.298   6.736  15.902  0.4403 -2.3706 -0.2286
 8842TIP3   OH247940   1.051   0.791  14.825 -0.2444  0.1713 -0.6305
 8842TIP3    H147941   0.999   0.852  14.772 -0.4718 -0.6199 -1.3245
 8842TIP3    H247942   0.995   0.771  14.900 -2.1864 -2.9178 -2.7898
 8843TIP3   OH247943   0.141   5.629   6.016 -0.0826  0.4529 -0.0328
 8843TIP3    H147944   0.046   5.627   6.022  0.0278  0.4121  2.1046
 8843TIP3    H247945   0.169   5.674   6.095  1.6117  2.1116 -1.5393
 8844TIP3   OH247946   0.263   0.735   0.067 -0.1213 -0.8532  0.3414
 8844TIP3    H147947   0.215   0.682   0.130  0.4477 -0.8309  0.7975
 8844TIP3    H247948   0.331   0.778   0.119 -0.1010 -0.2781 -0.1602
 8845TIP3   OH247949   2.631   0.149   0.439 -0.3266 -0.2224 -0.2122
 8845TIP3    H147950   2.644   0.103   0.355 -0.6778 -2.2306  0.7980
 8845TIP3    H247951   2.711   0.132   0.488  0.5715  2.3246 -0.7264
 8846TIP3   OH247952   6.384   1.357   1.962 -0.0870  0.2444 -0.3525
 8846TIP3    H147953   6.429   1.413   1.899  2.1273 -0.1591  0.8207
 8846TIP3    H247954   6.390   1.269   1.925 -1.0611  0.3654 -0.8137
 8847TIP3   OH247955   0.998   0.784  13.667  0.2400 -0.0835  0.3171
 8847TIP3    H147956   0.939   0.749  13.733 -1.5454 -0.3934 -1.3941
 8847TIP3    H247957   1.060   0.714  13.650  1.1815  0.2600  2.1608
 8848TIP3   OH247958   2.821   4.302  11.535 -0.3247 -0.0760  0.1420
 8848TIP3    H147959   2.863   4.305  11.449 -1.9870 -0.8708 -0.7419
 8848TIP3    H247960   2.893   4.293  11.597  0.8856  0.2338 -1.1892
 8849TIP3   OH247961   0.397   4.576   1.861  0.4104  0.4780 -0.1034
 8849TIP3    H147962   0.351   4.505   1.906 -1.1422  1.8422  0.5115
 8849TIP3    H247963   0.391   4.553   1.768 -3.2305  1.5427 -0.2150
 8850TIP3   OH247964   0.035   5.660  12.191 -0.1613  0.8539 -0.3281
 8850TIP3    H147965   0.105   5.596  12.205 -1.6441 -0.4039  1.6230
 8850TIP3    H247966  -0.038   5.609  12.156 -0.9667  1.6617  0.1433
 8851TIP3   OH247967   2.322   2.262  11.885 -0.4267 -0.1022  0.0761
 8851TIP3    H147968   2.232   2.256  11.855 -0.3193 -1.9724  0.1069
 8851TIP3    H247969   2.372   2.212  11.820  0.5838  0.8397  0.1115
 8852TIP3   OH247970   2.253   0.360  11.052 -0.4747  0.4707  0.2615
 8852TIP3    H147971   2.227   0.271  11.028  0.0393  0.3851  0.0295
 8852TIP3    H247972   2.201   0.416  10.995 -0.1563  0.2991 -0.1928
 8853TIP3   OH247973   1.975   1.784  11.333 -0.1706  0.0647  0.4113
 8853TIP3    H147974   2.003   1.816  11.247 -1.1736 -1.7599 -0.6260
 8853TIP3    H247975   2.053   1.744  11.370 -0.4026 -1.6335 -0.8634
 8854TIP3   OH247976   3.023   3.348  12.796  0.6546 -0.2334 -0.3273
 8854TIP3    H147977   3.059   3.413  12.736 -1.4081 -1.1241 -2.6026
 8854TIP3    H247978   3.058   3.265  12.763 -0.7780 -0.7589 -0.5484
 8855TIP3   OH247979   3.702   0.505  16.154 -0.2560  1.0414 -0.7476
 8855TIP3    H147980   3.677   0.588  16.113  2.4542  1.3825 -1.8084
 8855TIP3    H247981   3.650   0.439  16.109 -1.4279  2.0241 -0.8507
 8856TIP3   OH247982   5.247   1.754   1.768 -0.5793  0.8343 -0.0578
 8856TIP3    H147983   5.245   1.850   1.778  2.2854  1.1306 -1.6956
 8856TIP3    H247984   5.184   1.736   1.699 -0.4984  1.6359 -0.3538
 8857TIP3   OH247985   3.997   5.086  14.182  0.8549  0.8414  0.0448
 8857TIP3    H147986   3.949   5.133  14.114 -1.9561 -1.1916  0.5315
 8857TIP3    H247987   3.971   5.128  14.264 -1.2550 -1.0939  0.4328
 8858TIP3   OH247988   0.538   2.289   4.019 -0.3394  0.7869 -0.7249
 8858TIP3    H147989   0.583   2.370   3.993  0.2241  0.8481  0.4138
 8858TIP3    H247990   0.598   2.219   3.993 -0.4165  0.7814 -0.8861
 8859TIP3   OH247991   0.017   5.946   2.244 -0.2953 -0.1867  0.4077
 8859TIP3    H147992   0.092   5.981   2.292 -0.6599 -1.1249  1.6737
 8859TIP3    H247993   0.050   5.933   2.155  0.9272 -0.2136  0.8511
 8860TIP3   OH247994   4.334   6.356  15.806 -0.0445  0.1847  0.0402
 8860TIP3    H147995   4.428   6.368  15.820 -0.1388 -0.6988  1.5897
 8860TIP3    H247996   4.297   6.355  15.894 -1.5819  0.9911 -0.5659
 8861TIP3   OH247997   1.639   4.489   3.685  0.4524 -0.4081  0.3476
 8861TIP3    H147998   1.551   4.526   3.691  0.5514 -0.4169  2.0565
 8861TIP3    H247999   1.634   4.428   3.611 -1.0882 -0.7107  0.6765
 8862TIP3   OH248000   2.927   5.497   1.526 -0.0724  0.1024 -0.4481
 8862TIP3    H148001   2.944   5.445   1.604 -1.3473  0.6245  0.1859
 8862TIP3    H248002   2.832   5.498   1.517 -0.1380  2.9920  0.0180
 8863TIP3   OH248003   3.288   2.093   4.818 -0.3350  0.0014  0.0926
 8863TIP3    H148004   3.257   2.055   4.900  0.3540 -0.6470  0.0522
 8863TIP3    H248005   3.376   2.125   4.837 -0.1997 -0.0844 -0.3668
 8864TIP3   OH248006   6.261   3.183  11.596  0.7006  0.0830 -0.0046
 8864TIP3    H148007   6.333   3.200  11.657  0.0494  0.5014  0.6593
 8864TIP3    H248008   6.283   3.235  11.519  1.4794 -0.3717 -0.0958
 8865TIP3   OH248009   2.142   3.072   0.741 -0.2043 -0.3148  0.3766
 8865TIP3    H148010   2.169   2.992   0.696  0.6042 -1.4514  2.8503
 8865TIP3    H248011   2.089   3.119   0.676 -1.9623 -3.5559 -0.6138
 8866TIP3   OH248012   6.212   2.719  14.506  0.2715  0.0250 -0.4185
 8866TIP3    H148013   6.269   2.747  14.434  0.7529 -0.7552 -0.3423
 8866TIP3    H248014   6.125   2.715  14.466  0.5086 -0.2535 -0.9231
 8867TIP3   OH248015   0.279   3.765   5.861 -0.2976  0.2179  0.1483
 8867TIP3    H148016   0.189   3.755   5.893  0.7399 -1.1738  2.8495
 8867TIP3    H248017   0.274   3.741   5.769 -2.4905 -1.0969  0.5461
 8868TIP3   OH248018   1.831   4.754  15.571 -0.4329  0.0621  0.1259
 8868TIP3    H148019   1.810   4.806  15.494 -1.3455 -3.7641 -2.3768
 8868TIP3    H248020   1.926   4.742  15.566 -0.6236 -1.0655 -1.0489
 8869TIP3   OH248021   3.935   4.662  16.581  0.2630 -0.3210 -0.7919
 8869TIP3    H148022   3.993   4.603  16.533 -0.3038 -1.0062 -0.6308
 8869TIP3    H248023   3.972   4.667  16.669 -0.0738 -0.9809 -0.6095
 8870TIP3   OH248024   4.950   2.707  16.928 -0.4830  0.6070 -0.3770
 8870TIP3    H148025   4.888   2.657  16.875  0.6913 -1.6778  0.3277
 8870TIP3    H248026   4.911   2.709  17.015 -0.4408  0.7564 -0.3619
 8871TIP3   OH248027   2.083   3.033  15.353  0.1075  0.0422 -0.2744
 8871TIP3    H148028   2.058   2.941  15.355  0.2382 -0.0288 -1.4724
 8871TIP3    H248029   2.109   3.053  15.443 -0.9037 -0.8102  0.2117
 8872TIP3   OH248030   1.850   3.891   1.436  0.5982  0.4397  0.2931
 8872TIP3    H148031   1.796   3.910   1.359  0.5661  1.0300  0.4574
 8872TIP3    H248032   1.931   3.853   1.400 -0.4526 -1.6963  0.1236
 8873TIP3   OH248033   0.968   1.023  12.334  0.3530  0.6182  0.3592
 8873TIP3    H148034   0.993   1.091  12.272 -0.0957  0.5282  0.0767
 8873TIP3    H248035   1.047   1.006  12.385  1.1284 -0.2864 -1.1100
 8874TIP3   OH248036   3.309   6.105  14.169 -0.1645  0.3044 -0.3060
 8874TIP3    H148037   3.315   6.010  14.157 -1.0121  0.3101 -0.7996
 8874TIP3    H248038   3.365   6.141  14.100  3.3333  0.0946  2.2914
 8875TIP3   OH248039   0.258   2.217  12.947  0.1869 -0.1859 -0.1587
 8875TIP3    H148040   0.208   2.247  12.871  1.3241  0.7184 -0.5706
 8875TIP3    H248041   0.258   2.292  13.007 -0.7666 -0.9178  0.7748
 8876TIP3   OH248042   1.105   6.401   4.364  0.1015 -0.3676 -0.3076
 8876TIP3    H148043   1.009   6.406   4.358  0.0217  0.0094  1.1322
 8876TIP3    H248044   1.134   6.387   4.274 -1.1656  1.9371 -1.1161
 8877TIP3   OH248045   2.175   2.313  16.378  0.0967 -0.1749 -0.5672
 8877TIP3    H148046   2.229   2.389  16.398 -1.4299  0.9459 -0.5776
 8877TIP3    H248047   2.232   2.237  16.395  0.8416  0.8919  1.9150
 8878TIP3   OH248048   1.575   1.755  16.339 -0.5132  0.6366 -0.2073
 8878TIP3    H148049   1.631   1.734  16.413 -0.6755 -0.0319 -0.2738
 8878TIP3    H248050   1.544   1.844  16.357  1.4698  1.4556 -0.7522
 8879TIP3   OH248051   4.295   6.568   0.420 -0.2882 -0.6260 -0.0384
 8879TIP3    H148052   4.200   6.579   0.414 -0.1037  1.3303  0.2512
 8879TIP3    H248053   4.321   6.624   0.493  1.1016 -1.1023 -0.1599
 8880TIP3   OH248054   5.993   6.460  13.874 -0.4307  0.2313 -0.1641
 8880TIP3    H148055   5.970   6.387  13.816 -0.4761 -0.0240  0.1729
 8880TIP3    H248056   5.975   6.538  13.822 -2.1034  0.0397  0.1014
 8881TIP3   OH248057   4.606   2.302  13.163 -0.8337  0.3213  0.2222
 8881TIP3    H148058   4.644   2.388  13.147  2.2215 -1.0114 -0.0719
 8881TIP3    H248059   4.610   2.258  13.078 -1.3646 -0.4755  0.5988
 8882TIP3   OH248060   1.170   4.998  12.298 -0.2702  0.0053 -0.4348
 8882TIP3    H148061   1.174   4.962  12.387 -1.1952  0.5836 -0.1444
 8882TIP3    H248062   1.260   4.994  12.266  0.1927  0.4109  0.7871
 8883TIP3   OH248063   5.117   0.857  13.106  0.1413  0.2347  0.5151
 8883TIP3    H148064   5.210   0.839  13.095 -0.3385 -0.3398 -3.2560
 8883TIP3    H248065   5.112   0.950  13.126  1.6098 -0.2054  3.1530
 8884TIP3   OH248066   5.687   3.029  11.817  0.1763 -0.3965  0.8472
 8884TIP3    H148067   5.646   2.963  11.873  0.9643 -3.4253 -1.9662
 8884TIP3    H248068   5.781   3.015  11.828  0.3434 -0.5295 -0.5734
 8885TIP3   OH248069   4.369   5.700  13.352 -0.4510 -0.6103  0.3143
 8885TIP3    H148070   4.459   5.733  13.352 -0.7803  0.4191 -2.4486
 8885TIP3    H248071   4.379   5.605  13.359  0.8995 -0.5230 -0.2174
 8886TIP3   OH248072   4.661   4.529   1.538 -0.2742 -0.1925 -0.2275
 8886TIP3    H148073   4.707   4.491   1.613  0.7015 -2.0409 -1.7279
 8886TIP3    H248074   4.719   4.598   1.506 -1.9915  2.6275  2.4252
 8887TIP3   OH248075   1.276   4.275  11.998  0.1242  0.5631 -0.0293
 8887TIP3    H148076   1.246   4.336  11.930  1.2421 -0.7617 -1.7755
 8887TIP3    H248077   1.345   4.224  11.955  1.5182  0.3055  2.3934
 8888TIP3   OH248078   0.527   2.870   4.105 -0.4583  0.4653 -0.8151
 8888TIP3    H148079   0.445   2.831   4.075  0.2168 -0.8771 -0.9470
 8888TIP3    H248080   0.540   2.946   4.048 -0.9387 -0.0800 -1.6577
 8889TIP3   OH248081   5.471   0.802   4.919  0.0091 -0.2680 -0.1519
 8889TIP3    H148082   5.465   0.869   4.988  0.2158 -0.4275  0.0220
 8889TIP3    H248083   5.555   0.820   4.876 -0.4648  0.2996 -0.8502
 8890TIP3   OH248084   0.401   4.584   5.527 -0.1953 -0.5661 -0.4481
 8890TIP3    H148085   0.314   4.547   5.511 -0.4737  0.8991 -2.5708
 8890TIP3    H248086   0.384   4.666   5.573  0.1962 -1.1836  0.8243
 8891TIP3   OH248087   4.885   6.233  15.955  0.5003 -0.7513  0.3175
 8891TIP3    H148088   4.981   6.238  15.947  0.3522 -1.3777 -2.3115
 8891TIP3    H248089   4.863   6.145  15.923 -1.0780 -0.0725 -0.5057
 8892TIP3   OH248090   0.242   5.586   4.564 -0.4045  0.4419 -0.4971
 8892TIP3    H148091   0.293   5.506   4.561  1.1117  1.3882 -0.6110
 8892TIP3    H248092   0.185   5.581   4.487 -0.9066 -0.8837 -0.0469
 8893TIP3   OH248093   0.751   6.255  12.213 -0.1671  0.3681  0.4954
 8893TIP3    H148094   0.830   6.271  12.160 -0.5999  2.0210  0.3072
 8893TIP3    H248095   0.696   6.199  12.158  1.0691 -1.1819  0.8152
 8894TIP3   OH248096   3.575   6.744  16.939 -0.2855  0.3059  0.0078
 8894TIP3    H148097   3.601   6.656  16.966 -1.0418 -0.0016 -0.2741
 8894TIP3    H248098   3.619   6.758  16.855 -1.3841 -0.3827 -0.6814
 8895TIP3   OH248099   2.159   2.509   0.274 -0.1586  0.3511 -0.0196
 8895TIP3    H148100   2.068   2.533   0.288 -0.0631  1.0665 -0.6168
 8895TIP3    H248101   2.159   2.454   0.196 -0.0845  0.2873  0.0239
 8896TIP3   OH248102   0.016   0.633  15.747 -0.3248  0.3987 -0.2942
 8896TIP3    H148103   0.056   0.699  15.804 -0.4309  3.2922 -3.4150
 8896TIP3    H248104   0.086   0.571  15.728  0.4281  0.9141  0.7782
 8897TIP3   OH248105   4.954   0.729  12.827 -1.0328 -0.3108  0.4443
 8897TIP3    H148106   4.933   0.819  12.806  2.2111  0.3896 -0.0252
 8897TIP3    H248107   4.872   0.681  12.812 -1.2213  1.4691 -5.4910
 8898TIP3   OH248108   5.076   4.963  14.715 -0.0537 -0.7062 -0.2575
 8898TIP3    H148109   5.056   4.909  14.791  1.1947 -0.6765  0.1007
 8898TIP3    H248110   4.991   4.985  14.678 -0.7244  0.0536  1.6787
 8899TIP3   OH248111   0.033   4.978   2.189  0.4230  0.2747 -0.2480
 8899TIP3    H148112   0.112   4.944   2.232  0.5342  0.2592 -0.4654
 8899TIP3    H248113   0.056   4.981   2.096 -0.7174 -2.2313 -0.6532
 8900TIP3   OH248114   5.026   1.081   1.268 -0.3679  0.5738 -0.1092
 8900TIP3    H148115   5.001   0.995   1.232 -0.6268 -0.0711  1.5863
 8900TIP3    H248116   4.975   1.143   1.216 -4.1456 -0.6098  1.9884
 8901TIP3   OH248117   2.635   4.963  12.781  0.8210 -0.0381  0.0257
 8901TIP3    H148118   2.552   4.924  12.810  0.6056 -1.5658 -2.4822
 8901TIP3    H248119   2.611   5.016  12.705  2.0313  0.0960 -0.2587
 8902TIP3   OH248120   2.697   2.760  11.860  0.3759  0.3265 -0.3038
 8902TIP3    H148121   2.635   2.786  11.929  0.2842 -0.4074 -0.1077
 8902TIP3    H248122   2.647   2.764  11.779 -0.4563 -2.0761  0.0716
 8903TIP3   OH248123   5.168   4.557   3.628  0.0502  0.0875  0.5494
 8903TIP3    H148124   5.239   4.502   3.593 -1.6244 -0.2054 -2.6078
 8903TIP3    H248125   5.147   4.518   3.712  2.3599 -0.9699  0.6836
 8904TIP3   OH248126   5.148   5.055  12.355  0.5586  0.3639 -0.0289
 8904TIP3    H148127   5.136   5.012  12.439  1.5219 -1.0688 -0.6151
 8904TIP3    H248128   5.234   5.097  12.361  0.3559  0.7896 -0.0743
 8905TIP3   OH248129   0.947   5.778   5.079 -0.0317  0.0049  0.1781
 8905TIP3    H148130   1.026   5.831   5.085 -1.5368  2.2594  0.6357
 8905TIP3    H248131   0.953   5.717   5.152  0.3304  1.5352  1.4456
 8906TIP3   OH248132   3.836   2.084   5.512 -0.2187 -0.1568 -0.1909
 8906TIP3    H148133   3.768   2.087   5.445 -1.1535 -0.3777  0.7390
 8906TIP3    H248134   3.868   1.994   5.510  1.4453  0.4399 -1.9901
 8907TIP3   OH248135   2.311   2.245  14.177  0.1000 -0.0806  0.0990
 8907TIP3    H148136   2.347   2.205  14.098 -0.1022  1.7828 -0.9679
 8907TIP3    H248137   2.378   2.233  14.244 -0.1015 -2.4544 -0.0998
 8908TIP3   OH248138   4.038   3.858   0.964 -0.1577  0.2106 -0.2234
 8908TIP3    H148139   3.996   3.813   0.891  0.1610 -0.3869 -0.0416
 8908TIP3    H248140   4.109   3.800   0.991 -2.1138 -1.0708  2.5177
 8909TIP3   OH248141   2.722   3.290   0.422 -0.0227  0.3212 -0.0118
 8909TIP3    H148142   2.782   3.241   0.366  0.0018  0.6013 -0.2333
 8909TIP3    H248143   2.777   3.325   0.492 -0.1820 -0.6503  0.5961
 8910TIP3   OH248144   5.299   3.480   1.824 -0.6832  0.0452 -0.1119
 8910TIP3    H148145   5.272   3.406   1.879 -1.7669  1.6865  1.6006
 8910TIP3    H248146   5.372   3.446   1.772  0.1368 -1.6359  2.1012
 8911TIP3   OH248147   4.935   4.497  13.317 -0.2744 -0.4058 -0.4556
 8911TIP3    H148148   4.977   4.548  13.386 -0.8826  0.1334 -0.4830
 8911TIP3    H248149   5.002   4.490  13.249 -0.7865  1.8935 -1.2241
 8912TIP3   OH248150   6.091   6.362  15.556  0.2255  0.0689 -0.0729
 8912TIP3    H148151   6.086   6.443  15.504  0.4046  0.5446  0.6358
 8912TIP3    H248152   6.155   6.382  15.625 -0.5901 -0.2805  0.7978
 8913TIP3   OH248153   6.348   4.318   6.465  0.4091  0.0234 -0.7295
 8913TIP3    H148154   6.321   4.227   6.451  2.8843 -0.6643 -1.3956
 8913TIP3    H248155   6.286   4.369   6.414 -0.8924 -1.3055 -0.5288
 8914TIP3   OH248156   1.172   0.582  11.033 -0.7385  0.2923  0.3251
 8914TIP3    H148157   1.201   0.599  10.944 -1.3251  1.9160  0.4357
 8914TIP3    H248158   1.182   0.666  11.078 -2.5360  0.0504  1.1946
 8915TIP3   OH248159   2.511   0.282  17.234 -0.0527 -0.3262 -0.8481
 8915TIP3    H148160   2.504   0.210  17.170 -1.1551 -1.8735  0.9676
 8915TIP3    H248161   2.439   0.267  17.295  1.7934  0.3477  1.5417
 8916TIP3   OH248162   4.582   0.719  16.836  0.0506  0.5463  0.1814
 8916TIP3    H148163   4.662   0.756  16.799 -1.3422  1.3476 -2.1205
 8916TIP3    H248164   4.563   0.643  16.780 -1.4561  1.0821 -0.0496
 8917TIP3   OH248165   4.815   5.739  14.317  0.0356 -0.0368 -0.0040
 8917TIP3    H148166   4.841   5.683  14.391  1.2019 -0.2206 -0.5488
 8917TIP3    H248167   4.725   5.712  14.298  0.8226 -2.2585 -0.7400
 8918TIP3   OH248168   6.715   2.768   2.342  0.2645  0.0426 -0.0140
 8918TIP3    H148169   6.668   2.830   2.287 -0.7960 -0.7165  0.0312
 8918TIP3    H248170   6.672   2.774   2.427 -0.9912 -2.0204 -0.4743
 8919TIP3   OH248171   3.208   0.332  10.619 -0.4677  0.2292 -0.1015
 8919TIP3    H148172   3.273   0.399  10.600 -1.0514  0.8601  0.1292
 8919TIP3    H248173   3.166   0.361  10.700  0.3586 -1.2189  0.8755
 8920TIP3   OH248174   5.200   0.544   1.499 -0.1075 -0.4342  0.1407
 8920TIP3    H148175   5.280   0.561   1.449 -1.2368  0.2458 -1.4394
 8920TIP3    H248176   5.215   0.588   1.583  1.1935 -0.3692 -0.1082
 8921TIP3   OH248177   6.724   1.253   0.387  0.2940  0.5368 -0.1292
 8921TIP3    H148178   6.812   1.273   0.420  0.0688  2.0617 -0.4191
 8921TIP3    H248179   6.686   1.339   0.368 -1.1401 -0.1374 -0.3199
 8922TIP3   OH248180   1.704   6.595  16.741  0.5508  0.0627  0.0618
 8922TIP3    H148181   1.652   6.581  16.820 -0.1650  0.9146 -0.2351
 8922TIP3    H248182   1.791   6.616  16.772  0.9598 -2.2258  0.5597
 8923TIP3   OH248183   4.894   1.641   3.787  0.0042 -0.1651  0.0009
 8923TIP3    H148184   4.903   1.709   3.854  0.3192  1.0198 -1.2212
 8923TIP3    H248185   4.800   1.630   3.776 -0.0492  0.0388  0.2549
 8924TIP3   OH248186   5.073   4.950   2.974 -0.2062  0.2777  0.7840
 8924TIP3    H148187   5.112   5.001   3.045  1.5083  0.8635 -0.5280
 8924TIP3    H248188   5.138   4.884   2.953 -0.8349 -0.0960 -0.0110
 8925TIP3   OH248189   2.789   4.279   1.658  0.4906 -0.0713  0.4105
 8925TIP3    H148190   2.712   4.309   1.610 -0.0892 -0.4057  1.1142
 8925TIP3    H248191   2.790   4.184   1.645  0.7119 -0.0812  0.4952
 8926TIP3   OH248192   4.036   0.455  14.327 -0.5683  0.4030 -0.0306
 8926TIP3    H148193   4.086   0.374  14.335 -2.8927 -0.9261  1.6029
 8926TIP3    H248194   4.081   0.504  14.258  0.6633 -2.4080 -1.3002
 8927TIP3   OH248195   6.119   1.156   1.615  0.0735 -0.1289 -0.4094
 8927TIP3    H148196   6.213   1.166   1.602 -0.3101  2.9678 -1.1656
 8927TIP3    H248197   6.102   1.197   1.700 -0.5075 -1.3666  0.0831
 8928TIP3   OH248198   6.069   5.726   4.292  0.1419  0.0860 -0.2636
 8928TIP3    H148199   6.103   5.772   4.216 -0.4164  0.5657 -0.2285
 8928TIP3    H248200   6.011   5.659   4.256 -2.9376  2.6007 -0.1794
 8929TIP3   OH248201   3.174   5.343  11.769 -0.1960  0.2099  0.5058
 8929TIP3    H148202   3.106   5.371  11.830 -0.0956  1.6805 -0.0316
 8929TIP3    H248203   3.245   5.311  11.824 -1.5049 -1.8170  1.0617
 8930TIP3   OH248204   0.233   4.019   3.489  0.0907  0.3798 -0.0187
 8930TIP3    H148205   0.217   4.035   3.582  0.7529 -0.9502  0.3449
 8930TIP3    H248206   0.275   4.099   3.457 -3.2353  2.1992  0.0125
 8931TIP3   OH248207   0.751   2.957  11.725  0.0856  0.0004  0.2314
 8931TIP3    H148208   0.738   3.049  11.703  0.2364 -0.1378 -0.4366
 8931TIP3    H248209   0.662   2.922  11.732  0.0357  0.0642 -0.0699
 8932TIP3   OH248210   5.195   2.768   0.467  0.2621  0.1450 -0.7031
 8932TIP3    H148211   5.288   2.773   0.443  0.1693 -0.6240 -1.2322
 8932TIP3    H248212   5.170   2.859   0.486  0.9897  0.4224 -1.0538
 8933TIP3   OH248213   2.657   3.487  13.720 -0.5227  0.1933 -0.3101
 8933TIP3    H148214   2.716   3.427  13.675 -1.2265 -1.0180  0.3379
 8933TIP3    H248215   2.693   3.496  13.807  0.3854  1.8851 -0.8499
 8934TIP3   OH248216   0.815   5.222   4.398 -0.8630 -0.4672 -0.3168
 8934TIP3    H148217   0.890   5.162   4.395 -1.1169 -0.8302  0.5210
 8934TIP3    H248218   0.794   5.230   4.491 -0.3828  1.4812 -0.3399
 8935TIP3   OH248219   4.872   3.645  14.345 -0.3703 -0.3547  0.0500
 8935TIP3    H148220   4.918   3.728  14.358 -1.5616  0.0564  1.7823
 8935TIP3    H248221   4.807   3.663  14.278  2.9359 -1.3468 -3.6043
 8936TIP3   OH248222   3.239   2.346   0.515 -0.1240 -0.2569  0.1193
 8936TIP3    H148223   3.333   2.358   0.527  0.0865 -0.2229 -1.4819
 8936TIP3    H248224   3.231   2.271   0.456 -1.0946 -0.0861  0.0222
 8937TIP3   OH248225   2.484   0.843   2.008 -0.4451  0.3517 -0.6794
 8937TIP3    H148226   2.555   0.907   2.016 -0.1114 -0.0983  0.0690
 8937TIP3    H248227   2.493   0.808   1.920  0.5551 -0.0250 -0.4368
 8938TIP3   OH248228   5.477   4.949  15.792  0.4822  0.6204 -0.1946
 8938TIP3    H148229   5.524   5.031  15.777 -0.6388  1.4323  0.6749
 8938TIP3    H248230   5.538   4.881  15.762  0.9646  1.8106 -1.9865
 8939TIP3   OH248231   0.176   5.608   1.507  0.2539 -0.0864 -0.5217
 8939TIP3    H148232   0.205   5.667   1.577  0.1680 -0.6272 -0.0257
 8939TIP3    H248233   0.246   5.543   1.501  1.3229  1.2064 -2.4488
 8940TIP3   OH248234   2.260   1.031   5.887 -0.3735 -0.1618  0.2827
 8940TIP3    H148235   2.237   0.977   5.963  4.2804 -3.1342 -0.2203
 8940TIP3    H248236   2.220   0.985   5.813 -0.6358 -0.0881  0.3763
 8941TIP3   OH248237   4.143   6.691   1.871  0.1080  0.1768  0.0284
 8941TIP3    H148238   4.205   6.637   1.821  2.1610  1.2095  1.3787
 8941TIP3    H248239   4.061   6.686   1.822  0.4551 -3.5263 -0.3161
 8942TIP3   OH248240   1.854   2.258  14.189 -0.3183 -0.0462  0.0570
 8942TIP3    H148241   1.898   2.270  14.105  0.0894 -0.2941  0.2334
 8942TIP3    H248242   1.848   2.163  14.200 -0.8222 -0.0134  0.0730
 8943TIP3   OH248243   6.556   0.421  17.190  0.5022 -0.5369  0.3622
 8943TIP3    H148244   6.489   0.401  17.254  0.2124 -0.8723 -0.0420
 8943TIP3    H248245   6.535   0.509  17.159  0.5130 -0.4631  0.5685
 8944TIP3   OH248246   6.035   1.740   5.673  0.0671 -0.1289  0.3016
 8944TIP3    H148247   6.013   1.666   5.616  0.0710 -0.0769  0.2321
 8944TIP3    H248248   6.000   1.816   5.627  1.8293  0.1556 -0.6115
 8945TIP3   OH248249   0.393   1.138  14.934  0.7022 -0.0164 -0.2700
 8945TIP3    H148250   0.457   1.067  14.934 -1.0634 -1.6613 -0.5879
 8945TIP3    H248251   0.335   1.118  14.860 -2.4468 -0.7533  2.2821
 8946TIP3   OH248252   2.288   6.253  11.413  0.3896 -0.5417  0.6034
 8946TIP3    H148253   2.244   6.206  11.342  0.3568  0.4686 -0.0521
 8946TIP3    H248254   2.266   6.204  11.492 -2.7313  0.5017  0.4352
 8947TIP3   OH248255   4.383   3.853  12.208 -0.4645  0.0212  0.6177
 8947TIP3    H148256   4.296   3.855  12.248 -0.8386 -0.3726 -0.1662
 8947TIP3    H248257   4.370   3.891  12.121 -0.0468 -0.9213  0.1410
 8948TIP3   OH248258   2.188   1.520   4.117  0.3450 -0.3047  0.1201
 8948TIP3    H148259   2.143   1.499   4.035 -0.3358 -0.0401  0.4181
 8948TIP3    H248260   2.117   1.529   4.181  0.6372  2.4249  0.0962
 8949TIP3   OH248261   0.278   6.106  11.835 -0.2776  0.1094 -0.5124
 8949TIP3    H148262   0.215   6.107  11.907  2.0921  1.6291  1.6225
 8949TIP3    H248263   0.320   6.020  11.842 -0.3566  0.0837 -0.3358
 8950TIP3   OH248264   2.543   4.172  11.402 -0.0176  0.0986  0.6937
 8950TIP3    H148265   2.593   4.252  11.383 -0.3556  0.0232 -0.6164
 8950TIP3    H248266   2.519   4.179  11.494  0.0094  1.4881  0.6011
 8951TIP3   OH248267   1.988   5.545   0.382 -0.0889  0.4002  0.0744
 8951TIP3    H148268   1.979   5.625   0.434  1.7508  1.3410 -0.9942
 8951TIP3    H248269   2.014   5.576   0.295 -0.3366 -1.3053 -0.6272
 8952TIP3   OH248270   1.788   1.782  12.260  0.1613 -0.1086 -0.6775
 8952TIP3    H148271   1.769   1.875  12.255  1.3667  0.2467  0.9907
 8952TIP3    H248272   1.820   1.759  12.172 -0.3408  0.9900 -1.1480
 8953TIP3   OH248273   3.228   6.714  12.642 -0.2699 -0.6807  0.4723
 8953TIP3    H148274   3.319   6.721  12.670 -0.1275  1.3322 -0.4233
 8953TIP3    H248275   3.214   6.789  12.585 -1.4974 -2.8555 -2.2515
 8954TIP3   OH248276   5.677   0.577   5.364 -0.3698  0.0174  0.0209
 8954TIP3    H148277   5.735   0.631   5.311  0.4513 -0.6605  0.2146
 8954TIP3    H248278   5.660   0.500   5.309 -0.4584 -0.1469  0.2777
 8955TIP3   OH248279   0.383   4.636   4.305  0.1207  0.1177  0.2864
 8955TIP3    H148280   0.453   4.700   4.291  0.0084  0.1387 -0.1723
 8955TIP3    H248281   0.369   4.637   4.400 -0.9763  1.9341  0.1271
 8956TIP3   OH248282   5.082   0.635   1.825 -0.0452 -0.3541 -0.4171
 8956TIP3    H148283   5.069   0.540   1.830 -0.3708 -0.2274  1.2020
 8956TIP3    H248284   5.145   0.655   1.894 -1.5534  0.8867  0.6294
 8957TIP3   OH248285   2.989   6.116   1.928  0.3233 -0.3300  0.0130
 8957TIP3    H148286   3.074   6.159   1.936  0.1581 -0.4871  3.1582
 8957TIP3    H248287   3.009   6.022   1.927  0.1504 -0.4093  1.9934
 8958TIP3   OH248288   0.392   2.186  17.071 -0.7094 -0.5746 -0.1065
 8958TIP3    H148289   0.345   2.154  17.148 -2.3792 -3.0845 -2.0895
 8958TIP3    H248290   0.484   2.186  17.097 -1.4389  1.0671  2.6887
 8959TIP3   OH248291   1.944   2.422   6.311 -0.0992 -0.8665 -0.2747
 8959TIP3    H148292   1.890   2.466   6.377 -0.3946 -0.6527 -0.6560
 8959TIP3    H248293   1.924   2.329   6.322 -1.4653 -0.6988 -1.2101
 8960TIP3   OH248294   1.132   2.808  13.966 -0.5392 -0.1646 -0.0188
 8960TIP3    H148295   1.188   2.731  13.952  0.6438  1.0216 -2.2536
 8960TIP3    H248296   1.191   2.883  13.951 -1.9195  1.1643  1.0595
 8961TIP3   OH248297   2.430   2.060  13.373  0.0496 -0.1221  0.2085
 8961TIP3    H148298   2.466   2.017  13.296  0.1940 -0.5846  0.5376
 8961TIP3    H248299   2.504   2.105  13.413  0.0937 -0.3643  0.4026
 8962TIP3   OH248300   3.129   5.869  14.706 -0.2225  0.3588  0.3868
 8962TIP3    H148301   3.119   5.847  14.799  0.0437  2.3669  0.8952
 8962TIP3    H248302   3.047   5.914  14.683 -0.8058 -1.1891 -0.6892
 8963TIP3   OH248303   4.924   4.115  15.728 -0.8186  0.0433  0.4199
 8963TIP3    H148304   4.899   4.042  15.672 -1.4819  2.6482 -2.7926
 8963TIP3    H248305   4.858   4.114  15.798 -0.9978 -2.2158  0.2695
 8964TIP3   OH248306   4.804   5.348   1.226  0.3507  0.2736 -0.2226
 8964TIP3    H148307   4.715   5.357   1.193  0.8941  3.3494 -1.0094
 8964TIP3    H248308   4.859   5.384   1.157  1.8125  3.1937  2.3514
 8965TIP3   OH248309   4.415   2.655  13.888 -0.1065 -0.4317 -0.3016
 8965TIP3    H148310   4.436   2.662  13.981 -1.3215 -2.6236  0.1685
 8965TIP3    H248311   4.420   2.744  13.855  0.7440  0.3085  1.7765
 8966TIP3   OH248312   5.426   4.084  16.149  0.3916 -0.2442  0.1579
 8966TIP3    H148313   5.442   4.058  16.059  1.0472  0.1561  0.1575
 8966TIP3    H248314   5.411   4.002  16.196 -0.7509 -0.4080 -0.4633
 8967TIP3   OH248315   5.884   2.068   2.492  0.1369 -0.1481  0.0210
 8967TIP3    H148316   5.891   2.013   2.414  0.2957  0.9321 -0.7377
 8967TIP3    H248317   5.966   2.053   2.540  1.6435  1.8727 -1.8222
 8968TIP3   OH248318   2.599   1.208   1.198  0.3039 -0.0336 -0.2015
 8968TIP3    H148319   2.563   1.240   1.115  0.1332  1.0448  0.2817
 8968TIP3    H248320   2.605   1.286   1.253 -2.3287 -1.1774  1.8163
 8969TIP3   OH248321   2.585   4.726  16.335 -0.3966 -0.1965 -0.0677
 8969TIP3    H148322   2.520   4.788  16.303 -0.9401  0.0708  1.5364
 8969TIP3    H248323   2.543   4.640  16.325 -0.5760 -0.1098 -0.0573
 8970TIP3   OH248324   0.673   5.794  13.486 -0.3278 -0.0262 -0.4823
 8970TIP3    H148325   0.691   5.797  13.392  0.4635 -0.1200 -0.3328
 8970TIP3    H248326   0.593   5.847  13.496 -1.9465 -2.1703 -1.5586
 8971TIP3   OH248327   2.712   6.700   4.148 -0.3605  0.3614 -0.0053
 8971TIP3    H148328   2.624   6.704   4.111 -0.2156 -0.3441 -0.4413
 8971TIP3    H248329   2.757   6.775   4.110 -0.9832  1.1196  0.7654
 8972TIP3   OH248330   1.686   6.081   2.304 -0.4496 -0.3295  0.2994
 8972TIP3    H148331   1.675   6.058   2.211  1.5938  0.8663 -0.2802
 8972TIP3    H248332   1.628   6.155   2.318  1.6215  1.6197 -0.9465
 8973TIP3   OH248333   5.410   6.544  11.870  0.2182  0.4983 -0.3790
 8973TIP3    H148334   5.501   6.563  11.895 -0.3057  0.1946  1.9456
 8973TIP3    H248335   5.380   6.622  11.825  0.9920  1.4665  0.7590
 8974TIP3   OH248336   1.016   1.294  13.356  0.3484 -0.2195 -0.3300
 8974TIP3    H148337   1.020   1.372  13.412  0.7484  0.8322 -1.7808
 8974TIP3    H248338   1.055   1.322  13.273 -0.8404 -1.5295 -1.3678
 8975TIP3   OH248339   3.898   3.591  11.394 -0.9154 -0.1104  0.0148
 8975TIP3    H148340   3.919   3.685  11.397 -1.0822 -0.1146  2.0526
 8975TIP3    H248341   3.854   3.579  11.309  0.9883  1.2232 -1.2029
 8976TIP3   OH248342   1.754   3.783   3.167  0.0892  0.0454  0.1134
 8976TIP3    H148343   1.660   3.765   3.171  0.0875  0.0981  0.2985
 8976TIP3    H248344   1.781   3.749   3.081  0.3247 -2.0189  0.9666
 8977TIP3   OH248345   6.454   0.967  14.844  0.2783  0.5291  0.4106
 8977TIP3    H148346   6.458   0.927  14.757 -0.9721  2.0790 -0.3596
 8977TIP3    H248347   6.465   0.893  14.904 -1.4206 -0.9226 -1.0090
 8978TIP3   OH248348   6.278   3.499  11.598  0.4574  0.0448 -0.8437
 8978TIP3    H148349   6.285   3.545  11.682  1.5852 -0.1274 -0.8440
 8978TIP3    H248350   6.323   3.416  11.612 -1.4101 -0.9998 -0.9115
 8979TIP3   OH248351   5.431   6.294   0.801  0.1693  0.6344 -0.3253
 8979TIP3    H148352   5.364   6.328   0.742  0.1427 -2.9895 -2.5174
 8979TIP3    H248353   5.397   6.210   0.832  1.6964  0.8905  2.1975
 8980TIP3   OH248354   1.122   4.967  17.212 -0.0989 -0.1388 -0.4426
 8980TIP3    H148355   1.135   4.919  17.294  0.8375  1.4871  0.3791
 8980TIP3    H248356   1.050   5.027  17.232  0.3646  0.5032 -0.6922
 8981TIP3   OH248357   6.135   0.719   0.414  0.5107 -0.3266  0.5701
 8981TIP3    H148358   6.227   0.694   0.421  0.5319  0.0881  1.8669
 8981TIP3    H248359   6.103   0.671   0.337  1.5470 -1.2554  0.7042
 8982TIP3   OH248360   5.508   5.896  12.848 -0.6568  0.0055 -0.5012
 8982TIP3    H148361   5.562   5.967  12.881 -0.1163 -0.5601 -0.1548
 8982TIP3    H248362   5.427   5.939  12.818  0.8961  1.1449 -3.2388
 8983TIP3   OH248363   3.013   1.815  13.956 -0.2481  0.1592  0.5762
 8983TIP3    H148364   3.020   1.877  14.028  1.7728 -0.4166  0.9064
 8983TIP3    H248365   3.091   1.760  13.963  0.2430  0.3874 -2.3427
 8984TIP3   OH248366   5.362   0.898   1.164  0.1073 -0.3589  0.2969
 8984TIP3    H148367   5.313   0.925   1.241 -1.0599 -2.6989  0.3998
 8984TIP3    H248368   5.413   0.976   1.140 -2.2680  1.5470  1.2426
 8985TIP3   OH248369   5.651   0.733   1.204 -0.0760  0.6526  0.8854
 8985TIP3    H148370   5.705   0.720   1.282 -0.1701  0.6887  0.9570
 8985TIP3    H248371   5.673   0.821   1.174  1.7770 -0.2608 -0.5562
 8986TIP3   OH248372   0.113   4.112  16.234  0.1817 -0.2196 -1.3454
 8986TIP3    H148373   0.199   4.082  16.262  0.2289  2.1108  1.1576
 8986TIP3    H248374   0.061   4.031  16.226  1.4679 -1.3314  1.0203
 8987TIP3   OH248375   5.349   6.330   1.605 -0.0741 -0.2056  0.4876
 8987TIP3    H148376   5.342   6.426   1.611 -1.5831 -0.3439  1.2016
 8987TIP3    H248377   5.272   6.305   1.553  1.8062 -0.8067 -2.0794
 8988TIP3   OH248378   4.022   2.746   2.368 -0.1804 -0.1041  0.2407
 8988TIP3    H148379   3.988   2.777   2.452 -2.3328 -0.6795 -0.3972
 8988TIP3    H248380   3.973   2.666   2.350  1.0877 -0.6146 -1.0130
 8989TIP3   OH248381   6.555   2.830  14.116 -0.0614 -0.9724 -0.4348
 8989TIP3    H148382   6.584   2.876  14.036 -0.4163 -0.6669 -0.3894
 8989TIP3    H248383   6.629   2.839  14.176 -0.3819  0.1398 -0.1832
 8990TIP3   OH248384   0.158   6.000   3.580  0.1613  0.2086  0.6809
 8990TIP3    H148385   0.201   5.965   3.502  2.3427  0.2066  1.8448
 8990TIP3    H248386   0.125   6.086   3.553  0.5004  0.0136 -0.3602
 8991TIP3   OH248387   1.680   3.279   1.807 -0.1735 -0.3066 -0.1450
 8991TIP3    H148388   1.652   3.250   1.893  0.9996  0.9136  0.6591
 8991TIP3    H248389   1.762   3.232   1.791  0.3439  0.5441  0.0127
 8992TIP3   OH248390   1.026   5.539  12.989 -0.1451  0.5339  0.5574
 8992TIP3    H148391   1.032   5.635  12.987 -0.9382  0.6527  2.4225
 8992TIP3    H248392   1.114   5.509  12.967  0.4163  1.7245  1.0952
 8993TIP3   OH248393   3.022   4.274   3.966 -0.2995 -0.6253  0.3912
 8993TIP3    H148394   2.979   4.212   3.907  0.5803  0.3708 -1.3132
 8993TIP3    H248395   3.103   4.231   3.991 -0.1766 -0.5939  0.0400
 8994TIP3   OH248396   4.649   4.757  13.326 -0.3762  0.0990 -0.4999
 8994TIP3    H148397   4.716   4.691  13.342 -1.7177 -1.1858 -0.0644
 8994TIP3    H248398   4.611   4.734  13.241 -0.2641  0.8216 -0.7527
 8995TIP3   OH248399   4.988   0.303  14.953 -0.2569 -0.3135 -0.4235
 8995TIP3    H148400   4.984   0.342  15.040 -0.3486  0.2786 -0.6939
 8995TIP3    H248401   5.069   0.252  14.953 -0.2151 -0.2431 -0.0252
 8996TIP3   OH248402   2.162   0.076  15.650 -0.0473 -0.1406 -0.0210
 8996TIP3    H148403   2.234   0.114  15.601  0.2968  0.4961  0.9597
 8996TIP3    H248404   2.155  -0.014  15.618 -1.0232  0.7882 -2.5538
 8997TIP3   OH248405   2.164   5.944   0.571  0.5895  0.2161  0.4519
 8997TIP3    H148406   2.155   5.894   0.652  0.0678 -0.5772 -0.0877
 8997TIP3    H248407   2.163   6.036   0.599  0.8249 -0.0604  1.3790
 8998TIP3   OH248408   4.758   2.077  16.158  0.1932 -0.6778 -0.0888
 8998TIP3    H148409   4.670   2.061  16.192  0.4639 -0.0355  0.9630
 8998TIP3    H248410   4.750   2.067  16.063 -0.9626 -0.8313  0.0190
 8999TIP3   OH248411   4.549   2.190   4.639 -0.3510  0.3688 -0.3747
 8999TIP3    H148412   4.620   2.130   4.613 -0.7445  0.4972 -1.7869
 8999TIP3    H248413   4.576   2.223   4.724  1.7693  1.1437 -1.3008
 9000TIP3   OH248414   1.625   4.747   6.422 -0.1004  0.0021 -0.0567
 9000TIP3    H148415   1.716   4.771   6.438 -0.3338  0.5028  0.5671
 9000TIP3    H248416   1.584   4.829   6.393 -0.3000 -0.2752 -0.5529
 9001TIP3   OH248417   2.737   1.885   1.304 -0.3705  0.0004  0.3875
 9001TIP3    H148418   2.796   1.821   1.345  1.6311  1.8506  0.5051
 9001TIP3    H248419   2.696   1.837   1.232 -0.4176 -1.9737  1.7024
 9002TIP3   OH248420   2.458   0.831   1.721 -0.3163  0.4065 -0.3643
 9002TIP3    H148421   2.438   0.925   1.725  1.4694  0.9014 -2.1966
 9002TIP3    H248422   2.429   0.804   1.634  0.6906 -0.3669 -0.4667
 9003TIP3   OH248423   6.257   3.011   5.460 -0.4944 -0.2556  0.1375
 9003TIP3    H148424   6.255   2.993   5.554 -0.3611 -0.7285  0.0486
 9003TIP3    H248425   6.166   3.004   5.432 -0.5769  0.1803  0.2839
 9004TIP3   OH248426   0.630   3.853  14.345  0.2452  0.8051  0.6201
 9004TIP3    H148427   0.574   3.809  14.409 -0.2936 -0.7674 -0.8700
 9004TIP3    H248428   0.568   3.899  14.287  0.3020 -2.0445 -1.8469
 9005TIP3   OH248429   1.686   5.577   2.815  0.7304 -0.6186  0.1432
 9005TIP3    H148430   1.763   5.538   2.772 -0.8885 -2.6589 -0.9767
 9005TIP3    H248431   1.674   5.525   2.894  1.0729  0.3462  0.8407
 9006TIP3   OH248432   1.944   5.207  13.077 -0.0247 -0.2522 -0.0625
 9006TIP3    H148433   1.954   5.180  12.986  0.7253 -0.3439  0.0484
 9006TIP3    H248434   1.882   5.144  13.114 -0.5511 -0.0461 -0.5740
 9007TIP3   OH248435   4.725   1.677  11.080  0.2918 -0.1668  0.1843
 9007TIP3    H148436   4.720   1.613  11.009 -1.3988 -0.9924  1.0222
 9007TIP3    H248437   4.806   1.655  11.127 -0.5669 -2.0708  0.8054
 9008TIP3   OH248438   6.598   1.685  13.047 -0.1323 -0.2808 -0.1877
 9008TIP3    H148439   6.575   1.766  13.002 -0.0009  0.2203  0.6349
 9008TIP3    H248440   6.689   1.699  13.075  0.0851 -0.9467 -0.5772
 9009TIP3   OH248441   1.642   5.345  16.877 -0.0974  0.0402  0.2344
 9009TIP3    H148442   1.695   5.361  16.955  0.4356  0.9974 -0.3023
 9009TIP3    H248443   1.634   5.432  16.836 -1.2893 -0.2637 -0.1889
 9010TIP3   OH248444   5.242   2.459   6.093 -0.2317 -0.6701  0.2139
 9010TIP3    H148445   5.280   2.547   6.101 -2.8885  0.9613 -3.3942
 9010TIP3    H248446   5.163   2.462   6.148  0.5683 -1.3932  1.4177
 9011TIP3   OH248447   3.499   1.712  14.225 -0.5022 -0.5014 -0.0944
 9011TIP3    H148448   3.581   1.692  14.270 -1.0016 -2.5925 -0.0912
 9011TIP3    H248449   3.518   1.698  14.133 -0.4490  0.4817 -0.2437
 9012TIP3   OH248450   3.573   3.613   1.484  0.2265  0.0322  0.1129
 9012TIP3    H148451   3.573   3.701   1.446 -1.5268  0.5492  1.2890
 9012TIP3    H248452   3.574   3.627   1.578 -2.3502 -1.1697  0.3518
 9013TIP3   OH248453   5.890   0.943  14.154 -0.1597 -0.3720  0.4285
 9013TIP3    H148454   5.813   0.987  14.190 -0.0166 -0.6563  1.0875
 9013TIP3    H248455   5.912   0.994  14.076  0.6638  1.4049  1.7587
 9014TIP3   OH248456   4.256   1.700  11.505 -0.5035 -0.1766 -0.6308
 9014TIP3    H148457   4.251   1.794  11.487 -1.3235 -0.2042 -0.6021
 9014TIP3    H248458   4.183   1.684  11.565 -1.0340 -1.0226 -1.5006
 9015TIP3   OH248459   3.575   1.488   5.301 -0.0172  0.1348  0.2674
 9015TIP3    H148460   3.504   1.452   5.248  1.5801 -0.0258 -1.8591
 9015TIP3    H248461   3.645   1.423   5.293  1.4045  1.6872 -0.1502
 9016TIP3   OH248462   4.987   4.660  17.121  0.4331  0.1526  0.2536
 9016TIP3    H148463   5.013   4.733  17.065  0.2157 -1.8312 -2.5369
 9016TIP3    H248464   4.891   4.657  17.113  0.5564 -1.4050 -0.9694
 9017TIP3   OH248465   3.883   0.723  16.227  0.2535 -0.5471 -0.2934
 9017TIP3    H148466   3.860   0.630  16.231 -0.3668 -0.3085  2.1453
 9017TIP3    H248467   3.888   0.751  16.318  0.1161  1.9002 -1.0022
 9018TIP3   OH248468   5.192   5.151   3.911  0.2284 -0.1007  0.2460
 9018TIP3    H148469   5.099   5.152   3.890 -0.2880 -0.1673  2.3330
 9018TIP3    H248470   5.208   5.235   3.955  1.6707  0.8795 -2.0908
 9019TIP3   OH248471   2.842   3.455   4.530  0.6777  0.6476 -0.8532
 9019TIP3    H148472   2.758   3.429   4.568  1.4205  0.0570  0.4075
 9019TIP3    H248473   2.818   3.501   4.449 -0.8440  0.2444 -0.6529
 9020TIP3   OH248474   0.577   5.093  17.043  0.0027 -0.0324 -0.2575
 9020TIP3    H148475   0.633   5.099  16.966  1.3003 -1.3523  0.5472
 9020TIP3    H248476   0.500   5.045  17.014  0.2129  0.0110 -0.8828
 9021TIP3   OH248477   5.900   5.359   3.175  0.1596 -0.3626  0.2854
 9021TIP3    H148478   5.935   5.295   3.237  2.9984  1.7196  0.9275
 9021TIP3    H248479   5.960   5.357   3.101 -0.0205  1.1657  0.0732
 9022TIP3   OH248480   6.607   5.150   3.234  0.4447  0.3422  0.0224
 9022TIP3    H148481   6.595   5.218   3.168 -0.5045  0.1496 -0.0137
 9022TIP3    H248482   6.545   5.081   3.209  0.8654 -0.2103  0.4810
 9023TIP3   OH248483   5.609   4.131   3.162  0.6083  0.2238  0.1432
 9023TIP3    H148484   5.665   4.056   3.183 -0.9964 -0.9476  0.3173
 9023TIP3    H248485   5.521   4.102   3.185 -0.0111  2.2431  0.3887
 9024TIP3   OH248486   4.881   5.424  13.076  0.3528  0.4780 -0.4709
 9024TIP3    H148487   4.894   5.354  13.140  0.9939 -1.2949 -2.4934
 9024TIP3    H248488   4.864   5.379  12.993  0.9666  2.7066 -1.8694
 9025TIP3   OH248489   5.249   1.833   2.153 -0.0084  0.4586  0.0242
 9025TIP3    H148490   5.337   1.799   2.171 -0.0228  0.6729  0.5185
 9025TIP3    H248491   5.265   1.917   2.109  0.0377  0.5934  0.2952
 9026TIP3   OH248492   0.102   3.859  10.621 -0.2603  0.3153 -0.0070
 9026TIP3    H148493   0.141   3.931  10.572 -0.8201  1.1951  0.8285
 9026TIP3    H248494   0.029   3.899  10.669 -1.6223 -1.1247 -0.8335
 9027TIP3   OH248495   2.307   1.750   5.042  0.1529 -0.1840 -0.6674
 9027TIP3    H148496   2.388   1.757   5.093 -0.0000 -0.2918 -0.4046
 9027TIP3    H248497   2.250   1.696   5.097 -0.5111  0.8400 -0.3256
 9028TIP3   OH248498   6.498   4.507  16.217 -0.2601  0.0330  0.3776
 9028TIP3    H148499   6.514   4.430  16.162 -2.2012 -0.7059  0.8105
 9028TIP3    H248500   6.435   4.559  16.168  1.8201  1.9087 -0.3912
 9029TIP3   OH248501   0.606   2.494  16.719 -0.1686 -0.3592  0.0468
 9029TIP3    H148502   0.660   2.420  16.746  1.0299  1.1599  1.9693
 9029TIP3    H248503   0.584   2.538  16.801 -2.8719  0.0628 -0.8599
 9030TIP3   OH248504   4.134   1.662  16.303 -0.3594  0.6042  0.2214
 9030TIP3    H148505   4.187   1.610  16.363 -1.2620 -0.8868 -0.2419
 9030TIP3    H248506   4.064   1.697  16.358 -2.0951 -2.0653 -0.2311
 9031TIP3   OH248507   6.221   1.958  14.965 -0.3827  0.4714 -0.0025
 9031TIP3    H148508   6.291   1.922  15.019 -0.7272 -1.3993 -0.7679
 9031TIP3    H248509   6.221   2.051  14.985  0.7461  0.1078  1.7833
 9032TIP3   OH248510   5.343   2.369  17.129 -0.5193  0.0239 -0.5701
 9032TIP3    H148511   5.414   2.392  17.069 -0.3751 -1.6765 -1.0651
 9032TIP3    H248512   5.274   2.433  17.109  0.1259  0.4592 -1.4529
 9033TIP3   OH248513   2.499   1.566  12.056 -0.5412 -0.6981 -0.3016
 9033TIP3    H148514   2.423   1.532  12.008 -0.0660 -0.8823 -0.9269
 9033TIP3    H248515   2.574   1.530  12.009 -0.0612 -0.0695 -0.0063
 9034TIP3   OH248516   0.776   6.317   3.670  0.1065 -0.6407 -0.1403
 9034TIP3    H148517   0.730   6.358   3.597  0.4858  1.4682  0.7807
 9034TIP3    H248518   0.869   6.328   3.648  0.2250  0.2531  0.7793
 9035TIP3   OH248519   3.516   2.131  15.489  0.0843 -1.1927  0.3455
 9035TIP3    H148520   3.572   2.054  15.482  0.2243 -1.0795  0.2249
 9035TIP3    H248521   3.429   2.100  15.463  0.0279 -1.4372  0.8089
 9036TIP3   OH248522   3.177   0.826  11.598 -0.7361 -0.3705 -0.0369
 9036TIP3    H148523   3.098   0.847  11.647 -0.4146  0.1572  0.2508
 9036TIP3    H248524   3.145   0.788  11.516 -1.2757 -0.7693  0.3598
 9037TIP3   OH248525   3.968   6.293  15.349 -0.2897 -0.2212  0.1017
 9037TIP3    H148526   3.900   6.264  15.410 -0.0988  0.3286  0.5825
 9037TIP3    H248527   3.922   6.306  15.266 -0.7717  0.1512  0.4227
 9038TIP3   OH248528   1.454   2.571  13.700 -0.0886  0.2008 -0.0211
 9038TIP3    H148529   1.508   2.627  13.645 -1.2914  0.8916 -0.5226
 9038TIP3    H248530   1.393   2.530  13.639  0.9790 -1.9317  0.2885
 9039TIP3   OH248531   2.538   2.910   3.633  0.0560 -0.3846 -0.4261
 9039TIP3    H148532   2.605   2.876   3.692  0.3404 -0.3191 -0.7103
 9039TIP3    H248533   2.569   2.888   3.546  0.6911  1.3818 -0.6598
 9040TIP3   OH248534   5.787   3.649  15.556  0.1995 -1.2232 -0.1995
 9040TIP3    H148535   5.881   3.661  15.569  0.0724 -0.9811  0.4864
 9040TIP3    H248536   5.778   3.636  15.461  0.7861 -0.0238 -0.4367
 9041TIP3   OH248537   0.320   2.673  13.673  0.0173 -0.0651  0.0705
 9041TIP3    H148538   0.251   2.723  13.717  1.6475  1.7121  0.6522
 9041TIP3    H248539   0.366   2.738  13.620  0.2744 -1.5374 -1.5432
 9042TIP3   OH248540   4.773   3.165  16.129 -0.3051 -0.2279  0.2232
 9042TIP3    H148541   4.835   3.227  16.167 -0.8616 -0.5222  1.6142
 9042TIP3    H248542   4.782   3.086  16.182 -2.8399  0.1798  1.3017
 9043TIP3   OH248543   3.117   0.693   4.755  0.1013 -0.2180  0.6611
 9043TIP3    H148544   3.045   0.691   4.818  0.2890  0.5422  0.9021
 9043TIP3    H248545   3.117   0.782   4.720  0.7897 -0.2745  0.5027
 9044TIP3   OH248546   4.692   4.230   5.274 -0.6449 -0.3860  0.4104
 9044TIP3    H148547   4.741   4.309   5.250 -2.7827  0.5752 -0.9297
 9044TIP3    H248548   4.661   4.247   5.363  0.9338 -0.7535  1.0414
 9045TIP3   OH248549   1.667   4.963   2.602 -0.2618 -0.7206 -0.0081
 9045TIP3    H148550   1.668   5.059   2.604 -0.6509 -0.7137  2.6132
 9045TIP3    H248551   1.749   4.939   2.560 -0.2311  0.7667 -0.8454
 9046TIP3   OH248552   3.927   5.108  16.427  0.6645  0.7127 -0.1586
 9046TIP3    H148553   3.891   5.047  16.361 -1.1508  1.1917  0.3506
 9046TIP3    H248554   3.940   5.190  16.379  1.1804  0.5148 -0.3639
 9047TIP3   OH248555   5.196   6.127   2.012 -0.3887  0.1077 -0.0376
 9047TIP3    H148556   5.221   6.096   2.099 -0.3387 -2.3466 -0.9018
 9047TIP3    H248557   5.103   6.108   2.006  0.1175 -2.0322 -1.4448
 9048TIP3   OH248558   2.006   2.662   5.512 -0.5582 -0.3932  0.4212
 9048TIP3    H148559   2.027   2.634   5.423 -0.5360  0.9991 -0.0153
 9048TIP3    H248560   1.924   2.617   5.533 -0.7323 -0.4637 -0.4185
 9049TIP3   OH248561   5.950   4.994  12.205 -0.5078  0.4971 -0.5990
 9049TIP3    H148562   5.903   5.072  12.175 -1.3853 -0.2621 -1.2261
 9049TIP3    H248563   5.952   5.002  12.300 -0.1400  1.5408 -0.6901
 9050TIP3   OH248564   6.292   6.337  14.000  0.2547 -0.7269 -0.1493
 9050TIP3    H148565   6.227   6.373  14.061  1.6836  1.0959  0.3531
 9050TIP3    H248566   6.376   6.367  14.035  1.3741 -2.8777 -0.9040
 9051TIP3   OH248567   4.933   5.211   4.797 -0.9734  0.2197  0.0978
 9051TIP3    H148568   4.887   5.156   4.734 -0.9496  0.1363  0.1532
 9051TIP3    H248569   4.972   5.149   4.859 -1.8825  0.3418  0.8055
 9052TIP3   OH248570   4.441   4.346   3.611 -0.2856 -0.1711  0.0610
 9052TIP3    H148571   4.465   4.436   3.589  0.0574 -0.5840 -1.3735
 9052TIP3    H248572   4.376   4.322   3.545 -1.0410 -0.6823  0.9820
 9053TIP3   OH248573   2.462   2.157   3.126 -0.0565 -0.0385  0.4118
 9053TIP3    H148574   2.413   2.148   3.044 -0.6625  0.3931  0.7247
 9053TIP3    H248575   2.518   2.233   3.112 -0.1557  0.0324  0.4012
 9054TIP3   OH248576   3.948   2.408   3.121  0.3535  0.1746  0.0082
 9054TIP3    H148577   3.993   2.349   3.182 -1.3711 -2.8332 -1.5041
 9054TIP3    H248578   3.905   2.473   3.176 -0.1210 -1.7242  1.9237
 9055TIP3   OH248579   0.999   6.689   0.013 -0.5494  0.0139  0.2846
 9055TIP3    H148580   1.021   6.781   0.022  0.8232 -0.1759 -0.9521
 9055TIP3    H248581   0.979   6.660   0.102  1.7063  0.8273  1.0952
 9056TIP3   OH248582   0.163   5.719  11.573  0.1207  0.1293 -0.2576
 9056TIP3    H148583   0.165   5.813  11.592 -1.0148 -0.0203  0.7039
 9056TIP3    H248584   0.206   5.678  11.648  1.6186 -0.0711 -1.1949
 9057TIP3   OH248585   1.805   4.801   2.221 -0.1042  0.1997 -0.2701
 9057TIP3    H148586   1.815   4.894   2.201 -2.5313  0.6537  0.5142
 9057TIP3    H248587   1.863   4.787   2.296  3.2849  0.1339 -2.7675
 9058TIP3   OH248588   0.193   0.046   4.504  0.1415  0.0950  0.3378
 9058TIP3    H148589   0.145   0.044   4.421 -0.0039 -0.0912  0.4271
 9058TIP3    H248590   0.200  -0.046   4.530  3.9276 -0.2569 -1.6232
 9059TIP3   OH248591   3.008   5.045   0.453  0.2130 -0.8905 -0.4501
 9059TIP3    H148592   3.013   5.013   0.543  0.8878 -1.3416 -0.6416
 9059TIP3    H248593   2.941   5.113   0.455  1.2709  0.1407  0.7060
 9060TIP3   OH248594   5.303   5.757  14.067 -0.3229 -0.7570  0.4717
 9060TIP3    H148595   5.223   5.782  14.114 -0.0809  0.2535  0.3554
 9060TIP3    H248596   5.366   5.827  14.088  0.1182 -0.8570 -0.4947
 9061TIP3   OH248597   3.421   3.779   5.485 -0.0725 -0.0501 -0.1376
 9061TIP3    H148598   3.463   3.771   5.571  1.1157  0.1430 -0.6890
 9061TIP3    H248599   3.328   3.762   5.502  0.0998  0.2999  1.2401
 9062TIP3   OH248600   0.988   0.316  11.795 -0.7850  0.2215 -0.5229
 9062TIP3    H148601   0.986   0.404  11.832  1.0885 -0.3084  0.9852
 9062TIP3    H248602   1.079   0.305  11.765 -0.7607 -1.4809  0.1160
 9063TIP3   OH248603   0.402   5.596   1.785 -0.1097 -0.1356 -0.3033
 9063TIP3    H148604   0.357   5.676   1.758 -1.8727 -0.5401  1.3382
 9063TIP3    H248605   0.479   5.626   1.833 -0.8998  0.5779  0.5256
 9064TIP3   OH248606   6.015   5.020   1.720 -0.4812  0.0325 -0.1210
 9064TIP3    H148607   5.934   5.069   1.711 -1.2488 -0.6172  2.6595
 9064TIP3    H248608   6.010   4.981   1.807  1.2094 -2.9699 -1.2766
 9065TIP3   OH248609   4.108   3.617  16.566 -0.1564 -0.1428  0.7191
 9065TIP3    H148610   4.178   3.682  16.557 -1.0064  0.9854  2.1285
 9065TIP3    H248611   4.056   3.626  16.487  0.8634 -0.4732  0.0036
 9066TIP3   OH248612   3.518   2.537  16.163 -0.2192 -0.0658 -0.2417
 9066TIP3    H148613   3.521   2.573  16.251 -0.2425  2.6836 -1.3045
 9066TIP3    H248614   3.593   2.477  16.159  1.3884  1.8113  0.8262
 9067TIP3   OH248615   0.112   4.162   4.307 -0.2356  0.1569  0.2584
 9067TIP3    H148616   0.184   4.191   4.363  0.6871  0.1977 -0.9251
 9067TIP3    H248617   0.152   4.095   4.250 -0.7298  1.2929 -1.4588
 9068TIP3   OH248618   0.311   5.263  11.571 -0.2042 -0.0896 -0.2489
 9068TIP3    H148619   0.386   5.301  11.524  2.0008 -2.0545  1.5355
 9068TIP3    H248620   0.302   5.317  11.649 -0.4401 -0.0629 -0.2948
 9069TIP3   OH248621   5.790   2.922  13.863 -0.1988  0.1275 -0.0354
 9069TIP3    H148622   5.818   3.013  13.849  0.5191 -0.2317 -0.9584
 9069TIP3    H248623   5.777   2.916  13.958 -0.0831  1.1484  0.0569
 9070TIP3   OH248624   3.862   3.631   4.832 -0.4904 -0.0333 -0.1379
 9070TIP3    H148625   3.868   3.657   4.924 -2.4737 -0.6700  0.2082
 9070TIP3    H248626   3.941   3.579   4.816 -1.0589 -1.5499  1.7764
 9071TIP3   OH248627   1.374   0.850  15.201  0.6705  0.6040 -0.6146
 9071TIP3    H148628   1.325   0.783  15.153  1.4670 -0.0019 -0.5762
 9071TIP3    H248629   1.454   0.806  15.230  1.8392  1.9282 -1.7499
 9072TIP3   OH248630   5.847   5.872  13.385 -0.3745 -0.2521 -0.7228
 9072TIP3    H148631   5.802   5.787  13.382 -2.0027  0.6092 -1.1241
 9072TIP3    H248632   5.808   5.922  13.312 -1.7124  1.9523  1.4254
 9073TIP3   OH248633   6.768   1.807   5.819 -0.2150 -0.5234  0.2342
 9073TIP3    H148634   6.849   1.857   5.824 -2.3050  2.9268  1.3981
 9073TIP3    H248635   6.776   1.741   5.888  2.0519 -1.0421 -0.4743
 9074TIP3   OH248636   2.240   1.073  15.445  0.4833 -0.1552  0.3722
 9074TIP3    H148637   2.294   1.108  15.374 -0.1738 -0.2028 -0.1615
 9074TIP3    H248638   2.255   1.132  15.519  0.6822  0.2673 -0.0065
 9075TIP3   OH248639   0.590   5.345  12.612 -0.3850  0.3274  0.0472
 9075TIP3    H148640   0.593   5.359  12.518 -2.0525  1.3259  0.1298
 9075TIP3    H248641   0.626   5.426  12.649  0.2044 -0.0365  0.2784
 9076TIP3   OH248642   1.105   1.308  12.513  0.3294  0.3086 -0.2429
 9076TIP3    H148643   1.034   1.307  12.578  1.2625 -0.7158  0.7864
 9076TIP3    H248644   1.146   1.394  12.523 -0.7538  0.9012 -0.8347
 9077TIP3   OH248645   5.569   1.102   4.040  0.4417  0.0416  0.0962
 9077TIP3    H148646   5.583   1.137   3.952  0.4142 -2.5880 -0.9992
 9077TIP3    H248647   5.496   1.154   4.074  1.9709  2.6960 -0.4591
 9078TIP3   OH248648   4.739   0.385   4.927 -0.4066 -0.3768  0.2679
 9078TIP3    H148649   4.648   0.393   4.955 -0.4740 -0.1782  0.0046
 9078TIP3    H248650   4.734   0.382   4.831 -0.0261  1.4358  0.1613
 9079TIP3   OH248651   4.322   0.437   1.007 -0.3096  0.2333  0.0969
 9079TIP3    H148652   4.334   0.342   1.012 -2.6293 -0.0081  1.4784
 9079TIP3    H248653   4.352   0.460   0.919  2.1047 -1.4853  0.4117
 9080TIP3   OH248654   5.008   2.561   0.404  0.2537  0.6718  0.4381
 9080TIP3    H148655   5.013   2.472   0.439 -2.4118  0.4037  0.2288
 9080TIP3    H248656   5.086   2.605   0.438  0.8929 -1.3543  1.6501
 9081TIP3   OH248657   4.917   0.158  10.668 -0.4202  0.4825 -0.1695
 9081TIP3    H148658   4.972   0.162  10.746  0.7591  1.8552 -1.0487
 9081TIP3    H248659   4.852   0.228  10.680 -0.8451  0.0591  0.0205
 9082TIP3   OH248660   5.984   4.530   1.447  0.4768  0.6705 -0.6957
 9082TIP3    H148661   6.012   4.495   1.532  0.1607  2.2381  0.0723
 9082TIP3    H248662   5.935   4.609   1.468 -0.4052  0.5778 -2.3023
 9083TIP3   OH248663   6.198   1.132   3.697  0.8522 -0.5355  0.1871
 9083TIP3    H148664   6.273   1.191   3.702 -0.4026  1.0740  0.2737
 9083TIP3    H248665   6.233   1.047   3.725  2.1444  0.6445  2.2650
 9084TIP3   OH248666   5.611   4.229   4.895  0.2580  0.3761  0.1568
 9084TIP3    H148667   5.629   4.152   4.841 -1.8377 -0.2672  0.3330
 9084TIP3    H248668   5.657   4.211   4.978 -0.1430 -0.6532  0.1618
 9085TIP3   OH248669   1.809   5.970  16.719 -0.0713 -0.2705 -0.1221
 9085TIP3    H148670   1.867   6.043  16.741 -2.5767  2.1565 -1.3023
 9085TIP3    H248671   1.725   5.992  16.761 -1.3911 -1.5611 -1.9840
 9086TIP3   OH248672   4.313   4.939  14.333  0.1373  0.0017 -0.4784
 9086TIP3    H148673   4.364   4.911  14.257 -1.4997 -0.6904 -1.3422
 9086TIP3    H248674   4.334   5.032  14.343 -0.2649  0.2974 -2.2810
 9087TIP3   OH248675   3.285   1.744   2.803 -0.5758 -0.1749  0.6104
 9087TIP3    H148676   3.374   1.760   2.834 -0.6428  0.4858  0.4692
 9087TIP3    H248677   3.259   1.662   2.845  0.0665 -0.3258  0.7176
 9088TIP3   OH248678   2.661   0.890  13.606 -0.4458 -0.5574 -0.7816
 9088TIP3    H148679   2.643   0.984  13.594  1.9939  0.0928  0.4301
 9088TIP3    H248680   2.741   0.875  13.556 -0.1947 -1.7424 -0.0341
 9089TIP3   OH248681   6.049   5.905   2.078 -0.4146 -0.2765 -0.1058
 9089TIP3    H148682   6.046   5.924   2.172 -1.9937  1.2347 -0.4122
 9089TIP3    H248683   5.969   5.854   2.062  0.2108 -1.1307 -0.5162
 9090TIP3   OH248684   4.738   3.714   4.942  0.4061 -0.5235 -0.0872
 9090TIP3    H148685   4.809   3.673   4.991 -0.8469  0.4158  2.5549
 9090TIP3    H248686   4.747   3.808   4.960 -1.7257 -0.4240  0.5730
 9091TIP3   OH248687   4.772   6.114   4.509 -0.1433  0.0064 -0.1461
 9091TIP3    H148688   4.810   6.199   4.488 -1.1644  0.6400  0.4872
 9091TIP3    H248689   4.834   6.074   4.570  0.2557  0.3828 -0.3056
 9092TIP3   OH248690   2.230   3.623  11.785  0.1167 -0.2328  0.1310
 9092TIP3    H148691   2.162   3.684  11.814  0.1543 -0.5356  0.8718
 9092TIP3    H248692   2.182   3.545  11.757  0.0906 -0.0065 -0.4557
 9093TIP3   OH248693   3.895   3.273  12.766 -0.5061 -0.2630 -0.2747
 9093TIP3    H148694   3.883   3.188  12.807  0.2251 -0.2394  0.0048
 9093TIP3    H248695   3.866   3.260  12.676 -0.5235 -0.7748 -0.1987
 9094TIP3   OH248696   4.694   0.230   4.427 -0.1679  0.0266  0.2118
 9094TIP3    H148697   4.774   0.247   4.476 -1.1231 -1.1622  2.2406
 9094TIP3    H248698   4.718   0.161   4.365  0.7388  0.7041 -0.2039
 9095TIP3   OH248699   1.589   4.920  16.420  0.5650  0.2445 -0.1914
 9095TIP3    H148700   1.523   4.885  16.480  2.3135 -1.7091  0.6248
 9095TIP3    H248701   1.580   4.865  16.341  0.3726  0.7865 -0.5472
 9096TIP3   OH248702   2.183   1.621  15.052 -0.5072 -0.8554 -0.4779
 9096TIP3    H148703   2.274   1.639  15.078 -0.7396 -1.5093  0.7900
 9096TIP3    H248704   2.167   1.531  15.079 -1.5387 -0.7403 -0.6789
 9097TIP3   OH248705   5.995   0.723   5.536 -0.4333  0.2586 -0.1652
 9097TIP3    H148706   6.024   0.643   5.492 -1.5814 -0.3869  0.1990
 9097TIP3    H248707   5.957   0.692   5.618  2.4701  1.5057  1.7325
 9098TIP3   OH248708   2.779   1.920   2.550 -0.4078  1.0883  0.1116
 9098TIP3    H148709   2.747   1.923   2.640 -1.3526  1.8123 -0.2486
 9098TIP3    H248710   2.870   1.889   2.559 -1.2623 -1.3106  1.1046
 9099TIP3   OH248711   2.408   6.594   4.950 -0.2453 -0.0164  0.0108
 9099TIP3    H148712   2.477   6.643   4.906 -0.4993  2.8907  2.5912
 9099TIP3    H248713   2.453   6.545   5.018 -0.3343 -0.9411 -0.5958
 9100TIP3   OH248714   6.516   4.346  14.776 -0.3694 -0.0518 -0.1710
 9100TIP3    H148715   6.590   4.365  14.719  0.9651 -1.5310  1.0322
 9100TIP3    H248716   6.500   4.252  14.764 -2.2895  0.3242 -0.7036
 9101TIP3   OH248717   0.127   4.561  12.055  0.1883  0.0723  0.0396
 9101TIP3    H148718   0.128   4.560  12.151 -1.0939  1.9888  0.1097
 9101TIP3    H248719   0.162   4.476  12.030  1.4008 -0.1135  2.2026
 9102TIP3   OH248720   4.708   6.380  12.086  0.0863  0.6429  0.1387
 9102TIP3    H148721   4.799   6.388  12.057 -0.4033  2.6122 -0.9228
 9102TIP3    H248722   4.656   6.388  12.006 -1.0714  0.3158  0.8374
 9103TIP3   OH248723   0.402   0.262  13.107  0.2800  0.2614  0.4046
 9103TIP3    H148724   0.353   0.305  13.176 -1.0491 -0.0040 -0.3610
 9103TIP3    H248725   0.421   0.331  13.044 -0.4392  0.0597 -0.0358
 9104TIP3   OH248726   1.062   3.254   3.798  0.2435 -0.2436 -0.8775
 9104TIP3    H148727   1.156   3.239   3.809  0.1910  0.6711  1.0669
 9104TIP3    H248728   1.034   3.290   3.882 -1.4874  1.3186 -2.0889
 9105TIP3   OH248729   6.618   2.920  14.679 -0.5412  0.1305  0.0763
 9105TIP3    H148730   6.675   2.856  14.635  0.8147  1.5083 -0.2026
 9105TIP3    H248731   6.678   2.985  14.715 -1.9121  1.2284  0.4143
 9106TIP3   OH248732   4.614   0.195  16.780  0.3601 -0.7280  0.4580
 9106TIP3    H148733   4.673   0.202  16.855  0.7500 -2.6517  0.3527
 9106TIP3    H248734   4.526   0.192  16.818  0.1598  3.4633  0.5547
 9107TIP3   OH248735   2.058   3.525   5.737  0.1832  0.4550 -0.5805
 9107TIP3    H148736   2.126   3.481   5.789 -1.2863 -1.4158 -0.2024
 9107TIP3    H248737   2.042   3.607   5.785 -1.9039 -1.7000  2.6382
 9108TIP3   OH248738   0.771   3.321   4.144  0.3411 -0.2725  0.6114
 9108TIP3    H148739   0.857   3.300   4.107 -0.3525  0.7391 -1.6318
 9108TIP3    H248740   0.787   3.395   4.202  0.8407  0.5028 -0.5022
 9109TIP3   OH248741   5.768   3.205  13.375 -0.3270 -0.4684  0.4889
 9109TIP3    H148742   5.761   3.262  13.452  0.9554 -1.6322  1.5031
 9109TIP3    H248743   5.844   3.150  13.393 -0.2872 -1.0778 -1.4208
 9110TIP3   OH248744   4.561   1.748  14.398  0.1361 -0.1460  0.3352
 9110TIP3    H148745   4.554   1.843  14.413 -0.9212 -0.2333  0.4507
 9110TIP3    H248746   4.646   1.724  14.436  0.5999  0.8235 -0.0764
 9111TIP3   OH248747   5.882   5.591  15.896  0.4535  0.7504 -0.8567
 9111TIP3    H148748   5.883   5.681  15.864 -0.5794  0.5160 -1.5768
 9111TIP3    H248749   5.902   5.598  15.989 -1.9892  1.9461 -0.3858
 9112TIP3   OH248750   1.388   3.838  16.002  0.1287  0.4111  0.1285
 9112TIP3    H148751   1.334   3.776  16.050  0.5973  1.0603  1.5154
 9112TIP3    H248752   1.340   3.854  15.921 -0.7192 -0.6207  0.4171
 9113TIP3   OH248753   0.006   2.960   1.929 -0.3349 -0.4195 -0.2988
 9113TIP3    H148754   0.068   2.890   1.908  0.7740  0.8423 -1.2758
 9113TIP3    H248755   0.050   3.040   1.901 -2.7746  0.4257 -1.7786
 9114TIP3   OH248756   6.128   1.911  16.583 -0.4437  0.0130 -0.1190
 9114TIP3    H148757   6.086   1.843  16.530  0.4828  0.4644 -1.4637
 9114TIP3    H248758   6.188   1.863  16.640 -0.9456 -0.4213  0.0515
 9115TIP3   OH248759   1.253   0.996  14.850 -0.0700  0.4320 -0.0590
 9115TIP3    H148760   1.340   0.959  14.843  0.1810  0.9425  0.3530
 9115TIP3    H248761   1.194   0.921  14.843  0.4420 -0.1118  1.3054
 9116TIP3   OH248762   4.305   3.336  11.466 -0.1283 -0.1902  0.3929
 9116TIP3    H148763   4.241   3.368  11.530 -1.3756 -0.4647 -0.6926
 9116TIP3    H248764   4.270   3.364  11.382  2.6426  2.0800 -0.0412
 9117TIP3   OH248765   6.570   5.118  13.348 -0.0717  0.0358 -0.2651
 9117TIP3    H148766   6.531   5.128  13.261  0.1169  0.9502 -0.2463
 9117TIP3    H248767   6.494   5.107  13.407 -0.2573  0.7457 -0.3690
 9118TIP3   OH248768   0.132   3.123   3.723 -0.1392 -0.0769 -0.5486
 9118TIP3    H148769   0.165   3.149   3.637 -1.9316 -2.7942 -2.1321
 9118TIP3    H248770   0.041   3.149   3.723 -0.3871 -0.9143  0.1501
 9119TIP3   OH248771   0.455   4.515  12.754  0.3898  0.3091  0.0595
 9119TIP3    H148772   0.416   4.552  12.834 -0.2902 -0.4432  0.0818
 9119TIP3    H248773   0.473   4.592  12.699 -1.0565  0.6903  0.0863
 9120TIP3   OH248774   4.654   3.891   4.113  0.2372 -0.2225  0.1112
 9120TIP3    H148775   4.610   3.824   4.061  0.1296  0.6480 -0.9230
 9120TIP3    H248776   4.699   3.841   4.182 -1.7630 -1.1830  0.7635
 9121TIP3   OH248777   4.631   2.325  17.222 -0.3549 -0.3155 -0.1014
 9121TIP3    H148778   4.672   2.388  17.281  0.0050 -0.3603 -0.3009
 9121TIP3    H248779   4.547   2.305  17.263 -0.4462  0.2453 -0.0053
 9122TIP3   OH248780   1.998   0.578  11.797 -0.0057 -0.0414 -0.0920
 9122TIP3    H148781   1.935   0.507  11.802  2.7155 -2.6344 -0.8259
 9122TIP3    H248782   2.026   0.591  11.887  0.0569 -0.4837 -0.0436
 9123TIP3   OH248783   6.251   5.081   0.239  0.1564 -0.3633 -0.0136
 9123TIP3    H148784   6.166   5.122   0.256  1.3159  2.2100 -0.1711
 9123TIP3    H248785   6.290   5.134   0.170  1.4864 -2.1250 -0.6441
 9124TIP3   OH248786   0.110   4.110  16.778  0.0819 -0.1015 -0.0653
 9124TIP3    H148787   0.191   4.132  16.824  0.9056 -1.0965 -1.0122
 9124TIP3    H248788   0.140   4.072  16.695 -1.3636  2.8842 -2.0363
 9125TIP3   OH248789   4.580   5.829   1.515 -0.0639  0.1132  0.2085
 9125TIP3    H148790   4.486   5.845   1.514 -0.3010 -1.2130  0.6431
 9125TIP3    H248791   4.619   5.915   1.498 -1.3077  0.9582  1.5464
 9126TIP3   OH248792   4.768   1.459  10.836 -0.1809 -0.0658 -0.3817
 9126TIP3    H148793   4.860   1.440  10.849  0.1370  0.8566 -1.2073
 9126TIP3    H248794   4.760   1.477  10.742 -1.3552 -0.9961 -0.4632
 9127TIP3   OH248795   5.726   5.629  10.713  0.1479  0.1839  0.1617
 9127TIP3    H148796   5.817   5.654  10.730  0.1369 -0.5272  1.2909
 9127TIP3    H248797   5.731   5.578  10.632  0.6281  0.9534 -0.2986
 9128TIP3   OH248798   3.246   3.235  11.658 -0.0303  0.2159 -0.5194
 9128TIP3    H148799   3.249   3.325  11.626  1.6782  0.8896  1.4451
 9128TIP3    H248800   3.286   3.183  11.588  0.0959  1.1340 -1.1314
 9129TIP3   OH248801   4.056   1.096  13.305 -0.1186 -0.5021 -0.4756
 9129TIP3    H148802   4.138   1.111  13.257  0.6724  0.3452  1.1003
 9129TIP3    H248803   4.059   1.004  13.330 -0.4898 -0.9269 -1.9273
 9130TIP3   OH248804   6.552   4.423  16.687  0.0854  0.0681  0.1006
 9130TIP3    H148805   6.590   4.336  16.675  0.5903  0.6307 -2.7247
 9130TIP3    H248806   6.490   4.412  16.759  2.1986 -1.9423  1.6810
 9131TIP3   OH248807   1.273   1.143   2.962 -0.4842 -0.5785 -0.1301
 9131TIP3    H148808   1.280   1.160   2.868  1.0870 -0.2579  0.0269
 9131TIP3    H248809   1.233   1.222   2.998  0.1847 -0.1394 -0.3472
 9132TIP3   OH248810   2.154   0.365   3.013 -0.2430  0.2169  0.1650
 9132TIP3    H148811   2.164   0.413   3.095 -1.9125 -0.4240  0.7580
 9132TIP3    H248812   2.159   0.273   3.038  0.7212  0.0257 -0.6683
 9133TIP3   OH248813   3.903   5.994  14.402 -0.1844 -0.2226 -0.3226
 9133TIP3    H148814   3.940   5.986  14.490 -0.2509 -0.6328 -0.3255
 9133TIP3    H248815   3.829   6.053  14.412 -0.1709 -0.2422 -0.1067
 9134TIP3   OH248816   0.766   4.578   0.690 -0.0165 -0.0097 -0.2708
 9134TIP3    H148817   0.818   4.499   0.701 -0.0090 -0.0554 -0.6451
 9134TIP3    H248818   0.751   4.585   0.596  0.5285  0.7743 -0.3133
 9135TIP3   OH248819   4.897   5.822  16.427 -0.2563  1.1960  0.7139
 9135TIP3    H148820   4.980   5.846  16.384  0.5774  0.0845  1.6694
 9135TIP3    H248821   4.836   5.809  16.355  0.9429  0.0191 -0.1115
 9136TIP3   OH248822   5.560   0.974  16.889 -0.2905  0.2575  0.1562
 9136TIP3    H148823   5.473   0.981  16.927 -1.3012 -2.1395 -1.6528
 9136TIP3    H248824   5.571   1.054  16.838 -1.6041  0.3328 -0.0085
 9137TIP3   OH248825   4.417   5.482   5.241 -0.4107  0.4047 -0.3149
 9137TIP3    H148826   4.502   5.440   5.258  0.0041  0.7661 -1.4607
 9137TIP3    H248827   4.399   5.532   5.321  0.6018  0.5571 -0.1772
 9138TIP3   OH248828   2.379   3.411  15.920  0.3557  0.3455 -0.2068
 9138TIP3    H148829   2.373   3.368  16.005  1.5530  0.8777  0.1462
 9138TIP3    H248830   2.363   3.341  15.857  1.7524 -0.5088  0.3818
 9139TIP3   OH248831   0.170   1.065  15.184 -0.1708  0.6583  0.4797
 9139TIP3    H148832   0.080   1.071  15.215 -0.5544 -1.0854 -0.2600
 9139TIP3    H248833   0.170   1.114  15.102 -0.6481 -0.0369  0.0624
 9140TIP3   OH248834   5.023   6.440   3.876 -0.1004  0.1927  0.4557
 9140TIP3    H148835   5.034   6.379   3.803  1.3920 -1.4063  1.9953
 9140TIP3    H248836   4.929   6.436   3.896 -0.2924 -0.3328 -0.5119
 9141TIP3   OH248837   1.894   1.887   5.595 -0.0114 -0.2330 -0.0743
 9141TIP3    H148838   1.897   1.823   5.523  0.3979 -0.4511  0.1315
 9141TIP3    H248839   1.868   1.969   5.553  0.7131 -0.2427 -0.5609
 9142TIP3   OH248840   2.534   0.054  16.257  0.0813  0.0335 -0.8359
 9142TIP3    H148841   2.498   0.116  16.194 -0.8150  0.8901  0.4913
 9142TIP3    H248842   2.553   0.108  16.335 -2.1552 -1.5855  0.9067
 9143TIP3   OH248843   0.011   4.978   4.847 -0.4094  0.9103  0.2422
 9143TIP3    H148844  -0.058   4.930   4.894  0.9758 -1.9594 -0.5247
 9143TIP3    H248845   0.091   4.956   4.895  0.2425  2.7191  0.0052
 9144TIP3   OH248846   0.684   0.096  16.105 -0.0800 -0.0934 -0.1700
 9144TIP3    H148847   0.630   0.156  16.053  0.4799 -0.9642 -1.7840
 9144TIP3    H248848   0.648   0.102  16.194 -1.8003  0.5309 -0.8944
 9145TIP3   OH248849   1.155   6.149  17.060  0.5040  0.0788  0.7993
 9145TIP3    H148850   1.083   6.107  17.106  0.2684 -1.7864 -1.2109
 9145TIP3    H248851   1.233   6.101  17.089  0.3013 -1.4129 -1.0506
 9146TIP3   OH248852   5.875   3.437   0.317 -0.0635  0.0805 -0.3073
 9146TIP3    H148853   5.866   3.484   0.399 -1.6481 -1.2139  0.2824
 9146TIP3    H248854   5.967   3.410   0.315  1.1780  4.1021 -1.2008
 9147TIP3   OH248855   3.424   1.299  11.096  0.6531 -0.4045 -0.0651
 9147TIP3    H148856   3.461   1.264  11.015  0.2219  4.1156 -2.3684
 9147TIP3    H248857   3.330   1.281  11.089  0.3084  1.7826 -1.6422
 9148TIP3   OH248858   6.053   6.234  15.277 -0.2758 -0.9035 -0.5447
 9148TIP3    H148859   6.090   6.239  15.365 -0.3364  0.5017 -0.5747
 9148TIP3    H248860   5.979   6.295  15.279 -0.3319 -0.9284 -1.5387
 9149TIP3   OH248861   2.939   5.583  13.178 -0.1051 -0.4110  0.2812
 9149TIP3    H148862   2.844   5.587  13.189 -0.2183 -0.2859 -0.6778
 9149TIP3    H248863   2.953   5.507  13.121  0.2308  0.5274 -0.9171
 9150TIP3   OH248864   0.643   2.284   6.544 -0.5829  0.3699  0.2129
 9150TIP3    H148865   0.631   2.334   6.625  2.5649  1.7166 -0.0951
 9150TIP3    H248866   0.727   2.240   6.555 -0.1772  0.4538 -2.2767
 9151TIP3   OH248867   0.351   0.014   2.813  0.1413  0.3699  0.3533
 9151TIP3    H148868   0.304   0.087   2.771 -0.1761  0.5295  0.9869
 9151TIP3    H248869   0.427   0.055   2.855 -0.0379  0.3337  0.7115
 9152TIP3   OH248870   5.077   1.113   0.922  0.2397  0.7770  0.1138
 9152TIP3    H148871   5.138   1.041   0.937 -1.2943 -0.9001 -1.3715
 9152TIP3    H248872   5.036   1.129   1.007 -0.8149 -1.4606  0.0503
 9153TIP3   OH248873   0.988   2.068   3.971  0.1230  0.2619  0.3389
 9153TIP3    H148874   1.064   2.018   3.942 -0.7177 -0.7191 -0.2018
 9153TIP3    H248875   0.957   2.113   3.892 -0.0994  0.3461  0.4716
 9154TIP3   OH248876   5.152   2.945  14.514  0.0152 -0.4691 -0.3400
 9154TIP3    H148877   5.226   2.954  14.574 -0.4201 -0.2270  0.1683
 9154TIP3    H248878   5.140   3.033  14.478  0.0098 -0.5196 -0.4609
 9155TIP3   OH248879   3.662   2.637   1.001  0.0774 -0.3072  0.2644
 9155TIP3    H148880   3.736   2.654   0.943  1.5152 -0.4687  2.0167
 9155TIP3    H248881   3.666   2.707   1.066  1.0832 -2.5772  2.7084
 9156TIP3   OH248882   5.297   3.528   5.360  0.8711  0.2210  0.1485
 9156TIP3    H148883   5.353   3.585   5.412 -1.2621 -0.2465  3.1482
 9156TIP3    H248884   5.345   3.445   5.355  2.2955  1.1047 -0.9748
 9157TIP3   OH248885   4.607   3.410   3.300 -0.5871  0.4860  0.1804
 9157TIP3    H148886   4.525   3.363   3.292  0.1318 -1.2298  2.4088
 9157TIP3    H248887   4.598   3.461   3.380 -0.1315  1.6615 -0.5007
 9158TIP3   OH248888   3.313   3.204   0.371 -1.4335 -0.1607  0.0790
 9158TIP3    H148889   3.320   3.119   0.328 -1.5398 -0.2528  0.2436
 9158TIP3    H248890   3.308   3.183   0.464 -2.0765  0.0008  0.0819
 9159TIP3   OH248891   1.639   6.733   0.711  0.1495  0.8826 -0.7191
 9159TIP3    H148892   1.646   6.826   0.734  1.1315  0.9153 -1.1221
 9159TIP3    H248893   1.593   6.733   0.627  0.1623  0.9999 -0.7265
 9160TIP3   OH248894   1.114   4.471  14.561  0.3314 -0.0728 -0.1611
 9160TIP3    H148895   1.194   4.518  14.538  0.7294 -1.4827 -1.8060
 9160TIP3    H248896   1.144   4.382  14.582 -1.0343 -1.3230 -3.2283
 9161TIP3   OH248897   5.874   2.392   4.394  0.1642 -0.2202  0.1445
 9161TIP3    H148898   5.937   2.459   4.368  0.7357 -0.6208  0.4930
 9161TIP3    H248899   5.892   2.376   4.486  0.7929 -1.6657 -0.2175
 9162TIP3   OH248900   5.800   0.290  14.720  0.0784 -0.2466 -0.1227
 9162TIP3    H148901   5.879   0.336  14.749 -1.5480  1.3866  1.9240
 9162TIP3    H248902   5.730   0.326  14.775 -1.6144 -3.7642  0.1868
 9163TIP3   OH248903   2.446   2.240   3.451 -0.1332  0.0302 -0.3127
 9163TIP3    H148904   2.350   2.239   3.457 -0.1625 -1.2856 -0.8925
 9163TIP3    H248905   2.464   2.244   3.357  0.3784 -1.4388 -0.2874
 9164TIP3   OH248906   0.619   6.263  12.518  0.4104 -0.3937 -0.5784
 9164TIP3    H148907   0.679   6.269  12.444  1.6969  1.0604  0.5551
 9164TIP3    H248908   0.670   6.220  12.587  0.0019  0.3722  0.2212
 9165TIP3   OH248909   1.950   5.720  11.094  0.0905 -0.5608  0.0835
 9165TIP3    H148910   2.020   5.668  11.055  2.7599  1.1189  2.4588
 9165TIP3    H248911   1.947   5.799  11.040 -1.3075 -1.4003 -1.1339
 9166TIP3   OH248912   3.342   1.288  11.630  0.1002 -0.2701 -0.0800
 9166TIP3    H148913   3.365   1.356  11.693  0.3028 -1.4132  1.1064
 9166TIP3    H248914   3.424   1.270  11.583  0.2915 -0.3754  0.2864
 9167TIP3   OH248915   1.237   1.981   4.785  0.2581 -0.3591 -0.4404
 9167TIP3    H148916   1.208   1.905   4.834 -3.0770  1.3061  0.3414
 9167TIP3    H248917   1.187   2.054   4.822  0.9437  1.6797 -3.3195
 9168TIP3   OH248918   2.373   4.408  14.485 -0.2760 -0.4227  0.0587
 9168TIP3    H148919   2.416   4.337  14.532  1.8949  0.4957 -0.4729
 9168TIP3    H248920   2.345   4.469  14.554  0.1251 -0.5712  0.3550
 9169TIP3   OH248921   5.755   5.287  16.419 -0.3984 -0.4547  0.6145
 9169TIP3    H148922   5.763   5.194  16.442  1.6580 -0.1657  1.1222
 9169TIP3    H248923   5.761   5.334  16.502 -1.5515  0.1353  0.3701
 9170TIP3   OH248924   1.601   2.428   2.028  0.0908 -0.0817  0.1571
 9170TIP3    H148925   1.670   2.372   1.994  0.7180  1.0330 -0.4626
 9170TIP3    H248926   1.540   2.369   2.071  2.0846 -0.9738  1.8434
 9171TIP3   OH248927   2.219   1.539  12.427 -0.5325 -0.1090  0.0164
 9171TIP3    H148928   2.149   1.477  12.406  1.1872 -2.9446  2.2237
 9171TIP3    H248929   2.203   1.564  12.518  1.2804 -0.7711  0.5367
 9172TIP3   OH248930   0.758   3.760   4.949  0.3346 -0.3052  0.3462
 9172TIP3    H148931   0.740   3.837   5.003  1.2350 -0.0050  0.2284
 9172TIP3    H248932   0.851   3.768   4.927 -0.1116 -0.1952 -1.5984
 9173TIP3   OH248933   6.490   3.325  11.722 -0.3414  0.4510  0.0684
 9173TIP3    H148934   6.488   3.399  11.783  0.6209 -0.3115  1.0386
 9173TIP3    H248935   6.570   3.278  11.744  0.3504  0.4939 -2.1809
 9174TIP3   OH248936   2.628   5.634   6.097 -0.4093 -0.3336 -0.5721
 9174TIP3    H148937   2.652   5.625   6.189 -1.0931  0.0604 -0.3494
 9174TIP3    H248938   2.696   5.691   6.060 -1.6162  1.7656  0.3290
 9175TIP3   OH248939   4.890   1.834  13.282  0.2912 -0.3002 -0.1065
 9175TIP3    H148940   4.911   1.796  13.367 -0.1228 -1.7183 -0.6223
 9175TIP3    H248941   4.970   1.823  13.231  0.6218  0.7772  0.1734
 9176TIP3   OH248942   0.671   2.259  12.483  0.6038 -0.1659 -0.6010
 9176TIP3    H148943   0.636   2.310  12.410 -1.9228  0.2144  0.7970
 9176TIP3    H248944   0.661   2.168  12.456 -3.2213 -0.1441  0.4016
 9177TIP3   OH248945   0.290   2.414  13.686  0.3008 -0.2177 -0.2229
 9177TIP3    H148946   0.378   2.377  13.695  0.8687  1.0082 -0.5403
 9177TIP3    H248947   0.305   2.507  13.669 -1.0295 -0.2200 -1.5122
 9178TIP3   OH248948   3.272   6.531  14.516 -0.3040 -0.1712  0.2120
 9178TIP3    H148949   3.334   6.511  14.586 -0.9204  0.2981  0.9028
 9178TIP3    H248950   3.295   6.471  14.445 -0.3184 -1.3664  1.2007
 9179TIP3   OH248951   1.614   0.269  14.086  0.3319  0.8038 -0.5416
 9179TIP3    H148952   1.628   0.267  13.991  0.3505  1.8173 -0.5598
 9179TIP3    H248953   1.605   0.177  14.110 -0.5169  0.5870 -1.6462
 9180TIP3   OH248954   2.543   2.810   0.211  0.0514 -0.3115 -0.2294
 9180TIP3    H148955   2.637   2.815   0.194  0.4578  2.8849  2.4116
 9180TIP3    H248956   2.507   2.888   0.168 -1.5136 -1.7924 -1.6765
 9181TIP3   OH248957   4.297   1.683  10.883 -0.1192 -0.0580  0.4126
 9181TIP3    H148958   4.375   1.627  10.882  0.0828  0.2176  0.6839
 9181TIP3    H248959   4.231   1.632  10.835  0.6337  0.3015 -1.0493
 9182TIP3   OH248960   0.507   5.090  12.699 -0.2946 -0.4032 -0.2273
 9182TIP3    H148961   0.547   5.038  12.630 -0.2685  2.1278 -2.2239
 9182TIP3    H248962   0.520   5.181  12.671  0.7762  0.7749  3.6961
 9183TIP3   OH248963   3.636   0.218   5.728 -0.0928 -0.5500 -0.0105
 9183TIP3    H148964   3.715   0.239   5.680 -0.1321 -1.3869 -0.4446
 9183TIP3    H248965   3.567   0.213   5.662 -0.2485 -1.1725  0.1922
 9184TIP3   OH248966   0.924   4.207  11.511  0.2274  0.2258  0.3838
 9184TIP3    H148967   0.858   4.243  11.451  0.1591 -0.6338 -0.0635
 9184TIP3    H248968   0.898   4.116  11.524  1.7709 -0.3450 -0.4129
 9185TIP3   OH248969   2.022   3.168   4.254 -0.3652 -0.1360  0.3505
 9185TIP3    H148970   1.969   3.231   4.204  1.1618 -0.6587 -2.0519
 9185TIP3    H248971   2.001   3.083   4.215  1.1760 -0.5005  0.2859
 9186TIP3   OH248972   1.115   3.381   4.781 -0.5471  0.2988 -0.1987
 9186TIP3    H148973   1.123   3.301   4.833 -1.6855  0.2590 -0.0825
 9186TIP3    H248974   1.035   3.369   4.730  0.2917  0.5486 -1.6077
 9187TIP3   OH248975   1.467   1.413  15.683 -0.2373  0.0738 -0.2389
 9187TIP3    H148976   1.483   1.465  15.603  0.6525  1.3068  0.7263
 9187TIP3    H248977   1.374   1.426  15.701 -0.0143  1.3581  0.0078
 9188TIP3   OH248978   4.710   0.156   3.989  0.1148 -0.0726  0.0793
 9188TIP3    H148979   4.698   0.140   4.083 -0.1615 -3.8636 -0.5362
 9188TIP3    H248980   4.621   0.160   3.954  0.2154  1.4613 -0.0385
 9189TIP3   OH248981   5.571   3.507  14.051  0.3792 -0.3224 -0.5868
 9189TIP3    H148982   5.547   3.499  13.959 -0.4471  1.0545 -0.4998
 9189TIP3    H248983   5.489   3.526  14.096  0.7864 -0.9431  0.4327
 9190TIP3   OH248984   0.001   5.655   3.886 -0.5037  1.3064 -0.1285
 9190TIP3    H148985   0.050   5.651   3.968 -0.2054  0.4957 -0.3377
 9190TIP3    H248986  -0.073   5.595   3.900  0.3381  0.0484 -0.9545
 9191TIP3   OH248987   1.759   1.227   6.205 -0.0934 -0.2058 -0.3899
 9191TIP3    H148988   1.681   1.248   6.154  0.3065 -2.2559 -1.9176
 9191TIP3    H248989   1.831   1.268   6.156  0.0720 -0.5216 -0.4124
 9192TIP3   OH248990   5.355   6.003  11.341  0.2028 -0.2817  0.1832
 9192TIP3    H148991   5.384   5.917  11.372 -1.2535 -0.2405  1.7123
 9192TIP3    H248992   5.355   6.058  11.420 -2.7938  0.0319  0.0342
 9193TIP3   OH248993   1.988   5.940   2.266  0.4174 -0.3909 -0.0105
 9193TIP3    H148994   1.981   5.849   2.236  0.2770 -0.1525 -0.7266
 9193TIP3    H248995   1.944   5.941   2.351 -0.3112 -0.8184 -0.3798
 9194TIP3   OH248996   6.405   6.454  15.653 -0.3857 -1.0670  0.2804
 9194TIP3    H148997   6.414   6.435  15.559  0.8608  0.2518  0.1119
 9194TIP3    H248998   6.494   6.475  15.682 -0.9572 -0.2365  1.4758
 9195TIP3   OH248999   1.142   6.614  11.924 -0.2144  0.1173  0.0095
 9195TIP3    H149000   1.059   6.573  11.899 -0.7353  1.6759 -0.8451
 9195TIP3    H249001   1.169   6.661  11.846  0.7739  0.7798  0.7488
 9196TIP3   OH249002   1.783   5.925   4.924  0.0674 -0.0713  0.2657
 9196TIP3    H149003   1.850   5.902   4.988 -1.2594  1.0171  2.1070
 9196TIP3    H249004   1.737   5.843   4.907  1.1654 -0.5998 -0.1899
 9197TIP3   OH249005   2.522   3.686   3.781  0.0698 -0.1035  0.3638
 9197TIP3    H149006   2.513   3.703   3.687 -1.2638  0.4253  0.5775
 9197TIP3    H249007   2.445   3.727   3.821  1.5807  1.3403  1.9031
 9198TIP3   OH249008   6.653   3.239  13.252 -0.0886 -0.7617 -0.1682
 9198TIP3    H149009   6.716   3.240  13.180 -0.8311 -1.6128 -0.8458
 9198TIP3    H249010   6.650   3.148  13.280  1.0619 -0.2395  1.7320
 9199TIP3   OH249011   4.333   1.328   3.601  0.1068 -0.0649 -0.1975
 9199TIP3    H149012   4.319   1.278   3.520  1.2713 -1.3998  0.4119
 9199TIP3    H249013   4.263   1.298   3.659 -0.6852  0.8402 -0.6759
 9200TIP3   OH249014   5.925   2.113   1.755 -0.3366  0.2894 -0.0580
 9200TIP3    H149015   5.923   2.159   1.839  1.1623  0.6997 -0.2280
 9200TIP3    H249016   6.014   2.126   1.723 -0.4471 -1.1647 -1.0009
 9201TIP3   OH249017   4.700   3.252   2.026  0.0556  0.0103  0.4742
 9201TIP3    H149018   4.770   3.297   2.073 -1.0620  1.9028  0.4106
 9201TIP3    H249019   4.720   3.264   1.934 -0.6424  1.0782  0.4492
 9202TIP3   OH249020   4.635   1.524  11.490 -1.0784  0.3488  0.0577
 9202TIP3    H149021   4.587   1.606  11.480 -1.7981 -0.0339  0.3160
 9202TIP3    H249022   4.584   1.474  11.553  0.4810  0.5411  1.5124
 9203TIP3   OH249023   3.661   1.534   4.379  0.6994  0.1268  0.1718
 9203TIP3    H149024   3.586   1.577   4.418  0.5032  0.1796 -0.2542
 9203TIP3    H249025   3.730   1.541   4.444  0.4737  0.5015  0.3702
 9204TIP3   OH249026   3.886   4.930  15.847 -0.1708  0.1147  0.3602
 9204TIP3    H149027   3.960   4.891  15.894  1.8198  0.6900 -2.2134
 9204TIP3    H249028   3.847   4.857  15.799  0.1127  0.2429 -0.0617
 9205TIP3   OH249029   3.614   3.763   0.434  0.9371 -0.1060 -0.8058
 9205TIP3    H149030   3.681   3.749   0.366  0.8649  0.2901 -0.9658
 9205TIP3    H249031   3.649   3.721   0.512  0.8699 -0.8534 -1.1795
 9206TIP3   OH249032   1.737   2.907   5.254 -0.0387  0.0711  0.2120
 9206TIP3    H149033   1.768   2.982   5.304 -1.0680  0.6632 -0.0178
 9206TIP3    H249034   1.733   2.836   5.318 -1.1667  0.7764  0.9479
 9207TIP3   OH249035   3.929   3.088   0.796  0.3201 -0.4364  0.0582
 9207TIP3    H149036   3.955   3.051   0.711 -1.1862  1.0853 -1.1106
 9207TIP3    H249037   4.005   3.136   0.827  1.0461 -1.4160 -0.2003
 9208TIP3   OH249038   6.567   6.435  15.973  0.3306 -0.0547 -0.1967
 9208TIP3    H149039   6.579   6.340  15.973  0.7411 -0.0054  0.9617
 9208TIP3    H249040   6.617   6.465  15.897  1.9233 -0.5614  0.6281
 9209TIP3   OH249041   2.454   2.342  17.177  0.1834 -0.1429 -0.0336
 9209TIP3    H149042   2.418   2.428  17.200 -0.6794 -0.5354  0.1106
 9209TIP3    H249043   2.522   2.326  17.242 -0.2185  0.0731  0.4445
 9210TIP3   OH249044   3.256   5.029   6.858 -0.0847  0.6908 -0.2157
 9210TIP3    H149045   3.197   4.954   6.848 -0.9430  0.9996  2.2608
 9210TIP3    H249046   3.327   5.012   6.797 -1.2242 -1.1919 -1.0583
 9211TIP3   OH249047   1.305   3.262  15.156  0.0324  0.0682 -0.6041
 9211TIP3    H149048   1.337   3.281  15.245 -0.8169  2.1651 -0.7109
 9211TIP3    H249049   1.359   3.317  15.099 -2.4957  2.2879 -0.9387
 9212TIP3   OH249050   5.824   1.519   3.984  0.2762 -0.2060  0.2419
 9212TIP3    H149051   5.912   1.557   3.993 -0.1538  0.4797  1.6925
 9212TIP3    H249052   5.810   1.472   4.066 -1.3182  1.0033  0.6876
 9213TIP3   OH249053   2.420   5.992   0.483  0.1848 -0.2050 -0.3729
 9213TIP3    H149054   2.419   6.077   0.438 -1.3464  1.0382  1.9295
 9213TIP3    H249055   2.328   5.975   0.504  0.4062 -2.6956 -1.1906
 9214TIP3   OH249056   1.530   3.397  13.594  0.6375 -0.3433  0.1264
 9214TIP3    H149057   1.589   3.436  13.658  0.2154  1.2905 -0.4348
 9214TIP3    H249058   1.579   3.323  13.558  2.4276  1.0448 -0.4219
 9215TIP3   OH249059   1.836   2.178   0.517 -0.1253  0.0641 -1.2755
 9215TIP3    H149060   1.876   2.265   0.521  0.3808 -0.2316  0.1063
 9215TIP3    H249061   1.891   2.130   0.454  0.6051  0.2190 -0.7571
 9216TIP3   OH249062   3.061   4.311  16.673 -0.2933  0.5350  0.3702
 9216TIP3    H149063   3.098   4.351  16.751 -1.2381  0.3256  0.9330
 9216TIP3    H249064   3.061   4.381  16.608 -1.9146  1.4620  1.3388
 9217TIP3   OH249065   2.850   5.167   4.678  0.2083 -0.4431 -0.6779
 9217TIP3    H149066   2.784   5.107   4.712  1.1134 -1.2965 -0.3905
 9217TIP3    H249067   2.835   5.249   4.725 -0.2189 -0.8360 -0.1282
 9218TIP3   OH249068   6.399   3.030  11.301 -0.1924  0.1023  0.0880
 9218TIP3    H149069   6.416   3.036  11.208  0.3243  0.4818  0.2076
 9218TIP3    H249070   6.427   2.941  11.325  1.1492  0.5419  0.1832
 9219TIP3   OH249071   5.903   0.239  11.781  0.2347  0.1931 -0.1689
 9219TIP3    H149072   5.878   0.286  11.702 -1.3135  0.5712  0.5226
 9219TIP3    H249073   5.972   0.180  11.753  1.4162  2.0703 -1.2830
 9220TIP3   OH249074   0.984   6.079   3.198 -0.4997 -0.2059 -0.4220
 9220TIP3    H149075   0.965   5.985   3.194  0.1978 -0.2855 -1.8932
 9220TIP3    H249076   1.077   6.086   3.177 -1.1419  1.0303 -2.9634
 9221TIP3   OH249077   1.009   5.567   1.173 -0.0845  0.9028 -0.1657
 9221TIP3    H149078   1.060   5.487   1.163  1.0029  1.6486 -0.8099
 9221TIP3    H249079   1.067   5.626   1.222  0.8222  2.7419 -3.3046
 9222TIP3   OH249080   6.201   4.731   2.547  0.1815 -0.0119  0.1993
 9222TIP3    H149081   6.205   4.787   2.625 -0.7111 -1.0438  1.0002
 9222TIP3    H249082   6.291   4.727   2.515  0.1887  2.2773 -0.1636
 9223TIP3   OH249083   3.275   2.149   3.805  0.6423 -0.0588  0.3531
 9223TIP3    H149084   3.296   2.183   3.892  0.2664 -1.0017  0.8168
 9223TIP3    H249085   3.340   2.190   3.747 -0.1613  1.8833  0.7868
 9224TIP3   OH249086   4.388   1.755   1.418  0.2785  0.4781  0.0792
 9224TIP3    H149087   4.380   1.850   1.424 -0.6632  0.4486 -0.5280
 9224TIP3    H249088   4.353   1.734   1.332 -0.1568 -0.4809  0.4865
 9225TIP3   OH249089   5.842   2.347  16.640  0.0842  0.5034 -0.1175
 9225TIP3    H149090   5.906   2.282  16.668 -0.6501  0.0437  0.5060
 9225TIP3    H249091   5.758   2.303  16.647 -0.3584  1.3032 -0.3325
 9226TIP3   OH249092   6.644   0.053  13.969  0.1932  0.2644 -0.1352
 9226TIP3    H149093   6.680   0.111  13.902 -0.5158 -0.5626 -1.2426
 9226TIP3    H249094   6.667   0.096  14.052 -1.1747  2.6450 -0.9351
 9227TIP3   OH249095   0.788   0.672  13.846  0.0892  0.2357  0.1396
 9227TIP3    H149096   0.765   0.628  13.764 -1.0484 -0.0399  0.6061
 9227TIP3    H249097   0.786   0.603  13.912  1.3684  0.3815  0.3535
 9228TIP3   OH249098   3.129   5.876  11.025 -0.2662  0.5220 -0.0282
 9228TIP3    H149099   3.164   5.788  11.015 -1.8128  0.0079 -1.0847
 9228TIP3    H249100   3.088   5.876  11.112  0.9472  0.6409  0.5482
 9229TIP3   OH249101   1.758   3.619   4.870  0.2979  0.0303 -0.1531
 9229TIP3    H149102   1.663   3.624   4.883  0.5229  2.4980  0.5898
 9229TIP3    H249103   1.794   3.605   4.958  0.7861  1.8308 -0.0451
 9230TIP3   OH249104   3.390   1.256  15.810  0.1575  0.0622  0.3830
 9230TIP3    H149105   3.303   1.218  15.821  0.0093  0.6021  1.1068
 9230TIP3    H249106   3.431   1.246  15.896  1.1650 -1.0681 -0.2063
 9231TIP3   OH249107   0.407   1.651  13.060  0.5969 -0.3311 -0.7621
 9231TIP3    H149108   0.365   1.706  13.126  2.6280  0.2468  0.0888
 9231TIP3    H249109   0.472   1.709  13.020  0.5992 -1.2087 -2.0500
 9232TIP3   OH249110   3.803   2.964  13.494  0.0005  0.0934 -0.3617
 9232TIP3    H149111   3.756   2.908  13.555  2.0258 -0.2530  0.9092
 9232TIP3    H249112   3.808   2.912  13.413 -0.5426 -0.4237 -0.0666
 9233TIP3   OH249113   1.429   0.799  15.508  0.0748  0.0885  0.3775
 9233TIP3    H149114   1.425   0.705  15.491  0.8298 -0.1529  1.4790
 9233TIP3    H249115   1.352   0.817  15.561 -0.9801  0.4091 -1.2263
 9234TIP3   OH249116   0.191   6.161  12.308 -0.3881 -0.0013 -0.1144
 9234TIP3    H149117   0.182   6.144  12.214  0.1074  1.4432 -0.4379
 9234TIP3    H249118   0.158   6.082  12.350 -2.3392  0.0412 -1.4810
 9235TIP3   OH249119   3.242   6.396   3.331 -0.2672 -0.8107  0.4669
 9235TIP3    H149120   3.270   6.403   3.239 -2.1987  1.0148 -0.0287
 9235TIP3    H249121   3.268   6.308   3.357  1.5511 -0.8725 -1.4108
 9236TIP3   OH249122   5.361   3.977   0.173 -0.3696 -0.0975  0.5432
 9236TIP3    H149123   5.439   3.995   0.226  0.7089 -1.6241 -0.4515
 9236TIP3    H249124   5.303   4.050   0.189  1.0468  0.7859  1.7674
 9237TIP3   OH249125   5.494   2.586  12.822 -0.3479  0.3483 -0.0284
 9237TIP3    H149126   5.541   2.655  12.869 -1.0922  0.4600  0.5794
 9237TIP3    H249127   5.429   2.632  12.770 -0.4887  0.1383 -0.0418
 9238TIP3   OH249128   4.602   2.415   4.458 -0.0529 -0.6825 -0.2257
 9238TIP3    H149129   4.626   2.326   4.484 -0.9989 -0.6292  0.9139
 9238TIP3    H249130   4.672   2.470   4.493 -0.2316 -0.8340  0.3780
 9239TIP3   OH249131   2.655   2.953   1.004  0.2969 -0.6641  0.2672
 9239TIP3    H149132   2.707   2.873   1.010 -1.3134 -1.8026 -0.6699
 9239TIP3    H249133   2.588   2.934   0.939  0.7696  1.9696 -1.0433
 9240TIP3   OH249134   0.245   4.645  16.819  0.2541  0.7239 -0.5343
 9240TIP3    H149135   0.212   4.683  16.900  0.0191 -0.8958  0.1378
 9240TIP3    H249136   0.168   4.638  16.762  0.0529  0.0717 -0.1870
 9241TIP3   OH249137   4.848   1.589   1.239  0.2985  0.5373 -0.6358
 9241TIP3    H149138   4.790   1.622   1.308 -1.6319 -2.2622 -0.7979
 9241TIP3    H249139   4.816   1.632   1.159 -0.2922  0.4898 -0.4308
 9242TIP3   OH249140   4.229   6.369  15.503  0.5910 -0.1571 -0.3407
 9242TIP3    H149141   4.158   6.343  15.445  0.8974  1.3543 -1.4242
 9242TIP3    H249142   4.192   6.440  15.556  0.6820 -0.7160  0.4817
 9243TIP3   OH249143   3.808   1.009   1.485  0.0784  0.4347 -0.6514
 9243TIP3    H149144   3.894   1.029   1.449  0.3503  0.5082  0.0291
 9243TIP3    H249145   3.826   0.957   1.563 -0.5419 -0.5849 -1.1725
 9244TIP3   OH249146   6.357   0.524   5.040  0.1899  0.2676  0.9946
 9244TIP3    H149147   6.345   0.619   5.037 -1.0950  0.0446 -2.3235
 9244TIP3    H249148   6.437   0.508   4.990 -1.5265 -0.6386 -1.5496
 9245TIP3   OH249149   5.826   4.620  13.368  0.0274  0.4128 -0.1707
 9245TIP3    H149150   5.863   4.543  13.326  0.1749  1.1057 -1.3268
 9245TIP3    H249151   5.901   4.679  13.380  0.1240 -0.0604  1.7237
 9246TIP3   OH249152   2.721   3.184   2.021 -0.4460  0.1870 -0.0764
 9246TIP3    H149153   2.803   3.144   2.050 -0.2992 -0.0467 -0.7983
 9246TIP3    H249154   2.706   3.255   2.083  0.0311 -0.1000  0.3709
 9247TIP3   OH249155   3.274   5.247   1.154 -0.0518  0.0827  0.8252
 9247TIP3    H149156   3.253   5.159   1.123  0.9742  0.3940 -0.7864
 9247TIP3    H249157   3.250   5.305   1.082  3.8359  0.6647 -0.1135
 9248TIP3   OH249158   0.759   5.817   4.144 -0.2713  0.3120 -0.2577
 9248TIP3    H149159   0.800   5.855   4.222 -1.9895  1.2102  0.2292
 9248TIP3    H249160   0.740   5.727   4.169 -1.8380  0.9061  0.7887
 9249TIP3   OH249161   4.105   6.320   0.623  0.1160 -0.6442 -0.0776
 9249TIP3    H149162   4.048   6.331   0.699 -0.6836  0.0631 -0.7758
 9249TIP3    H249163   4.174   6.386   0.635 -0.2194 -0.2778 -0.1674
 9250TIP3   OH249164   5.984   2.716  14.329 -0.2383 -0.6947  0.0078
 9250TIP3    H149165   5.895   2.745  14.307  0.0553 -0.2620 -0.6066
 9250TIP3    H249166   5.971   2.631  14.371 -1.0085 -0.2327  0.7318
 9251TIP3   OH249167   5.365   3.845  13.308  0.0980  0.1311 -0.2307
 9251TIP3    H149168   5.433   3.874  13.247 -0.4284 -0.0109 -0.8860
 9251TIP3    H249169   5.294   3.815  13.252  0.3731 -1.8233  0.4139
 9252TIP3   OH249170   0.598   1.607   1.866  0.3115  0.0748  0.0477
 9252TIP3    H149171   0.531   1.674   1.881  0.5630  0.4854 -0.6031
 9252TIP3    H249172   0.667   1.653   1.817 -0.1502 -1.0028 -1.6721
 9253TIP3   OH249173   3.371   3.153  11.425  0.5124  0.1830 -0.1591
 9253TIP3    H149174   3.375   3.225  11.363 -0.6119  0.4067  0.0117
 9253TIP3    H249175   3.448   3.100  11.405  1.0131  1.0992 -0.6880
 9254TIP3   OH249176   6.450   0.555  16.208 -0.3843  0.3667 -0.8565
 9254TIP3    H149177   6.415   0.492  16.144 -0.6854  0.3090 -0.6342
 9254TIP3    H249178   6.508   0.503  16.263 -0.0670  0.4315 -1.1285
 9255TIP3   OH249179   1.842   2.203   5.759  0.2960  0.8626  0.1980
 9255TIP3    H149180   1.908   2.197   5.690 -0.5437  1.8996 -0.7182
 9255TIP3    H249181   1.777   2.265   5.725 -1.6214 -0.8302  0.6804
 9256TIP3   OH249182   5.158   4.364   0.898  0.5443  0.5292 -0.0087
 9256TIP3    H149183   5.082   4.421   0.895  0.2617  0.1325 -0.6088
 9256TIP3    H249184   5.231   4.422   0.922 -0.0130  0.8268  0.9866
 9257TIP3   OH249185   5.733   0.730   0.477  0.0272  0.9149 -0.3917
 9257TIP3    H149186   5.824   0.742   0.506 -0.2612 -0.2420  1.0633
 9257TIP3    H249187   5.702   0.818   0.457  0.7785  1.5700  1.2384
 9258TIP3   OH249188   3.285   2.475  12.101  0.5447 -0.2776  0.3946
 9258TIP3    H149189   3.286   2.533  12.177 -0.8132  1.0702 -0.5984
 9258TIP3    H249190   3.222   2.515  12.041  0.3143 -2.2601 -0.7175
 9259TIP3   OH249191   6.182   1.440   0.813 -0.1750  0.6805  0.4390
 9259TIP3    H149192   6.270   1.477   0.823 -0.7053  2.1815 -0.3061
 9259TIP3    H249193   6.137   1.463   0.895  0.1161 -0.1161  0.8344
 9260TIP3   OH249194   2.362   5.880   2.265  0.2511  0.8530 -0.1336
 9260TIP3    H149195   2.454   5.855   2.274  0.2644  1.0510  0.2854
 9260TIP3    H249196   2.341   5.860   2.174  0.0811 -1.2809  0.3433
 9261TIP3   OH249197   4.906   2.441  12.454  0.2866 -0.1459 -0.1091
 9261TIP3    H149198   4.951   2.478  12.378  0.8500 -1.1981 -0.2996
 9261TIP3    H249199   4.974   2.394  12.503 -0.6593 -2.2192 -0.6928
 9262TIP3   OH249200   3.336   5.837  15.500  0.2415 -0.1758  0.0368
 9262TIP3    H149201   3.296   5.887  15.572 -0.5443  0.9824 -1.1680
 9262TIP3    H249202   3.277   5.852  15.426  0.7656 -1.7710 -0.7219
 9263TIP3   OH249203   1.145   4.206  13.510 -0.0672 -0.4650  0.5140
 9263TIP3    H149204   1.074   4.204  13.575  0.9094  0.7056  1.6482
 9263TIP3    H249205   1.122   4.137  13.448 -1.7636 -0.6697  1.3213
 9264TIP3   OH249206   4.273   2.092  15.464 -0.4500  0.3905 -0.0332
 9264TIP3    H149207   4.207   2.106  15.397 -0.7434  1.0041  0.3737
 9264TIP3    H249208   4.278   1.997  15.474 -0.5755  0.3048 -0.7477
 9265TIP3   OH249209   5.252   2.339   2.057  0.1173 -0.2048 -0.0749
 9265TIP3    H149210   5.205   2.421   2.077 -0.4955 -1.1779  2.6991
 9265TIP3    H249211   5.344   2.361   2.070  0.0314  0.3244 -0.3543
 9266TIP3   OH249212   2.355   6.742   5.468  0.6412 -0.3924  0.0128
 9266TIP3    H149213   2.413   6.706   5.535 -1.6090 -2.5202  0.8812
 9266TIP3    H249214   2.386   6.703   5.386  1.4992 -0.1843  0.2359
 9267TIP3   OH249215   4.356   4.444   0.393 -0.2997  0.7981 -0.0592
 9267TIP3    H149216   4.416   4.517   0.405  0.4732  0.6162 -2.6019
 9267TIP3    H249217   4.340   4.441   0.299 -1.4644 -1.4053  0.1823
 9268TIP3   OH249218   2.028   1.752   2.213  0.0350  0.0427 -0.0418
 9268TIP3    H149219   2.065   1.678   2.261 -0.8775 -0.5513 -0.2445
 9268TIP3    H249220   1.964   1.712   2.154  0.7987  0.8098 -1.4058
 9269TIP3   OH249221   6.202   4.011   1.981 -0.1002  0.1429 -0.0032
 9269TIP3    H149222   6.203   3.919   1.955  0.0790 -0.1537  1.0030
 9269TIP3    H249223   6.257   4.013   2.059 -0.9905  0.9102  0.6103
 9270TIP3   OH249224   5.225   5.076   0.095  0.0233 -0.1602  0.3682
 9270TIP3    H149225   5.220   5.137   0.168 -0.0078 -1.0726  1.1271
 9270TIP3    H249226   5.300   5.020   0.114 -0.1708 -0.6031 -0.1416
 9271TIP3   OH249227   4.093   5.968   5.234 -0.1763 -0.2699  0.3134
 9271TIP3    H149228   4.135   5.890   5.270  0.6779 -0.8098 -1.7946
 9271TIP3    H249229   4.053   5.938   5.152  1.0527  1.7182 -1.0479
 9272TIP3   OH249230   3.105   1.840   1.607  0.4008 -0.0837  0.4184
 9272TIP3    H149231   3.159   1.812   1.681  1.9163  3.6396  0.8477
 9272TIP3    H249232   3.155   1.911   1.567 -1.9147  0.1309 -2.2403
 9273TIP3   OH249233   6.011   1.574   1.011 -0.3111 -0.0205 -0.4912
 9273TIP3    H149234   5.965   1.653   0.984 -0.4431  0.2080  0.4038
 9273TIP3    H249235   5.942   1.516   1.044 -0.2496 -0.6182 -1.4051
 9274TIP3   OH249236   3.655   1.035  14.121  0.1511 -0.0169  0.4774
 9274TIP3    H149237   3.676   0.977  14.048 -3.1916  0.3432 -0.8750
 9274TIP3    H249238   3.595   0.985  14.176 -0.5999  1.1640  0.7633
 9275TIP3   OH249239   3.533   0.707   3.379 -0.2171 -0.2766  0.0858
 9275TIP3    H149240   3.535   0.664   3.465 -0.7372 -3.4281 -1.3921
 9275TIP3    H249241   3.625   0.710   3.353 -0.3484 -2.8915 -0.8626
 9276TIP3   OH249242   1.583   4.519  13.277  0.2176  0.0273 -0.5332
 9276TIP3    H149243   1.592   4.591  13.339  1.1767 -0.6236  0.0934
 9276TIP3    H249244   1.489   4.503  13.271  0.1707 -0.7073  1.6902
 9277TIP3   OH249245   5.537   5.472   4.519  0.2029 -0.0841 -0.1589
 9277TIP3    H149246   5.616   5.523   4.499 -0.2655  1.2540  1.3515
 9277TIP3    H249247   5.569   5.399   4.572  0.2532  1.2262  1.6375
 9278TIP3   OH249248   1.042   4.364   5.756 -0.1180  0.6391 -0.1337
 9278TIP3    H149249   1.010   4.285   5.798  0.2317  0.7513  0.3478
 9278TIP3    H249250   1.056   4.339   5.664  1.1698 -0.2031  0.2710
 9279TIP3   OH249251   4.394   3.440  13.814 -0.6108  0.0835  0.0150
 9279TIP3    H149252   4.452   3.406  13.746 -0.7624  0.2272 -0.1867
 9279TIP3    H249253   4.316   3.384  13.809 -1.9098  1.9934 -1.9777
 9280TIP3   OH249254   3.521   2.348   0.000 -0.0508 -0.1811 -0.2851
 9280TIP3    H149255   3.465   2.380   0.071  0.9529 -0.2989  0.5735
 9280TIP3    H249256   3.460   2.315  -0.065 -0.9660 -1.4704  1.1811
 9281TIP3   OH249257   0.650   6.077   0.255  0.2485  0.3729 -0.7023
 9281TIP3    H149258   0.705   6.078   0.334 -1.0029 -1.2577  0.2113
 9281TIP3    H249259   0.671   6.160   0.211  3.5707 -0.2906 -0.4999
 9282TIP3   OH249260   4.977   3.322  16.269 -0.3250 -0.1340 -0.8649
 9282TIP3    H149261   5.071   3.307  16.279 -0.7717 -1.2233  2.2159
 9282TIP3    H249262   4.949   3.358  16.354 -2.6294  0.5159 -1.8559
 9283TIP3   OH249263   1.712   2.474  12.867  0.1757 -0.2942 -0.2945
 9283TIP3    H149264   1.714   2.550  12.809 -0.8753 -0.8680 -1.0877
 9283TIP3    H249265   1.773   2.412  12.828 -0.6047 -0.7193 -0.8515
 9284TIP3   OH249266   1.063   3.457   5.610 -0.2860  0.7018  0.0070
 9284TIP3    H149267   0.975   3.496   5.600 -0.3013  0.4201 -1.0005
 9284TIP3    H249268   1.100   3.460   5.522  0.7698  0.9253  0.4567
 9285TIP3   OH249269   4.876   4.552   0.167 -0.5059  0.0583 -0.5046
 9285TIP3    H149270   4.805   4.601   0.127 -1.8012 -0.4930  1.0394
 9285TIP3    H249271   4.943   4.618   0.187 -0.8310  0.6698 -1.4443
 9286TIP3   OH249272   1.939   6.576   0.680 -0.1797 -0.1673 -0.3894
 9286TIP3    H149273   1.927   6.516   0.754  0.5565 -1.1046 -1.0188
 9286TIP3    H249274   2.020   6.623   0.702 -1.7077  1.8981  0.9707
 9287TIP3   OH249275   6.379   2.518   3.508  0.0470  0.4957  0.7571
 9287TIP3    H149276   6.373   2.458   3.582  0.0454 -0.0695  0.3066
 9287TIP3    H249277   6.473   2.531   3.494  0.0380  1.0207  1.1930
 9288TIP3   OH249278   4.485   3.368  14.087  0.2439  0.0916 -0.1258
 9288TIP3    H149279   4.390   3.362  14.093  0.2489 -1.7797 -1.5423
 9288TIP3    H249280   4.502   3.396  13.997  0.9907  2.0775  0.6138
 9289TIP3   OH249281   5.508   5.964  12.128  0.1859 -0.5692  0.2943
 9289TIP3    H149282   5.482   5.872  12.132  0.1409 -0.6616 -1.7714
 9289TIP3    H249283   5.444   6.005  12.070 -0.5950  1.0768  2.2661
 9290TIP3   OH249284   0.388   4.469  13.354  0.6763 -0.6916 -0.1058
 9290TIP3    H149285   0.360   4.424  13.434 -1.5736 -0.0296 -0.4760
 9290TIP3    H249286   0.431   4.548  13.385  2.3969 -1.8401  0.4938
 9291TIP3   OH249287   0.135   2.544  11.767 -0.3219  0.5936  0.2488
 9291TIP3    H149288   0.063   2.539  11.703 -1.4285 -0.6916  1.5774
 9291TIP3    H249289   0.201   2.483  11.734 -0.5442  0.5297 -0.0776
 9292TIP3   OH249290   3.691   5.837   1.127 -0.8275 -0.0187  0.2863
 9292TIP3    H149291   3.711   5.928   1.104 -0.7530 -0.4444 -1.4058
 9292TIP3    H249292   3.638   5.844   1.206  1.5407  1.3662  1.8168
 9293TIP3   OH249293   3.251   1.028   4.288  0.4458 -0.4602 -0.0210
 9293TIP3    H149294   3.274   0.953   4.343  1.2049 -2.0817 -2.4147
 9293TIP3    H249295   3.330   1.081   4.285  0.6812 -0.8127 -0.1925
 9294TIP3   OH249296   6.476   5.591   5.863 -0.2507 -0.4431 -0.0328
 9294TIP3    H149297   6.529   5.538   5.803  0.1041 -0.6650  0.4650
 9294TIP3    H249298   6.534   5.606   5.938 -0.3522  0.6616 -0.1719
 9295TIP3   OH249299   1.801   0.365  16.721 -0.6268 -0.0411 -0.3618
 9295TIP3    H149300   1.782   0.274  16.746 -0.7050  0.5654  1.8723
 9295TIP3    H249301   1.896   0.373  16.730 -0.8137  0.5757  1.1313
 9296TIP3   OH249302   4.126   4.473  16.076  0.0019  0.2964 -0.4351
 9296TIP3    H149303   4.123   4.529  16.153  1.4503  2.1610 -1.7013
 9296TIP3    H249304   4.044   4.491  16.030 -0.1077  0.4106 -0.1953
 9297TIP3   OH249305   2.874   0.790   1.786 -0.0038 -0.4017 -0.4033
 9297TIP3    H149306   2.913   0.746   1.861  2.8787  1.5185 -0.7153
 9297TIP3    H249307   2.839   0.719   1.732  0.5326 -1.9783  1.2733
 9298TIP3   OH249308   4.513   1.304  11.966  0.1927 -0.5475 -0.0652
 9298TIP3    H149309   4.574   1.359  12.016  2.4292 -1.3969 -1.7414
 9298TIP3    H249310   4.491   1.356  11.890  0.2800 -0.9577 -0.3737
 9299TIP3   OH249311   3.900   3.141   5.717  0.0856 -0.0936 -0.0987
 9299TIP3    H149312   3.805   3.143   5.731  0.1948  0.2289  0.6050
 9299TIP3    H249313   3.910   3.129   5.623 -0.6586 -1.7141  0.0164
 9300TIP3   OH249314   4.909   6.265   5.792  0.3230  0.1778  0.1691
 9300TIP3    H149315   4.926   6.222   5.876  0.3409  0.9711  0.5745
 9300TIP3    H249316   4.815   6.282   5.792  0.3359  0.2498  0.0613
 9301TIP3   OH249317   3.822   6.131   4.294 -0.4126 -0.0794 -0.0078
 9301TIP3    H149318   3.870   6.189   4.353  0.2676 -1.7383  1.1055
 9301TIP3    H249319   3.730   6.140   4.320 -0.5519  2.0060 -1.1798
 9302TIP3   OH249320   5.839   2.299   3.688 -1.0310  0.3625  0.1419
 9302TIP3    H149321   5.869   2.210   3.703  0.3529  1.1977  2.5546
 9302TIP3    H249322   5.766   2.311   3.748 -0.5730  1.1682  0.5487
 9303TIP3   OH249323   6.016   3.002  13.430  0.2966 -0.2398  0.3834
 9303TIP3    H149324   6.093   2.984  13.483 -0.2871 -1.1605  0.9415
 9303TIP3    H249325   5.973   2.917  13.422  0.0811 -0.0073 -1.0984
 9304TIP3   OH249326   4.561   3.996  14.383 -0.1270  0.1510  0.3272
 9304TIP3    H149327   4.477   4.038  14.364  0.2234  0.2560 -1.0149
 9304TIP3    H249328   4.579   4.020  14.474 -1.2483  0.6376  0.4359
 9305TIP3   OH249329   5.369   1.418   0.688  0.0744 -0.1041 -0.6398
 9305TIP3    H149330   5.427   1.433   0.613 -0.9112  1.7883 -1.0618
 9305TIP3    H249331   5.414   1.461   0.762 -0.2205  0.3591 -0.7255
 9306TIP3   OH249332   1.537   2.312  14.650  0.2877  0.4472 -0.2230
 9306TIP3    H149333   1.591   2.236  14.671  2.2126  1.8388 -0.0642
 9306TIP3    H249334   1.464   2.308  14.712  1.0989 -0.5238  0.6702
 9307TIP3   OH249335   2.001   0.013   3.479 -0.4446  0.0559 -0.0388
 9307TIP3    H149336   1.918  -0.011   3.521 -0.1991  0.2184  0.5431
 9307TIP3    H249337   2.026  -0.064   3.429  0.0863 -0.7325  1.4044
 9308TIP3   OH249338   0.916   6.636  10.801  0.4994  0.4189  0.1804
 9308TIP3    H149339   0.834   6.650  10.848  1.6473  2.5571  1.6677
 9308TIP3    H249340   0.949   6.724  10.784  1.2270 -0.3677 -2.7257
 9309TIP3   OH249341   3.387   6.292   1.991  0.0962  0.2892  0.0183
 9309TIP3    H149342   3.313   6.294   2.052  0.4742  0.0727  0.4828
 9309TIP3    H249343   3.397   6.200   1.968 -0.6172  0.4693 -1.0801
 9310TIP3   OH249344   5.683   6.213  10.596 -0.2330  0.0772 -0.4732
 9310TIP3    H149345   5.668   6.299  10.635 -0.1936  0.9343 -2.3118
 9310TIP3    H249346   5.618   6.207  10.525  0.3086 -1.0677 -0.8897
 9311TIP3   OH249347   6.683   1.577  15.948  0.0389 -0.2563  0.0738
 9311TIP3    H149348   6.743   1.632  15.899 -0.2198  1.2149  1.3881
 9311TIP3    H249349   6.627   1.538  15.881  1.4545 -0.4569 -1.0309
 9312TIP3   OH249350   3.150   0.845  16.109 -0.2772 -0.6831  0.0265
 9312TIP3    H149351   3.080   0.794  16.070  1.3839 -2.1016 -1.2048
 9312TIP3    H249352   3.172   0.910  16.041  0.1357 -0.7737  0.0699
 9313TIP3   OH249353   5.854   0.922   5.335 -0.2835 -0.1138 -0.6427
 9313TIP3    H149354   5.899   0.893   5.414 -0.1400  0.7123 -0.4150
 9313TIP3    H249355   5.833   0.841   5.288  0.9066 -0.5391 -0.4611
 9314TIP3   OH249356   4.176   6.776  12.136 -0.4780 -0.7509  0.2682
 9314TIP3    H149357   4.110   6.842  12.161 -2.0214 -2.0866 -0.2042
 9314TIP3    H249358   4.227   6.763  12.216 -0.2459  0.8797  0.4232
 9315TIP3   OH249359   0.837   0.096  15.387  0.4854 -0.5064 -0.7722
 9315TIP3    H149360   0.805   0.152  15.317  2.3860 -1.3751 -2.3948
 9315TIP3    H249361   0.887   0.155  15.444  1.0654 -0.2258 -1.5568
 9316TIP3   OH249362   6.333   4.492   5.395 -0.5708 -0.3791 -0.0248
 9316TIP3    H149363   6.296   4.574   5.426 -1.3429 -0.1517 -1.4844
 9316TIP3    H249364   6.290   4.477   5.311  2.9930  0.1150 -2.0216
 9317TIP3   OH249365   3.848   5.703  15.147  0.2317 -0.4688  0.1656
 9317TIP3    H149366   3.854   5.640  15.219 -1.1659  1.2617  1.8357
 9317TIP3    H249367   3.869   5.787  15.186 -1.7597  0.6797 -1.1625
 9318TIP3   OH249368   5.316   0.874  17.037 -0.0435  0.0602  0.2574
 9318TIP3    H149369   5.354   0.812  17.099 -1.5782 -1.3400 -0.1549
 9318TIP3    H249370   5.276   0.819  16.969 -0.4254  1.5207 -0.7350
 9319TIP3   OH249371   0.267   5.458   3.113  0.1024  0.4328 -0.0849
 9319TIP3    H149372   0.340   5.439   3.054  0.4337  0.3634  0.3481
 9319TIP3    H249373   0.308   5.499   3.190 -0.1368 -0.9783  0.8116
 9320TIP3   OH249374   1.968   3.822   0.880 -0.0610  0.0354 -0.2186
 9320TIP3    H149375   1.901   3.845   0.944  0.0865 -0.8292  0.2447
 9320TIP3    H249376   1.979   3.902   0.828 -1.6721  0.1009 -0.4934
 9321TIP3   OH249377   5.901   0.343   1.946  0.5468 -0.7912 -0.0067
 9321TIP3    H149378   5.826   0.388   1.909 -1.0235 -1.1007  2.6751
 9321TIP3    H249379   5.953   0.411   1.988  1.6614 -0.6188 -1.6051
 9322TIP3   OH249380   5.803   3.005  14.121  0.2816 -0.3046  0.1567
 9322TIP3    H149381   5.776   2.971  14.207 -2.4429  2.1854  0.3958
 9322TIP3    H249382   5.800   3.100  14.132  2.5726  0.0339 -1.9430
 9323TIP3   OH249383   2.973   3.799  13.724 -0.2390 -0.8016  0.0748
 9323TIP3    H149384   3.036   3.760  13.662  0.1759 -0.6052  0.3681
 9323TIP3    H249385   2.889   3.794  13.679  0.1862  0.0521 -0.8520
 9324TIP3   OH249386   4.357   2.704  16.475 -0.3430  0.1971  0.3240
 9324TIP3    H149387   4.391   2.738  16.558 -1.4012  0.7183  0.5485
 9324TIP3    H249388   4.348   2.610  16.491  0.5328  0.1214  0.4162
 9325TIP3   OH249389   1.498   4.281   0.348 -0.3982 -0.2408  0.2340
 9325TIP3    H149390   1.461   4.359   0.391  0.0796  0.4138 -0.5348
 9325TIP3    H249391   1.591   4.301   0.340 -0.2161 -1.0525  0.3646
 9326TIP3   OH249392   5.000   1.324  14.859 -0.0162  0.1923  0.4977
 9326TIP3    H149393   5.024   1.233  14.843 -1.9785 -0.0744 -1.2818
 9326TIP3    H249394   4.963   1.324  14.947 -0.6218 -0.8856  0.2555
 9327TIP3   OH249395   2.061   2.301   1.701  0.3739 -0.2577 -0.1220
 9327TIP3    H149396   2.028   2.333   1.617 -1.4415  0.3088  0.7813
 9327TIP3    H249397   2.112   2.374   1.735  1.0773 -0.4709 -0.7160
 9328TIP3   OH249398   2.994   2.584   2.103  0.6717  0.3179  0.1650
 9328TIP3    H149399   3.028   2.671   2.083 -0.1431  0.5925 -0.0416
 9328TIP3    H249400   2.946   2.558   2.024 -1.2718  0.7736  1.1600
 9329TIP3   OH249401   1.124   1.133   4.925  0.4335  0.5884  1.1333
 9329TIP3    H149402   1.189   1.171   4.867  0.2016  0.9734  1.1255
 9329TIP3    H249403   1.155   1.044   4.940  1.1179  0.8619  1.3678
 9330TIP3   OH249404   4.362   1.351  13.735 -0.0713 -1.2092  0.1448
 9330TIP3    H149405   4.431   1.417  13.721 -0.7208 -0.4728  0.4034
 9330TIP3    H249406   4.410   1.270  13.752  0.7493 -1.1892 -1.8898
 9331TIP3   OH249407   1.415   4.934   3.586  0.4686  0.4138  0.2218
 9331TIP3    H149408   1.413   5.013   3.532 -1.2963  0.8988  0.9700
 9331TIP3    H249409   1.505   4.901   3.576  0.5179  1.1323 -2.0480
 9332TIP3   OH249410   3.385   3.478   0.227  0.4564  0.1300 -0.3584
 9332TIP3    H149411   3.323   3.405   0.235  1.4875 -0.6558  0.7228
 9332TIP3    H249412   3.417   3.492   0.316  0.6033  1.6294 -0.6323
 9333TIP3   OH249413   3.642   2.593   1.866  0.4058 -0.0791 -0.0163
 9333TIP3    H149414   3.581   2.529   1.829  1.1284 -1.6002  1.3890
 9333TIP3    H249415   3.728   2.566   1.832  0.7890 -0.2071  1.0505
 9334TIP3   OH249416   4.256   5.803  14.049  0.0929  0.2551 -0.3584
 9334TIP3    H149417   4.181   5.751  14.020 -0.2553  0.7371 -0.3264
 9334TIP3    H249418   4.252   5.799  14.144  1.1308 -1.1739 -0.3575
 9335TIP3   OH249419   0.324   2.717  11.914 -0.5353  0.4099 -0.8290
 9335TIP3    H149420   0.387   2.759  11.857  0.4434 -1.3980 -1.1046
 9335TIP3    H249421   0.268   2.666  11.856  0.0074 -0.8563 -0.2494
 9336TIP3   OH249422   2.949   1.734  14.420  0.0692 -0.3145 -0.1976
 9336TIP3    H149423   3.025   1.780  14.383 -1.4408  0.5983 -2.2892
 9336TIP3    H249424   2.942   1.654  14.368  0.9365 -1.5391  1.5133
 9337TIP3   OH249425   3.099   1.480  14.337 -0.4546 -0.3755 -0.2492
 9337TIP3    H149426   3.016   1.433  14.328 -0.1747 -1.2120  1.4543
 9337TIP3    H249427   3.140   1.474  14.250 -1.4717 -1.2850 -0.6683
 9338TIP3   OH249428   0.489   5.175   1.393 -0.2863  0.4245  0.1512
 9338TIP3    H149429   0.406   5.220   1.373 -0.4108  0.2482  0.2681
 9338TIP3    H249430   0.487   5.097   1.338 -0.0206  0.6180 -0.1303
 9339TIP3   OH249431   5.879   4.857  11.221  0.0520 -0.5548  0.2036
 9339TIP3    H149432   5.912   4.868  11.132 -1.1658 -3.5438 -0.6859
 9339TIP3    H249433   5.789   4.825  11.209 -0.4291 -0.1573  2.5105
 9340TIP3   OH249434   1.000   0.091  10.713  0.0191  0.0406 -0.3819
 9340TIP3    H149435   1.060   0.054  10.649  0.0323 -0.3921 -0.1232
 9340TIP3    H249436   1.042   0.172  10.741 -0.3727  0.6366 -1.5016
 9341TIP3   OH249437   3.850   6.517  16.624 -0.1031  0.1161 -0.0697
 9341TIP3    H149438   3.754   6.515  16.620 -0.1079 -0.7495  0.3464
 9341TIP3    H249439   3.878   6.459  16.553  0.0708 -1.1836  1.0346
 9342TIP3   OH249440   1.337   4.251  16.406 -0.4099 -0.0947  0.7176
 9342TIP3    H149441   1.248   4.257  16.440  0.0816 -1.4379  2.3378
 9342TIP3    H249442   1.331   4.188  16.335 -1.0083  0.9008 -0.1247
 9343TIP3   OH249443   6.192   4.539   0.286 -0.0753 -0.5859 -0.2453
 9343TIP3    H149444   6.259   4.505   0.345 -0.8518  0.1274  1.0793
 9343TIP3    H249445   6.112   4.542   0.339 -0.8295 -0.0984 -1.3833
 9344TIP3   OH249446   2.141   1.126  16.558 -0.0540 -0.3606 -0.1900
 9344TIP3    H149447   2.152   1.096  16.468 -0.5702 -2.1461  0.3142
 9344TIP3    H249448   2.226   1.108  16.599  0.4877  1.3110 -0.5369
 9345TIP3   OH249449   0.989   5.902  13.511 -0.3367  0.0043  0.3986
 9345TIP3    H149450   0.895   5.913  13.524 -0.0290  0.7532  2.2116
 9345TIP3    H249451   1.029   5.956  13.579  1.4154  0.1535 -0.7183
 9346TIP3   OH249452   4.128   3.159  12.514  0.2167 -0.1695 -0.6173
 9346TIP3    H149453   4.046   3.209  12.515 -0.1023 -0.7075  0.3625
 9346TIP3    H249454   4.191   3.218  12.472 -0.2995  0.8242 -0.0123
 9347TIP3   OH249455   1.793   1.040   0.259  0.2947  0.5381  0.9386
 9347TIP3    H149456   1.710   0.993   0.263  0.3883  0.0498 -1.9409
 9347TIP3    H249457   1.858   0.976   0.287  0.1309 -0.3046 -0.5474
 9348TIP3   OH249458   2.688   4.602  14.412  0.1645  0.2124  1.1106
 9348TIP3    H149459   2.598   4.633  14.413 -0.1802 -0.7692  0.8268
 9348TIP3    H249460   2.694   4.540  14.485  0.5479  0.1248  1.0119
 9349TIP3   OH249461   5.955   1.924   5.475  0.0222 -0.7674  0.3456
 9349TIP3    H149462   5.864   1.930   5.444 -0.2650  1.3654  1.5043
 9349TIP3    H249463   5.977   2.013   5.502  1.6262 -1.7561  2.4184
 9350TIP3   OH249464   5.759   6.600  16.686 -0.0288  0.3660  0.2514
 9350TIP3    H149465   5.681   6.550  16.708  0.7833 -1.7687 -1.5065
 9350TIP3    H249466   5.830   6.555  16.733  0.3711  1.3762  0.6343
 9351TIP3   OH249467   6.714   5.663   5.541 -0.1741 -0.1304 -0.5705
 9351TIP3    H149468   6.640   5.723   5.544 -0.1239 -0.0944  0.2237
 9351TIP3    H249469   6.791   5.720   5.551 -0.1764 -0.4054  1.3456
 9352TIP3   OH249470   1.290   2.184   3.713  0.0047 -0.3589  0.1193
 9352TIP3    H149471   1.346   2.159   3.787  1.7022 -1.7063 -1.5682
 9352TIP3    H249472   1.319   2.273   3.691  0.3736 -0.4350  0.2846
 9353TIP3   OH249473   0.689   1.957  13.463  0.2788  0.4704  0.0351
 9353TIP3    H149474   0.619   1.903  13.499  0.2167 -0.8735 -2.0516
 9353TIP3    H249475   0.681   1.948  13.368  3.1873  0.3788 -0.2435
 9354TIP3   OH249476   3.188   6.610  15.474  0.6954  0.3445  0.0453
 9354TIP3    H149477   3.227   6.688  15.434  2.6105 -1.1725 -1.1391
 9354TIP3    H249478   3.234   6.601  15.557  1.3450 -0.2231 -0.3760
 9355TIP3   OH249479   3.881   6.321   4.047 -0.2211 -0.1749  0.0775
 9355TIP3    H149480   3.890   6.290   3.957 -0.9212  0.7554 -0.3223
 9355TIP3    H249481   3.870   6.241   4.099 -0.9091 -0.6678 -0.7978
 9356TIP3   OH249482   5.988   0.805  11.958  0.0413 -0.0247 -0.0728
 9356TIP3    H149483   6.028   0.889  11.937 -0.9516  0.4612 -0.0619
 9356TIP3    H249484   5.939   0.781  11.880  0.2747 -0.5737 -0.0554
 9357TIP3   OH249485   4.337   3.834   4.210 -1.0784 -0.2702 -0.0341
 9357TIP3    H149486   4.325   3.779   4.287 -0.9320 -0.1662  0.0645
 9357TIP3    H249487   4.376   3.776   4.145 -0.6261 -0.2026  0.1758
 9358TIP3   OH249488   6.277   0.737  13.201 -0.6880 -0.4234  0.3127
 9358TIP3    H149489   6.320   0.811  13.157 -1.4162  0.9342  1.8371
 9358TIP3    H249490   6.208   0.711  13.140  1.1117 -1.4661 -1.3410
 9359TIP3   OH249491   0.960   1.389   1.232  0.0744  0.2981  0.3629
 9359TIP3    H149492   0.878   1.383   1.282 -0.5082 -1.4120 -0.7751
 9359TIP3    H249493   0.987   1.298   1.218  2.7221  0.8380  1.5773
 9360TIP3   OH249494   0.910   4.276  10.858 -0.1306 -0.0655 -0.3010
 9360TIP3    H149495   0.952   4.191  10.844 -1.1853 -0.6242 -0.1109
 9360TIP3    H249496   0.870   4.297  10.773  0.2119  0.2814 -0.3749
 9361TIP3   OH249497   2.845   0.802   4.071 -0.4563 -0.4074 -0.1007
 9361TIP3    H149498   2.777   0.792   4.137  0.2194  1.0900  0.8318
 9361TIP3    H249499   2.813   0.872   4.014  0.2043  0.1506  0.2123
 9362TIP3   OH249500   5.178   5.855   3.565  0.4664  0.1812  0.2180
 9362TIP3    H149501   5.197   5.947   3.548  0.6039 -0.0736 -1.0691
 9362TIP3    H249502   5.204   5.841   3.656  1.1967  1.2069  0.1705
 9363TIP3   OH249503   3.492   5.436   0.739 -0.2186  0.3936  0.0841
 9363TIP3    H149504   3.428   5.407   0.673  0.9638 -0.0766 -0.8755
 9363TIP3    H249505   3.487   5.532   0.735 -0.5520  0.3641 -0.3106
 9364TIP3   OH249506   1.593   1.771  12.587 -0.0279 -0.0532  0.0587
 9364TIP3    H149507   1.553   1.822  12.658  0.5169  1.7360 -0.8794
 9364TIP3    H249508   1.681   1.751  12.620 -0.3923 -0.7860  0.6071
 9365TIP3   OH249509   2.898   2.153   3.441 -0.6206  0.5956 -0.1100
 9365TIP3    H149510   2.817   2.172   3.488 -0.0638  1.4254  0.5068
 9365TIP3    H249511   2.968   2.183   3.498  0.1638 -0.6197 -0.4018
 9366TIP3   OH249512   0.471   0.134   1.657 -0.5493  0.0816  0.2049
 9366TIP3    H149513   0.443   0.054   1.612  0.4002  0.3743 -0.9403
 9366TIP3    H249514   0.400   0.197   1.640 -2.0448 -0.9520  2.4242
 9367TIP3   OH249515   3.297   5.538  13.616  0.1142  0.5319  0.3658
 9367TIP3    H149516   3.227   5.539  13.551  0.7652  2.5950 -0.3463
 9367TIP3    H249517   3.368   5.588  13.575  1.9717 -1.4178  1.1144
 9368TIP3   OH249518   0.049   4.169  10.651  0.7534 -0.3104  0.3617
 9368TIP3    H149519  -0.011   4.232  10.613 -0.4602  0.4113  3.3513
 9368TIP3    H249520   0.127   4.174  10.596 -0.2901  1.9267 -0.9714
 9369TIP3   OH249521   4.517   2.980  13.076 -0.5805  0.1625  0.4005
 9369TIP3    H149522   4.520   3.074  13.059 -1.5764  0.0012 -0.7727
 9369TIP3    H249523   4.460   2.945  13.007 -0.2367 -1.2973  0.8368
 9370TIP3   OH249524   2.018   3.895  16.996 -0.0324  0.2991  0.3039
 9370TIP3    H149525   2.089   3.948  17.032  0.7271 -0.2369 -0.4054
 9370TIP3    H249526   2.039   3.885  16.903  0.5911 -2.4687  0.7120
 9371TIP3   OH249527   5.110   2.812   1.751  0.1113  0.3806 -0.2484
 9371TIP3    H149528   5.148   2.888   1.707  1.5877 -0.1232  0.1142
 9371TIP3    H249529   5.158   2.805   1.833  0.7623 -1.5547 -0.7481
 9372TIP3   OH249530   0.155   2.398   5.498  0.0734 -0.9384  0.1184
 9372TIP3    H149531   0.133   2.471   5.555 -0.5193 -1.3277  0.3885
 9372TIP3    H249532   0.073   2.374   5.456  0.0597 -2.0502  0.7399
 9373TIP3   OH249533   3.115   1.713   6.084 -0.0088  0.2362 -0.1682
 9373TIP3    H149534   3.202   1.695   6.048  0.4195 -0.9218  1.4248
 9373TIP3    H249535   3.127   1.792   6.138  0.3000 -0.5710  0.9489
 9374TIP3   OH249536   2.017   3.024  12.257  0.0701 -0.2368 -0.4113
 9374TIP3    H149537   1.933   2.982  12.237 -0.9838  1.3724  0.5505
 9374TIP3    H249538   2.080   2.980  12.199 -1.5559 -0.9180 -1.7046
 9375TIP3   OH249539   4.893   2.504   3.502 -0.4085  0.5996  0.2985
 9375TIP3    H149540   4.825   2.443   3.473  1.2348 -0.5327 -1.3004
 9375TIP3    H249541   4.896   2.494   3.597 -0.2249 -1.7764  0.0781
 9376TIP3   OH249542   0.690   5.356   3.705 -0.2305  0.3402 -0.1804
 9376TIP3    H149543   0.733   5.437   3.677  1.5899  0.3617  2.5186
 9376TIP3    H249544   0.608   5.355   3.655  1.2584  2.0637 -2.8470
 9377TIP3   OH249545   0.666   0.610   1.106  0.4133 -0.3537 -0.3689
 9377TIP3    H149546   0.627   0.545   1.165  0.3198  0.1728  0.1689
 9377TIP3    H249547   0.758   0.614   1.132  0.6214 -0.9477 -1.0307
 9378TIP3   OH249548   4.107   0.014   4.074  0.3495  0.5810 -0.1840
 9378TIP3    H149549   4.103  -0.081   4.064 -0.1105  0.5049  0.7002
 9378TIP3    H249550   4.024   0.046   4.038  0.2770  0.6065  0.0068
 9379TIP3   OH249551   6.209   6.615  10.205  0.4556  0.0067 -0.3052
 9379TIP3    H149552   6.158   6.559  10.145 -0.5655 -0.2270  0.7685
 9379TIP3    H249553   6.182   6.704  10.182  0.2747 -0.0693 -0.3900
 9380TIP3   OH249554   3.425   4.712   0.512  0.1546  0.6190  0.3744
 9380TIP3    H149555   3.517   4.737   0.500  0.3585 -0.0473  0.4746
 9380TIP3    H249556   3.430   4.623   0.548 -0.5299  0.6313  0.4994
 9381TIP3   OH249557   6.405   2.540   1.531 -0.4352  0.7124 -0.4063
 9381TIP3    H149558   6.390   2.604   1.601 -2.3363 -1.1378  0.9705
 9381TIP3    H249559   6.498   2.518   1.539 -1.0136 -0.9516  2.9686
 9382TIP3   OH249560   6.561   5.166   3.834  0.3317  0.0344 -0.1601
 9382TIP3    H149561   6.478   5.189   3.792  0.7234 -0.4767 -1.2268
 9382TIP3    H249562   6.590   5.248   3.874 -0.9454  0.0885  0.6681
 9383TIP3   OH249563   0.321   3.073   5.414  0.2010  0.1308 -0.5455
 9383TIP3    H149564   0.243   3.123   5.389 -0.9868 -1.1642  0.4923
 9383TIP3    H249565   0.309   3.055   5.508  0.4314 -2.3729 -0.9631
 9384TIP3   OH249566   6.461   1.600  11.539  0.4524 -0.0416  0.0402
 9384TIP3    H149567   6.380   1.613  11.489  0.2548 -2.1392 -0.2473
 9384TIP3    H249568   6.448   1.649  11.620 -1.6032 -1.2540  0.4913
 9385TIP3   OH249569   5.013   4.760   0.663 -0.4985 -0.5664  0.2298
 9385TIP3    H149570   5.047   4.696   0.602 -0.3788 -0.2702 -0.0162
 9385TIP3    H249571   5.090   4.797   0.706 -0.6163 -1.2756  1.0773
 9386TIP3   OH249572   2.219   0.761  11.404 -0.3118  0.1902 -0.4730
 9386TIP3    H149573   2.254   0.836  11.357  0.9716  1.1283  1.8993
 9386TIP3    H249574   2.254   0.685  11.358  0.1471  1.0626 -1.5897
 9387TIP3   OH249575   0.239   3.530  11.367 -0.3015  0.2648 -0.5178
 9387TIP3    H149576   0.256   3.610  11.417  0.7275  0.6208 -1.4178
 9387TIP3    H249577   0.325   3.500  11.339 -0.5216 -2.2562  1.4377
 9388TIP3   OH249578   5.896   0.410  16.622 -0.0570 -0.3319 -0.3776
 9388TIP3    H149579   5.935   0.435  16.538 -0.1889 -0.8785 -0.5999
 9388TIP3    H249580   5.919   0.318  16.633 -1.3079 -0.6798 -0.5288
 9389TIP3   OH249581   3.014   4.110   4.857 -0.7353 -0.0461  0.4421
 9389TIP3    H149582   3.021   4.016   4.842  0.9330  0.2424 -0.7482
 9389TIP3    H249583   3.034   4.149   4.772  1.1380  1.4506  1.5480
 9390TIP3   OH249584   6.404   6.638   3.984  0.3607 -0.0238  0.4331
 9390TIP3    H149585   6.381   6.693   3.909  0.8325 -1.3448 -0.7040
 9390TIP3    H249586   6.393   6.695   4.060 -2.5650  0.6161 -0.4190
 9391TIP3   OH249587   6.116   0.481  16.025 -0.1128 -0.1226 -0.5173
 9391TIP3    H149588   6.206   0.457  16.004  0.8848  2.0315  1.0800
 9391TIP3    H249589   6.110   0.574  16.004 -1.2623  0.3061  1.4797
 9392TIP3   OH249590   2.401   5.152  14.748 -0.2894  0.0281  0.2885
 9392TIP3    H149591   2.312   5.118  14.749 -0.2961 -0.0191 -0.7081
 9392TIP3    H249592   2.391   5.247  14.743 -0.2804  0.0463  0.5923
 9393TIP3   OH249593   1.384   0.163  16.069  0.2125  1.0551  0.6444
 9393TIP3    H149594   1.382   0.223  16.143 -0.6535  0.7147  0.9023
 9393TIP3    H249595   1.347   0.213  15.996 -0.2947  0.9117  0.8028
 9394TIP3   OH249596   4.375   0.763   3.671  0.2491  0.4628 -0.1532
 9394TIP3    H149597   4.424   0.842   3.648 -0.9990  1.8251  1.6682
 9394TIP3    H249598   4.311   0.793   3.736 -1.6219 -1.6496 -0.9406
 9395TIP3   OH249599   1.158   3.704   3.220 -0.6064  0.3316  0.1522
 9395TIP3    H149600   1.132   3.741   3.304 -1.0582  0.4990 -0.0619
 9395TIP3    H249601   1.104   3.626   3.209  0.0712 -0.1820  0.4220
 9396TIP3   OH249602   3.510   0.419   4.585  0.1642 -0.2927 -0.5826
 9396TIP3    H149603   3.461   0.422   4.503 -0.5469 -1.7128 -0.2299
 9396TIP3    H249604   3.449   0.449   4.652 -0.8901 -3.7570  0.1264
 9397TIP3   OH249605   2.070   1.991  16.938  0.2248  0.1247  0.4618
 9397TIP3    H149606   2.040   2.050  16.869 -3.4234 -0.8702  1.0910
 9397TIP3    H249607   2.042   1.904  16.910  1.4907 -0.7243  1.7247
 9398TIP3   OH249608   1.594   6.697   6.114  0.1217 -0.3860  0.2472
 9398TIP3    H149609   1.663   6.753   6.078 -0.6315  0.6215  0.3229
 9398TIP3    H249610   1.610   6.611   6.075  1.1621 -0.0654 -0.0665
 9399TIP3   OH249611   6.066   0.175  11.175  0.8127 -0.6130  0.0597
 9399TIP3    H149612   6.118   0.174  11.255  0.6764 -0.6364  0.1494
 9399TIP3    H249613   6.003   0.104  11.187  0.1880 -0.0235  0.3385
 9400TIP3   OH249614   6.590   5.953  12.713  0.5635 -0.4585  0.0352
 9400TIP3    H149615   6.554   6.041  12.698 -2.5946 -1.5388  0.9155
 9400TIP3    H249616   6.601   5.917  12.625  0.4403  0.2684 -0.2868
 9401TIP3   OH249617   4.665   3.604  17.041  0.1988 -0.3824 -0.1295
 9401TIP3    H149618   4.694   3.535  16.981  2.1124 -0.0869  0.4192
 9401TIP3    H249619   4.615   3.557  17.109 -0.5309 -0.9248 -1.0367
 9402TIP3   OH249620   0.997   1.682  16.502 -0.0801 -0.2292  0.2384
 9402TIP3    H149621   1.039   1.753  16.454 -0.1270  0.6100  1.4254
 9402TIP3    H249622   1.033   1.602  16.463  2.9543  0.4544  1.5081
 9403TIP3   OH249623   1.676   1.562   0.175 -0.1518 -0.8775 -0.0238
 9403TIP3    H149624   1.587   1.589   0.151 -0.4589 -2.4053 -0.7081
 9403TIP3    H249625   1.717   1.538   0.092 -0.3801 -3.7999  0.6282
 9404TIP3   OH249626   4.416   4.500   4.693 -0.0568 -0.5962 -0.2968
 9404TIP3    H149627   4.444   4.461   4.610 -0.7492 -2.3577  0.2695
 9404TIP3    H249628   4.475   4.574   4.705  0.3093 -0.5512 -2.1618
 9405TIP3   OH249629   2.744   0.531   2.901 -0.9102 -0.2162  0.2461
 9405TIP3    H149630   2.755   0.437   2.915  0.8003 -0.1364 -0.3468
 9405TIP3    H249631   2.717   0.565   2.986 -1.2574 -1.2073  0.5390
 9406TIP3   OH249632   2.089   4.615   0.503 -0.0549  0.4731  0.6390
 9406TIP3    H149633   2.107   4.704   0.473 -1.6509  1.0499  1.3200
 9406TIP3    H249634   1.995   4.603   0.486  0.3958 -1.4963 -0.5282
 9407TIP3   OH249635   0.736   6.538  12.012 -0.2211  0.3298 -0.0072
 9407TIP3    H149636   0.670   6.515  12.077 -2.5216  2.6336 -1.4032
 9407TIP3    H249637   0.776   6.619  12.045 -0.0291  0.4327 -0.4706
 9408TIP3   OH249638   4.229   2.541  13.468 -0.0895  0.0921  0.1165
 9408TIP3    H149639   4.303   2.600  13.453 -0.2898  0.1983 -0.5062
 9408TIP3    H249640   4.201   2.516  13.379  1.7446 -3.1673  0.3560
 9409TIP3   OH249641   1.625   4.223   2.260  0.0808 -0.0962 -0.4329
 9409TIP3    H149642   1.616   4.128   2.251  0.0468  0.1493 -3.1292
 9409TIP3    H249643   1.688   4.234   2.332 -0.2062 -2.1373  0.1691
 9410TIP3   OH249644   0.895   5.825   1.902  0.3420  0.2613  0.4371
 9410TIP3    H149645   0.838   5.778   1.842 -0.0773  0.6974  0.4970
 9410TIP3    H249646   0.919   5.760   1.968  1.0434 -0.3058 -0.3548
 9411TIP3   OH249647   5.905   2.060  16.261  0.1817 -0.2781 -0.1186
 9411TIP3    H149648   5.907   2.153  16.286 -1.9942 -0.2041 -0.1539
 9411TIP3    H249649   5.942   2.015  16.337  0.9283  0.5853  0.0450
 9412TIP3   OH249650   4.766   1.827  10.396  0.0362  0.5816 -0.6791
 9412TIP3    H149651   4.708   1.754  10.375  1.2910 -0.6120 -0.0661
 9412TIP3    H249652   4.743   1.895  10.332 -2.0656  0.1683 -0.4010
 9413TIP3   OH249653   1.912   4.811  11.316 -0.5473  0.3978  0.0966
 9413TIP3    H149654   1.910   4.843  11.226 -1.6749 -0.7458 -0.3019
 9413TIP3    H249655   1.867   4.878  11.367  0.1967  1.1052 -0.1565
 9414TIP3   OH249656   0.658   3.797  13.876  0.4277 -0.0477  0.3998
 9414TIP3    H149657   0.600   3.731  13.839  0.1059  0.1117  0.6194
 9414TIP3    H249658   0.727   3.808  13.810 -1.4294  1.9582 -1.2806
 9415TIP3   OH249659   1.033   1.546   0.844 -0.2100 -0.0796  0.1264
 9415TIP3    H149660   0.978   1.576   0.772  0.4514  2.5206  0.6337
 9415TIP3    H249661   1.087   1.477   0.806 -0.4667  0.6715 -1.6564
 9416TIP3   OH249662   3.232   1.667   6.721  0.2704 -0.0122 -0.5396
 9416TIP3    H149663   3.175   1.704   6.788  0.4119 -1.9515  0.6926
 9416TIP3    H249664   3.209   1.714   6.641 -1.2637  0.9932  0.4670
 9417TIP3   OH249665   1.719   3.110   0.774  0.2422  0.0532 -0.6767
 9417TIP3    H149666   1.712   3.198   0.736 -0.1605 -0.0055 -0.7376
 9417TIP3    H249667   1.645   3.103   0.834  1.3069  0.4292  0.7205
 9418TIP3   OH249668   2.379   4.959  14.225  0.2389 -0.6366  0.4398
 9418TIP3    H149669   2.468   4.987  14.244  0.0945  0.0273  0.1692
 9418TIP3    H249670   2.330   5.041  14.213 -0.0235 -1.0077 -1.1224
 9419TIP3   OH249671   5.161   6.142  15.200 -0.3906  0.1044 -0.0230
 9419TIP3    H149672   5.194   6.053  15.201  0.0341  0.2532 -0.5399
 9419TIP3    H249673   5.182   6.177  15.286  0.2068 -0.0166 -0.1205
 9420TIP3   OH249674   4.397   5.064   0.520 -0.7312  0.5254 -0.0702
 9420TIP3    H149675   4.439   5.137   0.474 -0.0707  1.1228  1.4325
 9420TIP3    H249676   4.430   4.986   0.476 -0.2272  1.0842 -0.7040
 9421TIP3   OH249677   4.821   5.211  11.130 -0.0026 -0.2326  0.1194
 9421TIP3    H149678   4.795   5.145  11.066 -0.5547  0.0207  0.0831
 9421TIP3    H249679   4.877   5.271  11.081 -1.1471  0.4600 -0.3505
 9422TIP3   OH249680   3.947   1.116   4.558  0.0026 -0.0382 -0.1921
 9422TIP3    H149681   3.917   1.125   4.649  1.4226  0.4049  0.2358
 9422TIP3    H249682   3.887   1.171   4.508 -0.2697  0.3831  0.5832
 9423TIP3   OH249683   2.426   6.106   2.502 -0.5275 -0.6387  0.4160
 9423TIP3    H149684   2.376   6.097   2.421  0.2875  0.3798 -0.1991
 9423TIP3    H249685   2.491   6.036   2.498  0.0915 -0.0318 -0.2364
 9424TIP3   OH249686   6.036   3.616   2.296 -0.2765 -0.1455  0.4157
 9424TIP3    H149687   5.976   3.576   2.359  0.6333 -0.4835  1.0751
 9424TIP3    H249688   6.102   3.549   2.280 -0.3006  0.0739 -0.6260
 9425TIP3   OH249689   2.500   1.625  13.013 -0.4324 -0.1945  0.3683
 9425TIP3    H149690   2.546   1.631  13.096 -0.6876  0.9378  0.4302
 9425TIP3    H249691   2.466   1.713  12.997 -1.2989 -0.6550 -0.4076
 9426TIP3   OH249692   2.164   5.032  11.562 -0.0986  0.8729 -0.0478
 9426TIP3    H149693   2.247   5.052  11.604  0.0799 -2.1890  1.1598
 9426TIP3    H249694   2.100   5.032  11.634 -0.8090  1.2070 -0.6677
 9427TIP3   OH249695   0.064   2.246  16.575  0.6024  0.2394 -0.1814
 9427TIP3    H149696   0.033   2.279  16.491  0.2792 -0.3330 -0.2938
 9427TIP3    H249697   0.002   2.281  16.640 -0.7351 -1.4829 -0.4802
 9428TIP3   OH249698   5.549   0.338  16.355  0.1678  0.0552 -0.5008
 9428TIP3    H149699   5.622   0.291  16.316 -0.2471  0.1772 -1.4313
 9428TIP3    H249700   5.478   0.328  16.292 -0.5683  0.0937  0.3092
 9429TIP3   OH249701   5.507   3.412   4.214 -0.3399  0.4142 -0.2296
 9429TIP3    H149702   5.451   3.415   4.291 -0.1417 -0.6689 -0.0449
 9429TIP3    H249703   5.481   3.333   4.167  0.4776  0.3319 -0.5650
 9430TIP3   OH249704   3.022   5.440  13.760 -0.0616 -0.3246  0.2602
 9430TIP3    H149705   3.072   5.506  13.711  0.8549 -1.5554 -0.4874
 9430TIP3    H249706   2.974   5.392  13.692  0.3158 -1.2929  0.6771
 9431TIP3   OH249707   0.068   1.287  14.635  0.2474 -0.3001  0.7471
 9431TIP3    H149708   0.021   1.288  14.552  3.0597  0.1508 -0.9273
 9431TIP3    H249709   0.030   1.359  14.686 -0.6262  0.2487 -0.6608
 9432TIP3   OH249710   2.857   5.645  12.158  1.0284 -0.4450 -0.2372
 9432TIP3    H149711   2.789   5.707  12.132  2.1814  0.9085 -0.1387
 9432TIP3    H249712   2.826   5.609  12.241  1.0727  1.2612  0.5635
 9433TIP3   OH249713   0.130   6.578  16.108  0.3309 -0.5356  0.1992
 9433TIP3    H149714   0.037   6.554  16.098  0.5831 -1.7231  0.5758
 9433TIP3    H249715   0.168   6.562  16.021  0.1624  0.0639  0.0125
 9434TIP3   OH249716   0.328   4.887   3.581  0.5303  0.4828  0.2689
 9434TIP3    H149717   0.401   4.944   3.605 -1.2892  1.8748  2.6857
 9434TIP3    H249718   0.279   4.874   3.662 -1.0355 -1.7248 -0.9637
 9435TIP3   OH249719   4.612   1.726  15.318 -0.3937  0.1016 -0.1636
 9435TIP3    H149720   4.541   1.774  15.275  1.4099  2.3215 -0.7973
 9435TIP3    H249721   4.691   1.775  15.294  1.1500 -1.2916  1.9359
 9436TIP3   OH249722   5.656   0.450  14.155  0.1784 -0.1639  1.0676
 9436TIP3    H149723   5.673   0.428  14.247  0.6532 -0.2321  0.9650
 9436TIP3    H249724   5.706   0.530  14.140  0.7774 -0.6110  0.6415
 9437TIP3   OH249725   2.166   2.182  12.705  0.1549 -0.3996 -0.5286
 9437TIP3    H149726   2.261   2.184  12.702  0.1461 -1.3724 -1.7175
 9437TIP3    H249727   2.144   2.091  12.727 -0.5400 -1.0494 -3.6513
 9438TIP3   OH249728   1.866   4.464  13.732 -0.8744  0.1394 -0.3079
 9438TIP3    H149729   1.905   4.463  13.819  0.9723  1.7224 -1.0861
 9438TIP3    H249730   1.912   4.396  13.684 -0.7418  0.3887 -0.5340
 9439TIP3   OH249731   2.284   4.732   3.044 -0.1828 -0.3302  0.6413
 9439TIP3    H149732   2.238   4.652   3.069 -0.6595 -0.7916 -1.6070
 9439TIP3    H249733   2.215   4.789   3.009  0.2722  0.7753  1.5218
 9440TIP3   OH249734   4.195   3.507   3.136  0.0842  0.0285  0.1336
 9440TIP3    H149735   4.236   3.441   3.079 -2.1344 -1.3912  0.1382
 9440TIP3    H249736   4.163   3.457   3.211 -2.2050  0.9995 -0.1696
 9441TIP3   OH249737   3.771   5.384  16.927 -0.2214 -0.8589 -0.4338
 9441TIP3    H149738   3.801   5.360  16.839 -0.5368  0.5900 -0.9652
 9441TIP3    H249739   3.817   5.325  16.986  0.7451 -1.1989 -1.5157
 9442TIP3   OH249740   6.525   4.165   4.391 -1.2663  0.0402 -0.1038
 9442TIP3    H149741   6.569   4.139   4.472 -1.8122 -2.5503 -0.5988
 9442TIP3    H249742   6.432   4.170   4.416 -1.5743 -1.8793 -0.8151
 9443TIP3   OH249743   3.466   4.991  12.849 -0.0699 -0.1035 -0.1543
 9443TIP3    H149744   3.390   4.933  12.855  0.9334 -1.4499 -0.3210
 9443TIP3    H249745   3.457   5.033  12.763 -0.6430 -0.2220 -0.1603
 9444TIP3   OH249746   2.763   6.690  17.143  0.1111  0.1827 -0.2762
 9444TIP3    H149747   2.674   6.671  17.114 -0.1710 -0.5914  1.0661
 9444TIP3    H249748   2.816   6.620  17.107  0.0635  0.2595 -0.4958
 9445TIP3   OH249749   1.206   4.099   3.246  0.5070 -0.6273  0.1839
 9445TIP3    H149750   1.149   4.042   3.298 -0.1880 -0.4355 -0.3576
 9445TIP3    H249751   1.295   4.072   3.270  0.2066 -3.2545 -1.4171
 9446TIP3   OH249752   6.439   1.092   3.024  0.3564 -0.5868  0.0220
 9446TIP3    H149753   6.461   1.007   3.064  0.4930 -0.3337  0.4804
 9446TIP3    H249754   6.392   1.069   2.944 -3.2674 -1.0434  2.1912
 9447TIP3   OH249755   6.251   1.710  16.232  0.1667  0.4157 -0.4925
 9447TIP3    H149756   6.165   1.752  16.233 -0.2812 -0.4960  1.7974
 9447TIP3    H249757   6.244   1.644  16.163 -0.0126  2.2212 -2.2493
 9448TIP3   OH249758   5.098   0.529   3.810 -0.1487  0.4170 -0.1195
 9448TIP3    H149759   5.038   0.603   3.819  0.2444  0.6308  0.7758
 9448TIP3    H249760   5.065   0.481   3.734 -1.6228  0.3688  0.5329
 9449TIP3   OH249761   1.314   0.152   0.519 -0.6592 -0.6278 -0.4636
 9449TIP3    H149762   1.335   0.235   0.475 -1.8255  0.2675  0.6367
 9449TIP3    H249763   1.224   0.134   0.493 -1.4464  0.0393  1.7208
 9450TIP3   OH249764   1.294   2.636  13.026 -0.1093 -0.0814 -0.1774
 9450TIP3    H149765   1.344   2.700  13.077  0.1462  0.6551 -1.3031
 9450TIP3    H249766   1.308   2.664  12.935  1.1420 -2.5631 -0.7909
 9451TIP3   OH249767   2.098   1.028   2.261  0.0038  0.4995  0.0662
 9451TIP3    H149768   2.101   1.053   2.169  0.8871  1.8272  0.4336
 9451TIP3    H249769   2.159   1.088   2.304  0.9571 -1.2571  1.2430
 9452TIP3   OH249770   1.600   3.812  14.510 -0.9017  0.6619 -0.3261
 9452TIP3    H149771   1.591   3.730  14.461  1.9161  0.5927 -0.7875
 9452TIP3    H249772   1.607   3.784  14.601  0.0667  0.3878 -0.4831
 9453TIP3   OH249773   3.627   4.500   1.362  0.0193  0.3352 -0.5089
 9453TIP3    H149774   3.533   4.486   1.365  0.1131 -0.3403 -0.5549
 9453TIP3    H249775   3.649   4.495   1.269 -0.0601  1.6035 -0.5940
 9454TIP3   OH249776   4.022   5.318   4.841  0.0210 -0.6084 -0.0291
 9454TIP3    H149777   4.039   5.379   4.913  2.6037 -1.2107 -0.0672
 9454TIP3    H249778   4.013   5.374   4.763  0.5661 -0.1516  0.2330
 9455TIP3   OH249779   3.681   1.743   4.012 -0.5719 -0.3382  0.1707
 9455TIP3    H149780   3.648   1.795   3.938  0.5768 -0.0850 -0.1779
 9455TIP3    H249781   3.635   1.778   4.088  0.0315  1.0837 -0.0836
 9456TIP3   OH249782   0.972   5.855  16.111  0.1382 -0.2071  0.2699
 9456TIP3    H149783   0.913   5.908  16.165 -0.8503 -1.6623  0.6699
 9456TIP3    H249784   0.924   5.845  16.028  0.4147 -0.2897  0.1246
 9457TIP3   OH249785   0.277   5.616   3.982 -0.0811 -0.4992  0.0738
 9457TIP3    H149786   0.352   5.674   3.995 -1.8273  1.2940  2.5170
 9457TIP3    H249787   0.302   5.534   4.023  0.5592  0.0867  0.8521
 9458TIP3   OH249788   4.863   1.537   4.913 -0.0423 -0.3467 -0.1115
 9458TIP3    H149789   4.913   1.504   4.839  0.4470  2.9193 -1.3509
 9458TIP3    H249790   4.922   1.525   4.988  1.3469  0.5138 -1.0326
 9459TIP3   OH249791   0.205   0.249  14.346 -0.2389 -0.1157 -0.1201
 9459TIP3    H149792   0.169   0.336  14.361 -0.8982 -0.3590 -0.2307
 9459TIP3    H249793   0.299   0.258  14.359 -0.4676  0.2899  1.3258
 9460TIP3   OH249794   3.749   5.727   3.326 -0.2254  0.1426  0.2236
 9460TIP3    H149795   3.711   5.774   3.400 -3.2822 -0.9480 -0.5656
 9460TIP3    H249796   3.775   5.796   3.264  1.0986  0.9946  1.6842
 9461TIP3   OH249797   4.766   5.390  14.074 -0.0320 -0.0765 -0.2125
 9461TIP3    H149798   4.841   5.446  14.095 -0.1395  0.0721 -0.2256
 9461TIP3    H249799   4.797   5.301  14.091  0.8402 -0.1773 -2.2638
 9462TIP3   OH249800   0.594   1.373   5.645 -0.8353  1.0991 -0.9579
 9462TIP3    H149801   0.674   1.425   5.650 -1.0061  1.2415  0.4360
 9462TIP3    H249802   0.610   1.310   5.574  1.5185 -0.5969  1.0107
 9463TIP3   OH249803   2.123   0.594  15.924 -0.1718  0.3024 -0.2099
 9463TIP3    H149804   2.202   0.540  15.924 -0.5418 -0.2438 -0.5984
 9463TIP3    H249805   2.052   0.533  15.900 -1.1564  0.1268  2.9797
 9464TIP3   OH249806   0.179   2.959   2.996 -0.0410  0.3126  0.4524
 9464TIP3    H149807   0.122   2.883   2.988  1.3806 -0.7085 -0.0069
 9464TIP3    H249808   0.139   3.025   2.938 -0.9256 -0.2755  0.3899
 9465TIP3   OH249809   5.302   5.149  17.086  0.6532  0.2257 -0.1642
 9465TIP3    H149810   5.394   5.127  17.072  0.6555  0.3604 -0.3621
 9465TIP3    H249811   5.278   5.103  17.167  1.5719  2.2227  1.2641
 9466TIP3   OH249812   2.263   6.036  13.718  0.3915  0.1442 -0.6181
 9466TIP3    H149813   2.186   6.027  13.774  0.9174 -0.8044 -0.0386
 9466TIP3    H249814   2.241   6.107  13.658 -0.6935  0.2851 -0.0575
 9467TIP3   OH249815   2.150   2.471  16.158 -0.1287  0.5612 -0.1836
 9467TIP3    H149816   2.175   2.407  16.225  0.4146  0.4015 -0.5383
 9467TIP3    H249817   2.136   2.418  16.079  0.0741  0.8533 -0.4142
 9468TIP3   OH249818   1.572   3.006   3.815 -0.0490 -0.2920  0.2784
 9468TIP3    H149819   1.668   3.003   3.817  0.0309 -0.8658 -2.7765
 9468TIP3    H249820   1.549   2.975   3.728 -3.0335  0.0324  0.9147
 9469TIP3   OH249821   4.109   2.124   5.650  0.1202 -0.8388 -0.3501
 9469TIP3    H149822   4.118   2.110   5.744  0.4069  1.1176 -0.0710
 9469TIP3    H249823   4.128   2.217   5.637 -2.2682 -0.5157 -2.0153
 9470TIP3   OH249824   2.559   1.531  12.603  0.1126  0.4724  0.2050
 9470TIP3    H149825   2.557   1.521  12.508 -3.2252  1.2438  0.1114
 9470TIP3    H249826   2.485   1.588  12.622  1.2666  1.0431  3.2116
 9471TIP3   OH249827   1.582   5.917   1.117 -0.3374  0.3020  0.1194
 9471TIP3    H149828   1.666   5.949   1.084 -1.4173  0.7173 -2.3335
 9471TIP3    H249829   1.534   5.995   1.142  0.8586 -0.0579  3.8237
 9472TIP3   OH249830   1.325   6.751   2.105 -0.3509 -0.0103 -0.4827
 9472TIP3    H149831   1.337   6.831   2.054  1.7468  0.9668  1.4355
 9472TIP3    H249832   1.412   6.711   2.107 -0.8034 -0.9590  0.7814
 9473TIP3   OH249833   4.758   2.353  14.832 -0.7472  0.4771 -0.0368
 9473TIP3    H149834   4.712   2.275  14.862  0.9092 -0.0820  1.1023
 9473TIP3    H249835   4.743   2.418  14.901 -0.8357  0.6638 -0.2340
 9474TIP3   OH249836   0.047   0.895   5.392 -0.3151 -0.0672 -0.2340
 9474TIP3    H149837   0.030   0.899   5.487  0.1311  1.5392 -0.2095
 9474TIP3    H249838  -0.040   0.897   5.353 -0.5097 -0.8823  0.1426
 9475TIP3   OH249839   4.748   0.608  12.262  0.3017 -0.4792 -0.1752
 9475TIP3    H149840   4.781   0.555  12.335 -0.0138 -0.4187  0.0154
 9475TIP3    H249841   4.672   0.560  12.230 -0.7766  0.5043  0.8371
 9476TIP3   OH249842   4.696   5.149   2.100 -0.7237  0.2416  0.0554
 9476TIP3    H149843   4.751   5.076   2.129 -2.1236 -0.6116  0.5929
 9476TIP3    H249844   4.629   5.157   2.168 -1.1853  1.3688 -0.5199
 9477TIP3   OH249845   1.065   1.765   2.017 -0.2453 -0.5894 -0.0659
 9477TIP3    H149846   1.034   1.768   2.108 -0.7453  0.7700 -0.2805
 9477TIP3    H249847   1.106   1.679   2.010 -1.9545 -1.5235  0.8825
 9478TIP3   OH249848   5.212   3.856  15.451  0.2053  0.0117 -0.1078
 9478TIP3    H149849   5.222   3.770  15.492 -1.9102  1.5232  3.8602
 9478TIP3    H249850   5.291   3.904  15.477  1.7337 -0.8798 -2.9213
 9479TIP3   OH249851   1.806   5.244  10.523 -0.0643  0.3559  0.7630
 9479TIP3    H149852   1.894   5.234  10.559 -0.2731 -1.9794  0.7451
 9479TIP3    H249853   1.801   5.177  10.455 -1.5729  1.0239  0.1994
 9480TIP3   OH249854   3.446   0.717  14.628  0.2963 -0.1757  0.0953
 9480TIP3    H149855   3.525   0.751  14.669 -1.1657  2.7164  0.6584
 9480TIP3    H249856   3.446   0.756  14.540  0.6042 -1.9335 -0.7058
 9481TIP3   OH249857   6.417   3.684  16.215  0.2578 -0.4852  0.0211
 9481TIP3    H149858   6.435   3.610  16.157 -2.6067 -2.3141  1.3248
 9481TIP3    H249859   6.482   3.677  16.285 -1.6771 -3.4880  1.6160
 9482TIP3   OH249860   0.187   1.114   3.288 -0.4053  0.4395  0.0650
 9482TIP3    H149861   0.156   1.204   3.276 -0.4524  0.4883  0.5389
 9482TIP3    H249862   0.233   1.094   3.207 -1.5511  0.4219 -0.5898
 9483TIP3   OH249863   4.075   0.564  13.845  0.0945  0.1985 -0.4261
 9483TIP3    H149864   4.109   0.481  13.810  0.8460  0.7114 -0.9260
 9483TIP3    H249865   3.983   0.545  13.866 -0.0895 -0.4249 -1.7099
 9484TIP3   OH249866   4.095   3.380   3.361 -0.5043  0.0436 -0.7236
 9484TIP3    H149867   4.021   3.322   3.381 -1.4116  1.0794 -1.0551
 9484TIP3    H249868   4.103   3.436   3.438 -2.1760  2.1205 -2.0035
 9485TIP3   OH249869   3.927   1.055   1.819 -0.1163  0.2655  0.0856
 9485TIP3    H149870   3.833   1.040   1.821  0.0628 -0.8283  0.4685
 9485TIP3    H249871   3.965   0.974   1.853  0.9512  0.7854  0.1439
 9486TIP3   OH249872   4.625   2.026   0.119 -0.4056 -0.3491 -0.7273
 9486TIP3    H149873   4.549   2.012   0.063 -1.2309 -1.2881  0.5755
 9486TIP3    H249874   4.627   1.948   0.176  0.7804  0.2675  0.0963
 9487TIP3   OH249875   5.919   6.137  15.035  0.3570 -0.1604 -0.9497
 9487TIP3    H149876   6.011   6.135  15.009  0.3191 -1.7484 -1.0173
 9487TIP3    H249877   5.922   6.133  15.131  0.3939  1.7454 -0.8547
 9488TIP3   OH249878   0.363   3.997  11.035 -0.4148  0.4860  0.6219
 9488TIP3    H149879   0.401   3.964  10.954 -0.7121  0.0220  0.6727
 9488TIP3    H249880   0.286   4.048  11.006 -1.1324 -0.5573  0.6835
 9489TIP3   OH249881   0.068   5.825  16.658 -0.2133  0.1940  0.9664
 9489TIP3    H149882   0.066   5.729  16.656 -1.4684  0.1912  1.8410
 9489TIP3    H249883   0.154   5.848  16.622  0.4594 -1.2882  1.5746
 9490TIP3   OH249884   4.382   3.780  16.336  0.2885  0.0783  0.4842
 9490TIP3    H149885   4.348   3.851  16.283  0.4012  0.2883  0.6913
 9490TIP3    H249886   4.379   3.814  16.426 -1.1066 -0.7431  0.7582
 9491TIP3   OH249887   0.982   0.755   0.815 -0.4042 -0.2908 -0.7242
 9491TIP3    H149888   0.889   0.763   0.838 -0.5772 -0.9029 -1.1781
 9491TIP3    H249889   1.001   0.662   0.826  0.3026 -0.0701 -0.1087
 9492TIP3   OH249890   1.575   0.043  12.581  0.1757 -0.1375  0.0974
 9492TIP3    H149891   1.541   0.124  12.542 -0.0939 -0.3037 -0.0129
 9492TIP3    H249892   1.666   0.040  12.552  0.3666  0.4550  0.6314
 9493TIP3   OH249893   2.163   1.453  11.308  0.0712  0.5683  0.3357
 9493TIP3    H149894   2.142   1.538  11.348  0.8238  1.4082 -0.9973
 9493TIP3    H249895   2.241   1.423  11.354  0.8671  1.4769 -0.3980
 9494TIP3   OH249896   1.746   2.894   4.935  0.4469 -0.0585  0.0008
 9494TIP3    H149897   1.705   2.828   4.880 -0.7580 -1.4586  2.4813
 9494TIP3    H249898   1.674   2.937   4.980  1.4606 -0.1676  1.7997
 9495TIP3   OH249899   4.215   1.851  12.801 -0.1058  0.5295  0.1683
 9495TIP3    H149900   4.130   1.888  12.826 -0.1195  0.0187  0.8970
 9495TIP3    H249901   4.223   1.869  12.707 -0.8931  0.8231  0.1562
 9496TIP3   OH249902   4.399   2.997   1.071  0.2346  0.1920 -0.4177
 9496TIP3    H149903   4.406   3.092   1.079 -1.1273  0.5627 -3.1282
 9496TIP3    H249904   4.480   2.971   1.026  0.2002  0.1790 -0.4718
 9497TIP3   OH249905   0.284   3.726   0.658 -0.3635  0.1141  0.0803
 9497TIP3    H149906   0.243   3.675   0.589 -0.5265 -0.8248  0.8642
 9497TIP3    H249907   0.305   3.810   0.616  1.6805 -1.2732 -1.7515
 9498TIP3   OH249908   4.019   2.387  11.810 -0.3806  0.3509 -0.1704
 9498TIP3    H149909   3.976   2.433  11.882 -0.9682 -1.8047  0.9079
 9498TIP3    H249910   4.108   2.369  11.843 -0.0360  0.9931 -0.7268
 9499TIP3   OH249911   0.354   3.964  13.961  0.1608  0.4224  0.1069
 9499TIP3    H149912   0.270   3.974  13.916  0.3883  0.6061 -0.2765
 9499TIP3    H249913   0.380   3.873  13.944 -0.1284  0.2634  0.5165
 9500TIP3   OH249914   2.521   3.766  12.135 -0.4198  0.3122 -0.1650
 9500TIP3    H149915   2.478   3.694  12.181 -2.2567  0.6190 -1.3798
 9500TIP3    H249916   2.454   3.834  12.128  1.1194  1.9132  0.4417
 9501TIP3   OH249917   2.448   2.208   1.811 -0.2639 -0.2322  0.1234
 9501TIP3    H149918   2.399   2.169   1.739  0.2486 -0.3326 -0.1749
 9501TIP3    H249919   2.521   2.148   1.825 -0.3103 -0.1671  0.6690
 9502TIP3   OH249920   6.121   0.092   2.212 -0.4044 -0.1495 -0.6277
 9502TIP3    H149921   6.209   0.124   2.229 -0.1767 -1.3689  0.5702
 9502TIP3    H249922   6.125  -0.001   2.232 -1.9279 -0.2508 -0.7262
 9503TIP3   OH249923   1.142   1.243   5.185 -0.4679  0.6851 -0.7894
 9503TIP3    H149924   1.133   1.202   5.099  1.6452 -2.4660  0.3895
 9503TIP3    H249925   1.107   1.177   5.246  2.6679  0.7250  1.1514
 9504TIP3   OH249926   2.743   2.784  16.821  0.2994 -0.0113  0.2043
 9504TIP3    H149927   2.765   2.690  16.818 -2.0867 -0.6027 -0.0866
 9504TIP3    H249928   2.826   2.828  16.808  1.1339 -2.1235 -2.1523
 9505TIP3   OH249929   1.073   4.454  16.230 -0.1136  0.0407 -0.0264
 9505TIP3    H149930   1.013   4.477  16.301 -1.1112 -1.1764 -0.4599
 9505TIP3    H249931   1.158   4.484  16.260 -1.0838  2.7557  0.1515
 9506TIP3   OH249932   1.726   5.692   0.609  0.5895 -0.2828  0.3254
 9506TIP3    H149933   1.638   5.709   0.577  0.8766 -0.5438 -0.6425
 9506TIP3    H249934   1.719   5.697   0.704  0.0675  2.2338  0.1834
 9507TIP3   OH249935   4.259   0.916   2.832 -0.3468  0.3031 -0.1602
 9507TIP3    H149936   4.344   0.899   2.791 -0.1814 -2.2315  1.1526
 9507TIP3    H249937   4.280   0.935   2.924 -1.2513 -1.7928  0.5191
 9508TIP3   OH249938   1.772   3.440  14.612  0.3528  0.2881  0.2875
 9508TIP3    H149939   1.757   3.379  14.539 -0.3872 -0.1643  0.8071
 9508TIP3    H249940   1.819   3.388  14.677  0.4621  0.5118  0.3852
 9509TIP3   OH249941   5.178   5.743  16.580  0.3357  0.0483 -0.1285
 9509TIP3    H149942   5.164   5.825  16.628 -3.1224 -1.2029  1.2086
 9509TIP3    H249943   5.222   5.686  16.642  1.4081  0.3982 -0.5586
 9510TIP3   OH249944   0.373   4.596  15.283 -0.0547 -0.3637 -0.2498
 9510TIP3    H149945   0.450   4.649  15.262  0.0599  0.7703  2.7637
 9510TIP3    H249946   0.398   4.507  15.261  1.3259  0.2786 -1.3465
 9511TIP3   OH249947   5.813   1.467   1.184 -0.3524 -0.1782  0.2500
 9511TIP3    H149948   5.781   1.457   1.274  0.4082  2.9106  0.9254
 9511TIP3    H249949   5.747   1.521   1.141  0.2634  0.0067 -0.4692
 9512TIP3   OH249950   0.315   2.852   0.742  0.1392 -0.1956  0.2958
 9512TIP3    H149951   0.336   2.804   0.822  0.4500  0.5530  0.6688
 9512TIP3    H249952   0.220   2.843   0.733  0.0870 -0.1692  0.8162
 9513TIP3   OH249953   3.478   1.664  16.686 -0.1351  0.6824 -0.4475
 9513TIP3    H149954   3.530   1.744  16.677  0.4865  0.2888 -0.3956
 9513TIP3    H249955   3.538   1.601  16.726 -0.4074 -0.0276 -1.1549
 9514TIP3   OH249956   1.394   5.659   1.889 -0.3961  0.1866  0.1688
 9514TIP3    H149957   1.476   5.642   1.934  0.7274 -0.1665 -1.9677
 9514TIP3    H249958   1.349   5.575   1.888 -1.0645  0.4913  1.8000
 9515TIP3   OH249959   4.998   6.241   3.672 -0.3184 -0.0520 -0.3899
 9515TIP3    H149960   4.961   6.203   3.752  0.2226 -0.1455 -0.1803
 9515TIP3    H249961   4.956   6.192   3.601  0.3822 -1.0583 -0.1263
 9516TIP3   OH249962   0.582   3.110   6.405  0.6199 -0.8462 -0.2092
 9516TIP3    H149963   0.523   3.036   6.419 -0.7853  0.0891 -1.0382
 9516TIP3    H249964   0.651   3.075   6.349 -0.3024 -1.4367 -1.0102
 9517TIP3   OH249965   1.231   6.687   5.813 -0.1215  0.6308  0.6174
 9517TIP3    H149966   1.253   6.729   5.896  0.3261  1.8813 -0.1200
 9517TIP3    H249967   1.229   6.594   5.833 -1.2300  0.9947  2.3169
 9518TIP3   OH249968   5.242   1.538  12.571 -0.2179 -0.3515 -0.1597
 9518TIP3    H149969   5.247   1.461  12.515 -0.0120  1.0099 -2.0457
 9518TIP3    H249970   5.151   1.539  12.603 -0.6284 -0.5568 -1.3035
 9519TIP3   OH249971   0.960   6.668   3.501  0.6089  0.2801 -0.3437
 9519TIP3    H149972   1.016   6.695   3.428 -0.6148  1.9727 -0.6799
 9519TIP3    H249973   0.872   6.668   3.465  0.2772 -1.6185  0.3990
 9520TIP3   OH249974   3.387   6.604   5.768 -0.2475 -0.0969 -0.5149
 9520TIP3    H149975   3.471   6.569   5.799  0.1606 -0.5555 -2.0608
 9520TIP3    H249976   3.322   6.539   5.796 -0.3343  1.0583  2.1141
 9521TIP3   OH249977   1.369   5.024  11.456 -0.5662 -0.1769 -0.3433
 9521TIP3    H149978   1.274   5.022  11.448 -0.6584 -0.6208  0.8434
 9521TIP3    H249979   1.387   4.981  11.539  0.7160 -0.7270 -0.8904
 9522TIP3   OH249980   5.744   3.299  14.207  0.4137  0.8557 -0.0068
 9522TIP3    H149981   5.667   3.297  14.264  0.5129  0.5466  0.1163
 9522TIP3    H249982   5.792   3.378  14.235  0.0664  1.1282 -0.1839
 9523TIP3   OH249983   2.162   3.661  10.592  0.1128 -0.1892 -0.8594
 9523TIP3    H149984   2.095   3.729  10.597  0.3916  0.0428 -0.2462
 9523TIP3    H249985   2.122   3.591  10.540 -0.4771  0.0915 -0.7793
 9524TIP3   OH249986   6.592   2.761   4.369  0.0310  0.4842 -0.0530
 9524TIP3    H149987   6.584   2.852   4.341 -0.1567  0.7151  0.7426
 9524TIP3    H249988   6.657   2.723   4.309 -0.2641  1.0048 -0.7033
 9525TIP3   OH249989   6.145   0.036  15.542 -0.3101 -0.0885  0.1164
 9525TIP3    H149990   6.077  -0.031  15.537 -0.8453  0.5307 -1.1331
 9525TIP3    H249991   6.100   0.117  15.521  0.5568  0.5202  0.5853
 9526TIP3   OH249992   4.879   2.303   0.711  0.2353 -0.1307  0.1049
 9526TIP3    H149993   4.880   2.395   0.736  1.5670 -0.4186  1.1598
 9526TIP3    H249994   4.960   2.291   0.661  0.4944 -0.9307  0.7130
 9527TIP3   OH249995   6.468   5.103  12.669  0.3249 -0.0124 -0.0045
 9527TIP3    H149996   6.415   5.180  12.652  1.5788  0.5384 -1.6244
 9527TIP3    H249997   6.491   5.108  12.761 -0.0331  1.2813  0.0171
 9528TIP3   OH249998   6.436   2.744  14.327 -0.3080 -0.0838  0.0617
 9528TIP3    H149999   6.469   2.656  14.310  0.5382  0.2941 -0.2346
 9528TIP3    H250000   6.464   2.796  14.252 -1.9534  0.1422 -0.4229
 9529TIP3   OH250001   1.618   3.568   1.061 -0.3835  0.3587 -0.4454
 9529TIP3    H150002   1.648   3.655   1.088  1.2913  0.1217 -1.4521
 9529TIP3    H250003   1.685   3.508   1.094 -1.0737 -0.4707 -0.5240
 9530TIP3   OH250004   5.903   3.977   3.893  0.5058 -0.0815 -0.3817
 9530TIP3    H150005   5.859   3.959   3.976 -0.9949 -0.1672 -1.1727
 9530TIP3    H250006   5.966   3.905   3.884 -0.2778 -0.8372  0.0333
 9531TIP3   OH250007   6.756   4.938   1.397  0.1854 -0.1476  0.2911
 9531TIP3    H150008   6.838   4.951   1.351  0.8500  0.3446  1.5833
 9531TIP3    H250009   6.780   4.886   1.475 -0.9035 -0.9675  0.0970
 9532TIP3   OH250010   0.302   1.506  14.323 -0.1227 -0.2646 -0.4558
 9532TIP3    H150011   0.303   1.456  14.241 -0.1560 -1.9302  0.5286
 9532TIP3    H250012   0.315   1.440  14.391 -1.8465  0.8389  1.0022
 9533TIP3   OH250013   2.139   0.972  16.312 -0.0855 -0.2033  0.0417
 9533TIP3    H150014   2.147   0.934  16.224 -3.0241  1.8386 -1.1966
 9533TIP3    H250015   2.062   0.931  16.350  0.8916 -0.7194  1.5211
 9534TIP3   OH250016   1.447   5.353   5.694  0.1779 -0.0522  0.4523
 9534TIP3    H150017   1.448   5.441   5.732  1.7422  0.6969 -1.2551
 9534TIP3    H250018   1.522   5.352   5.634 -1.1810 -1.7677 -1.2840
 9535TIP3   OH250019   2.658   5.200  12.363  0.2907 -0.3143  0.0331
 9535TIP3    H150020   2.627   5.112  12.339  3.2314 -0.8034 -2.2108
 9535TIP3    H250021   2.733   5.184  12.420 -0.3447  0.8166  1.2256
 9536TIP3   OH250022   4.058   2.219   6.175  0.1231  0.0514  0.0431
 9536TIP3    H150023   4.150   2.202   6.153  0.0367 -0.9051  0.4126
 9536TIP3    H250024   4.051   2.193   6.267 -0.3570  0.7690  0.2118
 9537TIP3   OH250025   4.048   5.222  17.153  0.1676  0.0601 -0.8404
 9537TIP3    H150026   4.045   5.280  17.076  1.4063  0.2992 -0.7157
 9537TIP3    H250027   3.957   5.193  17.164  0.0875 -0.5018 -2.7935
 9538TIP3   OH250028   6.264   2.241  17.153 -0.3703 -0.1668 -0.1535
 9538TIP3    H150029   6.170   2.231  17.164 -0.3631 -2.4600 -1.5856
 9538TIP3    H250030   6.302   2.177  17.214  0.2926  1.3163  1.0021
 9539TIP3   OH250031   3.957   6.588  16.080 -0.3346  0.1775  0.1613
 9539TIP3    H150032   4.039   6.540  16.094 -0.9383 -0.7235  0.6518
 9539TIP3    H250033   3.984   6.672  16.045  0.8085 -0.1241  0.3092
 9540TIP3   OH250034   3.951   2.232   4.426 -0.3928  0.3965  0.4215
 9540TIP3    H150035   3.866   2.201   4.393 -0.1883 -2.9913  2.7952
 9540TIP3    H250036   3.939   2.326   4.438 -3.6258  0.0902  0.2028
 9541TIP3   OH250037   4.694   5.620  16.336 -0.0594 -0.1672 -0.0791
 9541TIP3    H150038   4.611   5.571  16.338  1.0988 -2.1525  3.1228
 9541TIP3    H250039   4.670   5.709  16.358 -1.3852 -0.6632  0.5260
 9542TIP3   OH250040   5.382   4.332   4.788  0.0625 -0.2483 -0.2446
 9542TIP3    H150041   5.371   4.414   4.836  2.2081 -0.2785  0.3411
 9542TIP3    H250042   5.432   4.276   4.846 -1.3914 -2.0208 -0.6332
 9543TIP3   OH250043   5.516   6.153  16.820  0.2098 -0.1324 -0.5465
 9543TIP3    H150044   5.443   6.098  16.849 -0.3035  0.9010  0.1639
 9543TIP3    H250045   5.503   6.235  16.867  1.4540  0.2927 -0.9463
 9544TIP3   OH250046   5.450   5.043  11.229 -0.0974 -0.1010 -0.4660
 9544TIP3    H150047   5.474   5.046  11.136 -0.6699 -1.5751 -0.6731
 9544TIP3    H250048   5.355   5.027  11.228 -0.5417  2.3001  0.3635
 9545TIP3   OH250049   5.114   1.426  13.499 -0.0097 -0.2343  0.2167
 9545TIP3    H150050   5.076   1.423  13.411  1.5509  1.2340 -0.5322
 9545TIP3    H250051   5.183   1.360  13.497 -0.2683 -0.5168  0.4972
 9546TIP3   OH250052   4.612   1.907   5.455  0.6903  0.3829 -0.5215
 9546TIP3    H150053   4.575   1.855   5.384  1.4580  2.4313 -2.4515
 9546TIP3    H250054   4.657   1.842   5.511 -0.7825 -1.3568 -1.3075
 9547TIP3   OH250055   5.701   1.559   1.448  0.8921  0.0892 -0.2399
 9547TIP3    H150056   5.720   1.495   1.517 -0.7239  1.6709  1.7495
 9547TIP3    H250057   5.621   1.526   1.407  1.6787 -0.6848 -1.1701
 9548TIP3   OH250058   4.306   3.410  16.940 -0.6978 -0.2989  0.0532
 9548TIP3    H150059   4.270   3.459  17.014 -1.5403  2.4992 -2.1216
 9548TIP3    H250060   4.233   3.400  16.879  0.4817 -0.7638 -1.3255
 9549TIP3   OH250061   4.404   3.903   5.674 -0.0635  0.5188  0.8574
 9549TIP3    H150062   4.384   3.919   5.766 -2.6551 -1.1100  0.6319
 9549TIP3    H250063   4.491   3.864   5.674 -0.9018 -1.4481  2.8202
 9550TIP3   OH250064   2.216   3.071  13.095  0.4007 -0.0550  0.2463
 9550TIP3    H150065   2.301   3.113  13.083 -0.0299  0.6858 -0.2568
 9550TIP3    H250066   2.234   2.978  13.092  1.3265  0.0907  1.0232
 9551TIP3   OH250067   3.322   5.506  12.081  0.4903 -0.0844  0.2628
 9551TIP3    H150068   3.353   5.445  12.148 -1.7774  2.0367  3.4261
 9551TIP3    H250069   3.230   5.483  12.068  1.0102 -0.7455 -2.5252
 9552TIP3   OH250070   6.081   6.714   4.970 -0.1693  0.9175  0.0042
 9552TIP3    H150071   6.110   6.764   4.893  2.2794 -2.4183 -1.3333
 9552TIP3    H250072   6.158   6.709   5.026 -0.7495 -0.1860  0.7198
 9553TIP3   OH250073   1.811   5.938   2.495 -0.0311  0.2981  0.5205
 9553TIP3    H150074   1.798   6.009   2.432  0.9392  0.0446  0.0266
 9553TIP3    H250075   1.738   5.878   2.480 -0.4388  0.8150  0.4337
 9554TIP3   OH250076   0.165   2.966  13.050 -0.0450  0.0158 -0.1203
 9554TIP3    H150077   0.251   2.932  13.024 -0.8966 -1.6366 -0.8866
 9554TIP3    H250078   0.112   2.961  12.970 -0.7674  1.3274  0.2624
 9555TIP3   OH250079   1.277   4.779   4.440  0.5827  0.2725 -0.2419
 9555TIP3    H150080   1.206   4.760   4.378  0.0377  0.6278  0.2690
 9555TIP3    H250081   1.343   4.712   4.422 -0.5563 -1.0231  0.3394
 9556TIP3   OH250082   1.028   0.591   4.661 -0.1300 -0.2499  0.1048
 9556TIP3    H150083   1.078   0.649   4.602 -2.0057  0.5220 -0.7736
 9556TIP3    H250084   0.964   0.549   4.604 -2.5875  1.1822  1.7140
 9557TIP3   OH250085   3.728   4.581   5.184 -0.1137  0.7767 -0.2577
 9557TIP3    H150086   3.771   4.557   5.102 -0.1653 -0.0614 -0.0467
 9557TIP3    H250087   3.757   4.514   5.246  0.4829  1.7967  0.5882
 9558TIP3   OH250088   3.422   0.188  14.750  0.4654 -0.2762  0.3618
 9558TIP3    H150089   3.365   0.204  14.675 -0.9647 -1.5673  1.1236
 9558TIP3    H250090   3.506   0.162  14.712 -0.3680 -1.3288 -0.8121
 9559TIP3   OH250091   0.946   2.538   0.419  0.0055  0.3293  0.5724
 9559TIP3    H150092   0.864   2.577   0.391  0.1166 -1.4461 -2.4623
 9559TIP3    H250093   1.014   2.595   0.382  0.1460 -0.7048 -0.7826
 9560TIP3   OH250094   3.287   5.680   0.848 -0.0148 -0.5084 -0.7993
 9560TIP3    H150095   3.248   5.767   0.843  0.9358  0.0590  0.9586
 9560TIP3    H250096   3.364   5.685   0.791  0.2197 -0.0909 -0.4468
 9561TIP3   OH250097   3.505   0.630   3.867 -0.1285  0.2142 -0.3357
 9561TIP3    H150098   3.580   0.580   3.835  0.2586  0.8901 -0.4892
 9561TIP3    H250099   3.543   0.708   3.906 -0.6142 -0.4081  1.4327
 9562TIP3   OH250100   3.326   5.576  13.917  0.1612 -0.3535  0.5658
 9562TIP3    H150101   3.370   5.652  13.880 -2.4902  1.4239  0.9211
 9562TIP3    H250102   3.316   5.516  13.843 -1.3649  1.4089 -0.7080
 9563TIP3   OH250103   2.178   5.475  16.652 -0.5719 -0.2649 -0.0083
 9563TIP3    H150104   2.082   5.472  16.657 -0.5626 -1.3335 -0.3004
 9563TIP3    H250105   2.200   5.567  16.666 -1.6578  0.0348 -0.2221
 9564TIP3   OH250106   1.486   5.494  13.798  0.0971 -0.2697 -0.1945
 9564TIP3    H150107   1.502   5.528  13.710  0.6734  1.4599  0.5520
 9564TIP3    H250108   1.392   5.477  13.801 -0.0972  0.6681 -0.8100
 9565TIP3   OH250109   5.345   5.222  12.621 -0.0225 -0.4872  0.1251
 9565TIP3    H150110   5.371   5.236  12.712  0.3997  0.1896 -0.1002
 9565TIP3    H250111   5.411   5.162  12.586  1.3434  1.3364 -0.4842
 9566TIP3   OH250112   5.757   2.542  12.052  0.4123  0.5426 -0.4002
 9566TIP3    H150113   5.851   2.532  12.043  0.4377 -0.0427  0.5447
 9566TIP3    H250114   5.720   2.469  12.003  0.4292  1.1331 -1.3103
 9567TIP3   OH250115   6.484   5.873  14.883  0.1218  0.8616  0.1235
 9567TIP3    H150116   6.442   5.824  14.812  0.6913  0.5213  0.0222
 9567TIP3    H250117   6.423   5.864  14.956  0.8572 -1.1697  0.5294
 9568TIP3   OH250118   5.264   0.082  12.156  0.4162 -0.3801  0.5558
 9568TIP3    H150119   5.353   0.117  12.160 -0.2525  1.3838  0.5961
 9568TIP3    H250120   5.263   0.009  12.217  0.9780  1.5669  2.9307
 9569TIP3   OH250121   0.179   6.420  13.979  0.9993 -0.0442  0.1978
 9569TIP3    H150122   0.262   6.395  13.938  1.1176  1.2003 -0.3570
 9569TIP3    H250123   0.121   6.346  13.963  1.2326  0.1451 -1.7228
 9570TIP3   OH250124   1.730   4.150  13.026  0.0803 -0.4452  0.0843
 9570TIP3    H150125   1.756   4.222  13.083  0.8777 -0.5170 -0.1796
 9570TIP3    H250126   1.805   4.137  12.968  0.9826 -3.0945  1.7235
 9571TIP3   OH250127   1.342   5.393  16.580  0.0309 -0.0407  0.0420
 9571TIP3    H150128   1.414   5.331  16.587  0.5657  0.5156 -0.4760
 9571TIP3    H250129   1.334   5.411  16.486 -1.7770 -1.2636 -0.0725
 9572TIP3   OH250130   2.800   6.632  13.870  0.0362  0.5597  0.0365
 9572TIP3    H150131   2.756   6.652  13.953  1.4694  2.4330  0.4125
 9572TIP3    H250132   2.771   6.701  13.811  2.2864  1.7579  0.2624
 9573TIP3   OH250133   2.511   5.970  17.177 -0.4547  0.2991 -0.3072
 9573TIP3    H150134   2.531   6.058  17.209  0.0855  0.2928 -0.6146
 9573TIP3    H250135   2.579   5.914  17.217 -0.2909  0.1572 -0.7794
 9574TIP3   OH250136   3.267   4.501   3.089 -0.2445 -0.5468  0.1319
 9574TIP3    H150137   3.190   4.470   3.137 -0.0596 -0.6390  0.3739
 9574TIP3    H250138   3.323   4.423   3.083 -0.5735 -0.7170 -0.8498
 9575TIP3   OH250139   3.662   4.837  14.829 -0.4020  0.4019 -0.3502
 9575TIP3    H150140   3.584   4.888  14.852 -2.7018 -2.7637 -0.7484
 9575TIP3    H250141   3.730   4.869  14.888 -2.0229  3.1715  0.0895
 9576TIP3   OH250142   0.638   3.175  16.187  0.6752 -0.0399 -0.3374
 9576TIP3    H150143   0.655   3.145  16.098  1.4834 -0.1525 -0.1462
 9576TIP3    H250144   0.651   3.098  16.242 -0.2292 -0.0693 -0.1637
 9577TIP3   OH250145   1.828   2.000  10.439 -0.0700 -0.7807 -0.0830
 9577TIP3    H150146   1.832   1.933  10.371 -0.7748 -0.0990 -0.8133
 9577TIP3    H250147   1.783   2.074  10.397  2.3907  0.8913  0.0979
 9578TIP3   OH250148   6.673   4.765  13.445 -0.0048 -0.3680 -0.4104
 9578TIP3    H150149   6.645   4.767  13.537  1.7826  1.0102  0.1344
 9578TIP3    H250150   6.673   4.672  13.422  1.1235 -0.8765  1.5061
 9579TIP3   OH250151   2.588   6.610  11.546  0.1649 -0.2555  0.1123
 9579TIP3    H150152   2.517   6.575  11.601  0.5234 -1.2531 -0.0417
 9579TIP3    H250153   2.660   6.624  11.607  0.4185 -0.9471 -0.0195
 9580TIP3   OH250154   4.728   1.985  15.574 -0.0944 -0.4565 -0.6981
 9580TIP3    H150155   4.674   1.988  15.495 -2.7523  0.0273  1.0602
 9580TIP3    H250156   4.734   2.077  15.602  2.1824 -0.4287 -1.1866
 9581TIP3   OH250157   0.171   6.587  13.582 -0.9537 -0.3448 -0.6191
 9581TIP3    H150158   0.165   6.496  13.552  0.2556 -0.4714 -0.5184
 9581TIP3    H250159   0.264   6.600  13.598 -1.2283  0.6359  0.2433
 9582TIP3   OH250160   3.572   0.431   3.530 -0.2182 -0.1425  0.6004
 9582TIP3    H150161   3.659   0.417   3.566 -0.9985 -0.9817  2.2044
 9582TIP3    H250162   3.581   0.413   3.436  1.1257 -1.0790  0.9073
 9583TIP3   OH250163   1.910   3.681  14.398  0.3782 -0.0341 -0.1917
 9583TIP3    H150164   1.827   3.689  14.445 -0.3372 -0.6744 -1.3420
 9583TIP3    H250165   1.968   3.636  14.461 -0.3597 -0.2501  0.3424
 9584TIP3   OH250166   0.408   2.855   3.793  0.0178  0.0742  0.2890
 9584TIP3    H150167   0.348   2.863   3.868 -0.9069  0.4060 -0.4779
 9584TIP3    H250168   0.390   2.768   3.757  2.1881 -1.1080  1.8890
 9585TIP3   OH250169   1.171   1.678  12.955 -0.1548  0.0731  0.1256
 9585TIP3    H150170   1.113   1.706  13.026 -2.3270 -0.6385 -1.3143
 9585TIP3    H250171   1.122   1.610  12.909  1.0492  0.7768 -2.2938
 9586TIP3   OH250172   0.030   0.082  14.657 -0.1209  0.1716  0.3817
 9586TIP3    H150173   0.035   0.098  14.562  3.7082  1.1096  0.6824
 9586TIP3    H250174  -0.016   0.159  14.691 -1.1103  0.0457 -0.6287
 9587TIP3   OH250175   4.020   1.691  13.372 -0.6615 -0.1634 -0.3771
 9587TIP3    H150176   4.035   1.627  13.441  2.0784  2.1695  1.3053
 9587TIP3    H250177   3.945   1.742  13.401  0.2827  0.6001  0.7548
 9588TIP3   OH250178   6.185   5.518  15.267 -0.4278 -0.1925 -0.2851
 9588TIP3    H150179   6.280   5.511  15.267 -0.3760  0.4602 -0.0217
 9588TIP3    H250180   6.155   5.436  15.229  0.2650 -0.0839 -1.0818
 9589TIP3   OH250181   6.093   4.481  10.493 -0.0490  0.0583  0.7004
 9589TIP3    H150182   6.030   4.491  10.421  0.1424 -1.3916  0.3202
 9589TIP3    H250183   6.078   4.557  10.549 -0.7218  0.8097 -0.4755
 9590TIP3   OH250184   6.332   0.010   4.192 -0.6828 -0.0658  0.7563
 9590TIP3    H150185   6.238  -0.005   4.179 -0.8027 -1.2126  2.7011
 9590TIP3    H250186   6.340   0.104   4.205 -1.2821  0.3202 -1.4670
 9591TIP3   OH250187   2.049   1.243   1.621 -0.2327  0.3336 -0.5827
 9591TIP3    H150188   2.008   1.327   1.602 -1.3088 -0.0994 -0.2394
 9591TIP3    H250189   2.133   1.246   1.576 -1.3355  0.5987 -2.6683
 9592TIP3   OH250190   4.754   4.221  12.499 -0.1681  0.7197 -0.1167
 9592TIP3    H150191   4.720   4.287  12.438 -1.0159 -1.0952 -1.6718
 9592TIP3    H250192   4.841   4.200  12.465 -1.3453 -1.6114 -1.8486
 9593TIP3   OH250193   3.337   0.395   6.634 -0.3952 -0.4217  0.4951
 9593TIP3    H150194   3.425   0.429   6.623 -0.2919 -0.7344  0.3420
 9593TIP3    H250195   3.349   0.300   6.639 -0.9559 -0.6201 -1.7573
 9594TIP3   OH250196   4.990   1.153   1.993  0.0237 -0.1666 -0.2003
 9594TIP3    H150197   5.034   1.235   1.969 -1.3228  0.3254 -1.0537
 9594TIP3    H250198   4.910   1.181   2.038 -0.5033 -1.0029 -0.6079
 9595TIP3   OH250199   4.883   5.833   3.484  0.0746  0.4287 -0.1519
 9595TIP3    H150200   4.899   5.921   3.518 -0.3524  0.8709 -1.0835
 9595TIP3    H250201   4.794   5.836   3.449 -0.0337 -0.4483  0.0364
 9596TIP3   OH250202   1.479   2.792  14.844 -0.4508  0.5107  0.0940
 9596TIP3    H150203   1.557   2.841  14.869 -0.1718 -0.3807  0.9998
 9596TIP3    H250204   1.418   2.859  14.812  0.5342  1.2516 -0.2514
 9597TIP3   OH250205   6.195   0.801  12.481  0.4964  0.6786  0.1917
 9597TIP3    H150206   6.228   0.871  12.426 -0.3794  1.2052  0.3212
 9597TIP3    H250207   6.208   0.833  12.571  0.5589  0.4642  0.2593
 9598TIP3   OH250208   4.143   5.932   1.317 -0.3455  0.2034 -0.9708
 9598TIP3    H150209   4.094   6.009   1.344 -0.6998 -1.0889  2.2486
 9598TIP3    H250210   4.084   5.885   1.259 -2.2775 -0.4192  1.4433
 9599TIP3   OH250211   5.632   5.593  15.272 -0.1713  0.3232  0.3639
 9599TIP3    H150212   5.628   5.681  15.235 -1.6980  0.9912  2.0404
 9599TIP3    H250213   5.633   5.608  15.367 -0.6614 -1.4700  0.6613
 9600TIP3   OH250214   5.213   0.566  15.119  0.2741 -0.3697 -0.5613
 9600TIP3    H150215   5.128   0.585  15.078  1.1124  2.4986 -1.0910
 9600TIP3    H250216   5.193   0.561  15.213 -0.5984 -0.5186 -0.7447
 9601TIP3   OH250217   0.821   3.868  13.644 -0.4077  0.3069 -0.7202
 9601TIP3    H150218   0.750   3.834  13.589 -1.7045  0.0296  1.1109
 9601TIP3    H250219   0.801   3.961  13.655 -0.4023  0.2562 -0.3006
 9602TIP3   OH250220   3.523   1.765   1.959  0.2241 -0.1792 -0.3147
 9602TIP3    H150221   3.524   1.682   2.006  1.2779  0.5687  1.0066
 9602TIP3    H250222   3.460   1.819   2.006  0.1548  0.0502 -0.6686
 9603TIP3   OH250223   1.751   3.859  11.162 -0.2709  0.2045  0.0521
 9603TIP3    H150224   1.844   3.877  11.148 -0.4144 -0.0688 -1.3577
 9603TIP3    H250225   1.710   3.878  11.077 -1.5390  0.6102  0.7488
 9604TIP3   OH250226   0.932   2.956   3.000 -0.9077 -0.7487  0.4006
 9604TIP3    H150227   0.859   3.019   2.999 -0.4831 -0.2540  0.1990
 9604TIP3    H250228   1.005   3.004   2.961 -0.0307 -0.7078  2.0747
 9605TIP3   OH250229   4.365   5.016  15.002 -0.0537 -0.1381 -0.0437
 9605TIP3    H150230   4.336   5.038  15.090  1.2498  0.3859  0.2492
 9605TIP3    H250231   4.460   5.020  15.005  0.0634 -1.6797 -1.0656
 9606TIP3   OH250232   1.624   6.169  14.016 -0.7987  0.0467 -0.1215
 9606TIP3    H150233   1.696   6.147  14.075 -0.6724  1.4656  0.2738
 9606TIP3    H250234   1.574   6.088  14.008  1.0586 -1.0745 -0.7148
 9607TIP3   OH250235   1.528   5.574  15.781  0.2088  0.6462 -0.0180
 9607TIP3    H150236   1.495   5.662  15.797 -1.3724  0.0891 -0.0860
 9607TIP3    H250237   1.509   5.527  15.863 -1.7287 -0.4151 -1.0418
 9608TIP3   OH250238   6.312   5.964   1.529  0.3598  0.5066  0.4080
 9608TIP3    H150239   6.292   5.882   1.575 -0.0503 -1.3373 -2.9292
 9608TIP3    H250240   6.226   5.997   1.502  0.7034  0.8439 -0.2640
 9609TIP3   OH250241   4.861   3.117   4.286 -0.0555  0.2332  0.0986
 9609TIP3    H150242   4.811   3.080   4.213  0.0764  2.3484 -1.1200
 9609TIP3    H250243   4.943   3.066   4.287  1.3108  2.1636 -3.3039
 9610TIP3   OH250244   3.497   4.005   5.340 -0.2554 -0.5776  0.1173
 9610TIP3    H150245   3.457   3.943   5.401 -1.4328 -0.4512 -0.5237
 9610TIP3    H250246   3.434   4.013   5.268  0.0901  1.0176 -0.0243
 9611TIP3   OH250247   1.012   4.592   3.612  0.3674 -0.4574 -0.7440
 9611TIP3    H150248   1.005   4.579   3.517  0.8399  1.7328 -1.1096
 9611TIP3    H250249   1.072   4.666   3.622  0.9585 -1.1760  1.3112
 9612TIP3   OH250250   2.331   1.758   3.049 -0.3673  0.4757  0.3379
 9612TIP3    H150251   2.260   1.785   2.992 -0.5689  0.0438  0.3769
 9612TIP3    H250252   2.403   1.737   2.990  0.4920  3.0688  0.4123
 9613TIP3   OH250253   5.341   3.626  15.549 -0.2487 -0.1025  0.1475
 9613TIP3    H150254   5.417   3.634  15.607 -1.1005 -0.2491  1.2935
 9613TIP3    H250255   5.378   3.631  15.460  1.1500 -0.6761  0.6873
 9614TIP3   OH250256   0.973   2.699  16.299 -0.3855 -0.0937 -0.1877
 9614TIP3    H150257   1.027   2.706  16.379 -1.2769  1.4342  0.3165
 9614TIP3    H250258   0.892   2.658  16.329  0.3937 -2.1823 -0.9041
 9615TIP3   OH250259   6.604   1.925  15.402 -0.5223 -0.6327  0.5285
 9615TIP3    H150260   6.535   1.904  15.464 -0.8291 -2.5041 -0.3981
 9615TIP3    H250261   6.581   1.877  15.323 -0.5134  2.2929 -1.3009
 9616TIP3   OH250262   3.913   1.484  16.609  0.3772  0.5991 -0.2922
 9616TIP3    H150263   3.964   1.403  16.606 -0.1351  0.2468  0.1509
 9616TIP3    H250264   3.855   1.478  16.532 -0.5235 -0.0571  0.4180
 9617TIP3   OH250265   1.814   6.125   5.422 -0.0475  0.0209  0.1312
 9617TIP3    H150266   1.860   6.104   5.341 -0.3705 -0.1472 -0.0076
 9617TIP3    H250267   1.731   6.078   5.416 -0.1632  0.1781  0.4648
 9618TIP3   OH250268   5.138   1.507   0.482  0.0691 -0.5759  0.5232
 9618TIP3    H150269   5.196   1.432   0.469  1.2021  0.7603 -2.4069
 9618TIP3    H250270   5.193   1.573   0.524 -0.3771 -0.6483  1.2300
 9619TIP3   OH250271   2.715   3.737   4.258 -0.1890  0.2050  0.1780
 9619TIP3    H150272   2.728   3.739   4.163 -1.6974 -2.3516 -0.1253
 9619TIP3    H250273   2.647   3.802   4.274 -2.6706 -2.0343 -1.0063
 9620TIP3   OH250274   4.325   0.040  13.755  0.1820  0.2385  0.6164
 9620TIP3    H150275   4.324  -0.048  13.792 -0.2155  0.0375  0.1469
 9620TIP3    H250276   4.409   0.047  13.710 -0.8060 -0.8441 -1.5109
 9621TIP3   OH250277   5.713   5.445  11.934 -0.3696  0.8937 -0.7385
 9621TIP3    H150278   5.787   5.433  11.993  0.7120 -2.6601 -2.6880
 9621TIP3    H250279   5.716   5.538  11.910  1.0884  1.6443  2.2241
 9622TIP3   OH250280   4.347   5.209  14.342  0.0676  0.0711  0.2069
 9622TIP3    H150281   4.263   5.254  14.342 -0.3965 -0.7910 -0.9106
 9622TIP3    H250282   4.402   5.261  14.283 -0.5448 -0.9422 -1.2850
 9623TIP3   OH250283   5.844   5.248  12.441 -0.0843  0.2293  0.0675
 9623TIP3    H150284   5.790   5.172  12.463  1.7124 -0.6256  1.6185
 9623TIP3    H250285   5.780   5.314  12.414 -1.5609 -2.3550 -3.1216
 9624TIP3   OH250286   5.005   0.261   2.770  0.1104 -0.2339 -0.0226
 9624TIP3    H150287   4.975   0.247   2.860 -0.5829  1.8728  0.1062
 9624TIP3    H250288   4.938   0.221   2.715 -3.2268  4.5731  0.2490
 9625TIP3   OH250289   3.707   2.173  14.766  1.0832 -0.6320 -0.3521
 9625TIP3    H150290   3.666   2.137  14.686  0.1732 -1.8997  0.6602
 9625TIP3    H250291   3.759   2.100  14.800 -1.0779 -1.1732  1.9321
 9626TIP3   OH250292   2.992   0.715  15.889 -0.0628 -0.2174 -0.2438
 9626TIP3    H150293   2.996   0.622  15.865  0.7650  0.1124 -1.4655
 9626TIP3    H250294   2.927   0.720  15.959 -0.1149 -1.7166 -0.1761
 9627TIP3   OH250295   3.887   6.083  12.020 -0.4408 -0.6069 -0.4542
 9627TIP3    H150296   3.819   6.149  12.008  0.3116 -0.0479 -1.8868
 9627TIP3    H250297   3.935   6.084  11.937  0.7742 -1.5884  0.2230
 9628TIP3   OH250298   2.389   2.682  16.022  0.0690  0.1833  0.5056
 9628TIP3    H150299   2.419   2.606  16.072  0.4961  0.9160  1.3797
 9628TIP3    H250300   2.447   2.685  15.946  1.7863  1.1644  1.8155
 9629TIP3   OH250301   3.173   1.355   0.816 -0.2943  0.4312  0.2162
 9629TIP3    H150302   3.185   1.263   0.840  0.2060  1.1225  2.7117
 9629TIP3    H250303   3.149   1.352   0.723  0.3911 -2.1684  0.0737
 9630TIP3   OH250304   6.534   2.674   4.647 -0.7914  0.5085  0.1280
 9630TIP3    H150305   6.562   2.755   4.690 -2.0748  0.6204  0.7598
 9630TIP3    H250306   6.493   2.703   4.566  0.5180  0.3616 -0.6148
 9631TIP3   OH250307   3.339   3.849   4.101 -0.1955  0.0324 -0.2654
 9631TIP3    H150308   3.249   3.875   4.082 -1.0085 -1.9049  0.8063
 9631TIP3    H250309   3.335   3.754   4.109  1.5179  0.1044  1.9180
 9632TIP3   OH250310   0.813   3.549   4.343 -0.9466 -0.2352 -0.2465
 9632TIP3    H150311   0.773   3.578   4.425  0.6976  0.0567  0.4829
 9632TIP3    H250312   0.854   3.628   4.308 -0.7682 -0.5910 -0.8318
 9633TIP3   OH250313   3.377   6.536   1.396  0.3366  0.6129 -0.0750
 9633TIP3    H150314   3.461   6.552   1.354  1.3190  1.3047  2.0467
 9633TIP3    H250315   3.387   6.450   1.437  0.0369  0.7208  0.2314
 9634TIP3   OH250316   4.624   2.758  12.174 -0.0426  0.0187 -0.2237
 9634TIP3    H150317   4.666   2.789  12.254 -0.9724  1.3681 -0.2520
 9634TIP3    H250318   4.599   2.837  12.127 -1.2299 -0.7574 -0.9350
 9635TIP3   OH250319   0.997   1.441  13.732 -0.0320  0.3664  0.2126
 9635TIP3    H150320   1.006   1.485  13.647  1.2835  1.6734  1.0211
 9635TIP3    H250321   0.954   1.505  13.788 -0.9518 -0.5224  0.5470
 9636TIP3   OH250322   2.930   0.584  14.664 -0.0288 -0.3053  0.1591
 9636TIP3    H150323   2.971   0.634  14.734  1.1575  1.3077 -1.6529
 9636TIP3    H250324   3.000   0.530  14.628 -0.0228  0.7006 -1.3834
 9637TIP3   OH250325   4.062   6.360   1.867  0.1286  0.0553  0.3624
 9637TIP3    H150326   4.063   6.267   1.891  2.0291  0.1143  0.5692
 9637TIP3    H250327   4.122   6.402   1.929  0.9142  1.0704 -1.0382
 9638TIP3   OH250328   5.536   2.553   2.495 -0.1932  0.2498 -0.1875
 9638TIP3    H150329   5.568   2.642   2.513  0.6981 -0.4414  1.8152
 9638TIP3    H250330   5.546   2.507   2.579 -4.6093 -0.5687 -0.0162
 9639TIP3   OH250331   3.338   0.825  15.585  0.1486  0.3116 -0.2644
 9639TIP3    H150332   3.263   0.862  15.632 -0.2181  0.0025 -0.5951
 9639TIP3    H250333   3.348   0.881  15.508 -0.6164 -0.4514 -0.9388
 9640TIP3   OH250334   0.427   2.571   0.670  0.2898 -0.3886  0.4185
 9640TIP3    H150335   0.356   2.537   0.725 -0.1774  0.6389  0.4658
 9640TIP3    H250336   0.409   2.665   0.663  0.3981 -0.4820 -1.4176
 9641TIP3   OH250337   0.082   0.607   1.554 -0.0163 -0.2649 -0.0233
 9641TIP3    H150338   0.156   0.581   1.499 -1.5360 -0.4525 -2.0299
 9641TIP3    H250339   0.027   0.530   1.559 -1.5126  0.7207 -0.9653
 9642TIP3   OH250340   5.579   3.087   5.095 -0.0948 -0.1286  0.0176
 9642TIP3    H150341   5.510   3.124   5.040 -0.0154 -1.2899 -0.8908
 9642TIP3    H250342   5.544   3.093   5.184 -1.2371 -0.3980 -0.3970
 9643TIP3   OH250343   5.064   6.144  13.967 -0.0505 -0.0632 -0.6566
 9643TIP3    H150344   5.127   6.200  14.013 -0.1846  0.1097 -0.6824
 9643TIP3    H250345   5.119   6.083  13.918  0.0978 -1.8361  1.6433
 9644TIP3   OH250346   4.979   4.452  12.423  0.1330  0.3100  0.1685
 9644TIP3    H150347   4.938   4.395  12.358  0.0265  1.1387 -0.5067
 9644TIP3    H250348   5.045   4.502  12.373 -0.2074  1.2168  0.6157
 9645TIP3   OH250349   0.730   5.670   1.754  0.2419  0.1151 -0.2362
 9645TIP3    H150350   0.742   5.619   1.675  1.3078 -0.6690  0.4257
 9645TIP3    H250351   0.737   5.607   1.826  0.8213  1.0531  0.5550
 9646TIP3   OH250352   3.387   5.650   5.278 -0.3095  0.2301  0.3704
 9646TIP3    H150353   3.382   5.696   5.194 -2.6621 -1.0434 -0.2389
 9646TIP3    H250354   3.331   5.573   5.267  1.7081 -1.5897  2.1240
 9647TIP3   OH250355   1.523   1.987  14.942 -0.3001  0.0594  0.2594
 9647TIP3    H150356   1.560   1.985  14.854  0.4818  0.4983  0.5796
 9647TIP3    H250357   1.501   2.079  14.957  0.4099  0.1287  0.8773
 9648TIP3   OH250358   3.565   3.281   0.582 -0.1391 -0.6207  0.0668
 9648TIP3    H150359   3.632   3.278   0.650 -0.1572  0.2161  0.1340
 9648TIP3    H250360   3.613   3.263   0.500  0.0638 -0.6069  0.1819
 9649TIP3   OH250361   0.715   4.561  14.842  0.0007  0.1113  0.4172
 9649TIP3    H150362   0.668   4.641  14.816 -0.8164 -1.0689 -1.8652
 9649TIP3    H250363   0.673   4.535  14.924 -0.9384  1.0307  0.2459
 9650TIP3   OH250364   4.216   3.699  11.876  0.8095  0.3516 -0.1550
 9650TIP3    H150365   4.161   3.700  11.798 -0.1270  0.4429  0.5077
 9650TIP3    H250366   4.233   3.606  11.892  1.8880  0.3759 -1.0793
 9651TIP3   OH250367   5.427   5.223   0.646  0.1495  0.2958 -0.0113
 9651TIP3    H150368   5.411   5.180   0.730 -0.4119 -0.3472 -0.4397
 9651TIP3    H250369   5.516   5.197   0.622 -0.1825 -0.6167 -0.2612
 9652TIP3   OH250370   2.238   6.597   1.996  0.0137 -0.4339  0.2636
 9652TIP3    H150371   2.244   6.628   2.086  1.1854 -1.0457  0.4104
 9652TIP3    H250372   2.297   6.521   1.993 -0.2420 -0.5972 -0.9344
 9653TIP3   OH250373   5.856   5.918   0.364  0.2427 -0.4949  0.3682
 9653TIP3    H150374   5.781   5.978   0.362  1.2064  0.7727  1.3522
 9653TIP3    H250375   5.911   5.946   0.291  0.1798 -0.8771  0.1732
 9654TIP3   OH250376   1.329   0.260  13.623 -0.0329  0.2802  0.6423
 9654TIP3    H150377   1.419   0.277  13.595  0.0065  1.5800  1.4852
 9654TIP3    H250378   1.322   0.165  13.623  1.5529  0.1368  1.1835
 9655TIP3   OH250379   6.465   5.875  12.977 -0.7740  0.3246 -0.1393
 9655TIP3    H150380   6.454   5.914  12.891  1.2906 -0.2635 -0.6949
 9655TIP3    H250381   6.417   5.793  12.973 -0.2459  0.0527 -0.9055
 9656TIP3   OH250382   0.390   0.978  14.361 -0.0031 -0.1881  0.5715
 9656TIP3    H150383   0.384   0.883  14.374 -1.4144 -0.2397 -0.3164
 9656TIP3    H250384   0.301   1.010  14.378 -0.0180  0.7138 -1.0907
 9657TIP3   OH250385   6.363   1.576  13.581 -0.6222  0.1691  0.3320
 9657TIP3    H150386   6.295   1.542  13.523 -0.1160 -1.5538  0.7079
 9657TIP3    H250387   6.385   1.502  13.638  2.1932  0.4157 -0.3632
 9658TIP3   OH250388   1.044   3.394   3.565 -0.0663  0.3077 -0.0756
 9658TIP3    H150389   1.047   3.347   3.649  0.5552  2.2534  1.0327
 9658TIP3    H250390   1.136   3.398   3.537  0.2121  2.8009  1.0092
 9659TIP3   OH250391   5.588   4.708  10.337  0.3978 -0.3305  0.5972
 9659TIP3    H150392   5.673   4.721  10.296 -0.2578  0.3496 -0.5662
 9659TIP3    H250393   5.535   4.783  10.308 -0.6528 -0.8408  1.1553
 9660TIP3   OH250394   6.240   1.320  14.214  0.4250 -0.1158  0.3897
 9660TIP3    H150395   6.211   1.390  14.155  0.5895  1.0685  1.6782
 9660TIP3    H250396   6.304   1.271  14.163 -1.5364 -0.8659 -1.3902
 9661TIP3   OH250397   5.720   0.916   4.308  0.1976  0.2394  0.4409
 9661TIP3    H150398   5.633   0.889   4.280  1.1587 -1.1907 -1.2875
 9661TIP3    H250399   5.715   1.011   4.314 -0.7544  0.3846 -2.1936
 9662TIP3   OH250400   4.008   1.053   2.152 -0.0308  0.2707  0.8062
 9662TIP3    H150401   3.960   0.970   2.154 -0.4750  0.5205  0.4983
 9662TIP3    H250402   4.099   1.027   2.136 -0.5807  0.0113 -2.0475
 9663TIP3   OH250403   4.706   1.205   4.697 -0.0254  0.6582 -0.2819
 9663TIP3    H150404   4.755   1.190   4.778 -0.8367  1.7298  0.4222
 9663TIP3    H250405   4.643   1.134   4.694  1.2025 -0.4176 -0.9127
 9664TIP3   OH250406   5.923   3.000   2.193  0.0860 -0.2658  0.1009
 9664TIP3    H150407   5.855   3.048   2.240  1.7279  1.8823  0.3551
 9664TIP3    H250408   5.984   2.971   2.261  0.1037 -1.0850 -0.2562
 9665TIP3   OH250409   5.511   3.986  11.799 -0.3395 -0.1482  0.1745
 9665TIP3    H150410   5.416   3.992  11.803 -0.3300 -0.0343  0.2185
 9665TIP3    H250411   5.528   3.895  11.775 -0.5006  0.1911 -1.2699
 9666TIP3   OH250412   0.845   4.238   6.788 -0.0884  0.2685 -0.0685
 9666TIP3    H150413   0.815   4.275   6.704 -2.4803  0.8457  0.9982
 9666TIP3    H250414   0.797   4.156   6.797 -0.6861  0.7453  1.2382
 9667TIP3   OH250415   4.629   6.519   2.325 -0.1180 -0.5197 -0.8776
 9667TIP3    H150416   4.595   6.446   2.376  1.9336  0.9345  2.7389
 9667TIP3    H250417   4.551   6.568   2.299 -1.5166 -3.8500 -3.3403
 9668TIP3   OH250418   6.434   3.240   2.238  0.0262 -0.3030 -0.3003
 9668TIP3    H150419   6.519   3.275   2.263  0.2679 -1.0922  0.0187
 9668TIP3    H250420   6.400   3.302   2.174  1.0994 -0.2839 -0.8619
 9669TIP3   OH250421   6.621   0.134   4.988 -0.1922  0.3497  0.1235
 9669TIP3    H150422   6.528   0.144   4.968 -0.1972  3.4361  1.4328
 9669TIP3    H250423   6.623   0.095   5.075 -0.2494  0.0906  0.0103
 9670TIP3   OH250424   1.731   0.349  14.723 -0.6461 -0.0118 -0.1723
 9670TIP3    H150425   1.760   0.292  14.794  2.1277  1.9513  0.3609
 9670TIP3    H250426   1.763   0.306  14.643  0.6988  0.3038  0.1712
 9671TIP3   OH250427   4.210   1.098  16.390 -0.0380 -0.2383 -0.2013
 9671TIP3    H150428   4.295   1.071  16.425  1.5244  2.0278 -2.1156
 9671TIP3    H250429   4.206   1.058  16.303 -0.6822  0.0934 -0.3270
 9672TIP3   OH250430   1.328   4.451   3.660 -0.0283  0.0218 -0.4211
 9672TIP3    H150431   1.322   4.513   3.587  2.8527 -0.5789 -1.2098
 9672TIP3    H250432   1.311   4.365   3.620 -0.9995 -0.0477  0.1169
 9673TIP3   OH250433   2.652   2.213   0.864  0.1513 -0.3611 -0.0461
 9673TIP3    H150434   2.610   2.287   0.821  0.0409 -0.0792  0.5416
 9673TIP3    H250435   2.745   2.221   0.841 -0.1659 -1.2603 -1.7467
 9674TIP3   OH250436   3.607   3.542  15.733 -0.2688 -0.4767 -0.0504
 9674TIP3    H150437   3.676   3.532  15.799  1.0429  0.0342 -1.3155
 9674TIP3    H250438   3.622   3.629  15.696 -1.4655 -0.4560 -0.5000
 9675TIP3   OH250439   6.414   6.081  12.370 -0.0776  0.2024  0.1129
 9675TIP3    H150440   6.401   6.112  12.460 -0.3574  0.5897 -0.0567
 9675TIP3    H250441   6.327   6.054  12.341  0.3184 -1.5408  0.5451
 9676TIP3   OH250442   0.517   4.784  14.932  0.2047 -0.2664  0.3603
 9676TIP3    H150443   0.464   4.722  14.882 -2.1460  0.7881  1.4432
 9676TIP3    H250444   0.506   4.867  14.886  1.1101 -0.0927  0.4668
 9677TIP3   OH250445   5.364   4.430   5.589 -0.0824  0.2264  0.4275
 9677TIP3    H150446   5.319   4.473   5.662 -0.3900 -0.7494  0.8312
 9677TIP3    H250447   5.391   4.501   5.531 -1.7948  0.8432  0.3797
 9678TIP3   OH250448   3.474   5.182  13.940  0.0438  0.3067  0.2137
 9678TIP3    H150449   3.422   5.158  14.017 -0.9451  1.7525  0.0270
 9678TIP3    H250450   3.500   5.273  13.957  0.5137  0.3558 -0.7791
 9679TIP3   OH250451   2.910   5.185   2.904  0.1543 -0.2963  0.4141
 9679TIP3    H150452   2.911   5.159   2.812 -0.9365 -1.0705  0.6123
 9679TIP3    H250453   2.979   5.251   2.911  0.6686 -0.6922 -0.8192
 9680TIP3   OH250454   3.287   3.048  13.703 -0.1744  0.0256 -0.5362
 9680TIP3    H150455   3.381   3.047  13.720 -0.4774 -1.9406  1.2788
 9680TIP3    H250456   3.272   2.970  13.649 -1.0726 -1.0516  1.2269
 9681TIP3   OH250457   1.772   4.310  13.276  0.3449 -0.5046 -0.0539
 9681TIP3    H150458   1.846   4.369  13.263  0.3623 -0.6360 -0.5620
 9681TIP3    H250459   1.696   4.368  13.281  0.1250 -0.5412 -2.4368
 9682TIP3   OH250460   0.959   1.356   3.800 -0.3797  0.4264 -0.3387
 9682TIP3    H150461   1.018   1.408   3.745 -0.2605 -0.2243 -0.8341
 9682TIP3    H250462   0.882   1.411   3.810  0.3117  1.2868  0.3205
 9683TIP3   OH250463   3.767   3.409   5.188 -0.5503  0.2555 -0.1949
 9683TIP3    H150464   3.708   3.333   5.188 -0.9852  0.5562  1.9596
 9683TIP3    H250465   3.718   3.477   5.141 -1.2267 -0.0226  0.1004
 9684TIP3   OH250466   4.648   0.662  16.482  0.3655  0.5193 -0.4650
 9684TIP3    H150467   4.665   0.695  16.394  0.4329 -0.2213 -0.7355
 9684TIP3    H250468   4.729   0.679  16.531  0.1924  1.2733 -0.4439
 9685TIP3   OH250469   6.300   4.879  10.821 -0.0067  0.0842  0.1218
 9685TIP3    H150470   6.375   4.892  10.879  0.3967 -1.5431 -0.0069
 9685TIP3    H250471   6.252   4.805  10.860 -0.2283 -0.4289 -1.1132
 9686TIP3   OH250472   5.651   0.015  15.678 -0.4644  0.1539  0.0222
 9686TIP3    H150473   5.718  -0.052  15.665  1.3084  2.1995 -1.7817
 9686TIP3    H250474   5.680   0.064  15.755 -1.6061 -0.9348  1.1645
 9687TIP3   OH250475   4.277   1.605  12.731  0.3213 -0.7842  0.3426
 9687TIP3    H150476   4.244   1.666  12.797  1.0399 -0.0303  0.0113
 9687TIP3    H250477   4.220   1.619  12.655  0.2937 -0.7454  0.3697
 9688TIP3   OH250478   5.838   6.428  11.346 -0.2120  0.5537 -0.5044
 9688TIP3    H150479   5.845   6.457  11.436  0.6551  0.7748 -0.6364
 9688TIP3    H250480   5.805   6.338  11.352 -0.9308  0.8507 -0.0093
 9689TIP3   OH250481   4.231   0.591   4.365 -0.7713  0.4602  0.1084
 9689TIP3    H150482   4.159   0.538   4.399 -1.9115  1.0104 -1.4078
 9689TIP3    H250483   4.307   0.533   4.370 -1.1251  0.1645  2.5280
 9690TIP3   OH250484   4.864   6.432   4.876  0.8129 -0.3161 -0.3761
 9690TIP3    H150485   4.869   6.517   4.920  1.3456 -0.2262 -0.6025
 9690TIP3    H250486   4.950   6.422   4.834  0.9691 -1.2514  0.1617
 9691TIP3   OH250487   1.921   1.761  12.013  0.2077  0.0158  0.5759
 9691TIP3    H150488   1.889   1.702  11.945 -0.2185  0.3254  0.5064
 9691TIP3    H250489   2.007   1.727  12.036  0.7669  0.4648 -0.8081
 9692TIP3   OH250490   4.590   0.845   3.304  0.3853  0.4249  0.5806
 9692TIP3    H150491   4.526   0.917   3.303  1.0606  1.0396 -1.4050
 9692TIP3    H250492   4.537   0.766   3.300 -0.3372  0.8348  1.7013
 9693TIP3   OH250493   1.534   3.725  16.391  0.3822  0.4404  0.1724
 9693TIP3    H150494   1.600   3.749  16.326 -0.4291 -1.6429 -1.4929
 9693TIP3    H250495   1.475   3.800  16.393  1.6001  1.4221  0.0929
 9694TIP3   OH250496   4.468   2.664  13.483  0.4952 -0.3638  0.1135
 9694TIP3    H150497   4.554   2.653  13.442 -0.5518 -0.7941 -2.0103
 9694TIP3    H250498   4.468   2.755  13.513  1.5198 -0.2144 -0.2947
 9695TIP3   OH250499   5.249   5.378   4.204 -0.5979 -0.2896 -0.1101
 9695TIP3    H150500   5.232   5.424   4.122 -0.9575 -2.7399 -1.4709
 9695TIP3    H250501   5.342   5.357   4.200 -0.0776  1.5952  1.2252
 9696TIP3   OH250502   4.474   3.465   2.331 -0.2886 -0.0913 -0.1828
 9696TIP3    H150503   4.473   3.421   2.246 -2.2364  1.1189 -0.7976
 9696TIP3    H250504   4.494   3.556   2.310  1.9580 -0.3032  0.9290
 9697TIP3   OH250505   2.890   1.205   1.222 -0.4036 -0.3415 -0.2398
 9697TIP3    H150506   2.908   1.158   1.304  2.0736 -0.4309 -0.7893
 9697TIP3    H250507   2.796   1.193   1.208 -0.5806 -1.6438  1.7754
 9698TIP3   OH250508   6.560   1.628   4.115  0.1354 -0.0046  0.4577
 9698TIP3    H150509   6.550   1.533   4.105 -0.1615 -0.0563  1.2327
 9698TIP3    H250510   6.503   1.665   4.047  0.4533 -0.3777 -0.0182
 9699TIP3   OH250511   1.879   1.991  12.683  0.1035 -0.6947  0.1284
 9699TIP3    H150512   1.848   1.911  12.726 -1.4164 -1.4124 -2.2481
 9699TIP3    H250513   1.958   1.963  12.636 -0.1515 -0.6878 -0.3034
 9700TIP3   OH250514   1.121   0.484   0.837 -0.1258  0.1730  0.6863
 9700TIP3    H150515   1.214   0.491   0.815  0.0144  1.1560  1.5650
 9700TIP3    H250516   1.086   0.424   0.771  0.9192  0.6046 -0.2893
 9701TIP3   OH250517   1.507   5.021  14.665  0.7417  0.0569  0.3483
 9701TIP3    H150518   1.437   4.980  14.716 -0.3928 -1.3566 -2.2529
 9701TIP3    H250519   1.463   5.057  14.588  2.2057  3.4398  0.9796
 9702TIP3   OH250520   3.550   3.897   0.751 -0.1441 -0.2150  0.6715
 9702TIP3    H150521   3.630   3.849   0.727 -0.6184 -0.9365  0.5110
 9702TIP3    H250522   3.581   3.972   0.801  0.8300  1.0232 -1.7187
 9703TIP3   OH250523   6.031   2.535  12.049  0.0564 -0.2199  0.1574
 9703TIP3    H150524   6.059   2.613  12.098  2.9232 -0.8549 -0.3989
 9703TIP3    H250525   6.073   2.544  11.964 -2.7764 -0.4577 -1.3427
 9704TIP3   OH250526   1.306   0.003  12.058 -0.1120  0.5128 -0.2525
 9704TIP3    H150527   1.265  -0.073  12.018 -1.4861  0.3742  1.3390
 9704TIP3    H250528   1.361   0.041  11.989 -0.2456 -1.2913 -1.3726
 9705TIP3   OH250529   5.546   3.778   4.927 -0.0204  0.2138 -0.2738
 9705TIP3    H150530   5.533   3.686   4.903 -1.0567  0.9602 -2.7743
 9705TIP3    H250531   5.640   3.788   4.936  0.0468 -1.2920  0.9372
 9706TIP3   OH250532   6.754   6.616  14.130 -0.2382  0.3303  0.3479
 9706TIP3    H150533   6.673   6.649  14.092  0.4869  0.7554 -0.8864
 9706TIP3    H250534   6.739   6.522  14.141 -1.3724  0.6257  1.4093
 9707TIP3   OH250535   2.315   5.241   4.299 -0.2851  0.1921 -0.2030
 9707TIP3    H150536   2.223   5.266   4.294 -0.2701  0.2987  0.0912
 9707TIP3    H250537   2.316   5.163   4.354 -0.3480 -0.5402 -1.2152
 9708TIP3   OH250538   1.295   6.257   0.969 -0.0188  0.5533 -0.0088
 9708TIP3    H150539   1.313   6.249   0.875  0.4539  0.8351  0.0549
 9708TIP3    H250540   1.274   6.350   0.981 -0.9285  0.3448  0.0214
 9709TIP3   OH250541   4.026   4.545  15.183  0.1368 -0.1029  0.5217
 9709TIP3    H150542   4.102   4.584  15.228  0.1516 -0.3562  0.7155
 9709TIP3    H250543   3.950   4.578  15.232  0.0830  0.6724 -0.0650
 9710TIP3   OH250544   2.617   1.741   0.040  0.1275  0.1624  0.0645
 9710TIP3    H150545   2.538   1.795   0.038 -1.1971 -1.6931  0.6674
 9710TIP3    H250546   2.641   1.730  -0.051 -1.9610 -1.5619 -0.3228
 9711TIP3   OH250547   5.544   3.476   0.805  0.0733  0.1531  0.3878
 9711TIP3    H150548   5.543   3.562   0.846 -0.3378  0.5356 -0.3972
 9711TIP3    H250549   5.490   3.421   0.862  0.7850  0.2759  1.1803
 9712TIP3   OH250550   1.260   2.337   6.294  0.0750 -0.0721 -0.6581
 9712TIP3    H150551   1.327   2.402   6.318 -1.4801  1.5117 -0.5112
 9712TIP3    H250552   1.182   2.365   6.341 -0.8612 -1.5817 -1.2811
 9713TIP3   OH250553   0.508   1.396   2.392 -0.3503 -0.0477 -0.0921
 9713TIP3    H150554   0.595   1.357   2.397 -1.2643 -2.1060  0.2762
 9713TIP3    H250555   0.500   1.449   2.471  0.3171 -0.4039  0.2119
 9714TIP3   OH250556   4.331   5.993  16.563 -0.2571  0.1753  0.3930
 9714TIP3    H150557   4.344   5.976  16.656  2.9259  0.9769  0.1627
 9714TIP3    H250558   4.361   6.083  16.551 -0.9465  0.1841 -1.3561
 9715TIP3   OH250559   2.563   0.105  12.320  0.1415 -0.3568 -0.4031
 9715TIP3    H150560   2.557   0.178  12.258 -1.3367 -0.0943  0.0399
 9715TIP3    H250561   2.502   0.039  12.286 -1.7394  0.3516  1.5163
 9716TIP3   OH250562   2.293   1.184   4.217 -0.2628 -0.1061 -0.5066
 9716TIP3    H150563   2.362   1.250   4.221  0.0605 -0.4660 -0.0637
 9716TIP3    H250564   2.221   1.221   4.269 -0.2040  0.0379 -0.5279
 9717TIP3   OH250565   5.600   2.525   6.482 -0.1022  0.0543  0.2014
 9717TIP3    H150566   5.535   2.463   6.512 -2.7116  1.3572 -2.5135
 9717TIP3    H250567   5.681   2.500   6.528 -2.2769 -2.0692  3.0259
 9718TIP3   OH250568   3.306   5.892  11.477  0.3858 -0.1309  0.2032
 9718TIP3    H150569   3.391   5.892  11.434  1.1517 -0.1293  1.6948
 9718TIP3    H250570   3.285   5.985  11.489  1.7781 -0.1349  2.9226
 9719TIP3   OH250571   1.729   6.241  12.630  0.3437  0.1944  0.6031
 9719TIP3    H150572   1.747   6.147  12.621  1.6016  0.4285  0.4636
 9719TIP3    H250573   1.634   6.247  12.633  0.2568 -1.3753  3.7670
 9720TIP3   OH250574   4.303   1.248   3.935  0.0158  0.1772 -0.3549
 9720TIP3    H150575   4.244   1.258   3.861 -1.2260 -2.2053  0.2737
 9720TIP3    H250576   4.245   1.232   4.010  1.2630  2.1787  1.0909
 9721TIP3   OH250577   5.248   0.198   0.650  0.0482  0.6320  0.1452
 9721TIP3    H150578   5.293   0.279   0.625 -0.4713  1.1111  0.7356
 9721TIP3    H250579   5.218   0.214   0.739 -1.6011  0.4640 -0.3666
 9722TIP3   OH250580   6.732   4.977   5.997  1.0017  0.1644 -0.1689
 9722TIP3    H150581   6.685   4.895   5.989 -0.9380  1.3770 -1.4839
 9722TIP3    H250582   6.797   4.961   6.066 -0.5419 -1.8862  0.8507
 9723TIP3   OH250583   4.434   5.072   4.458  0.5795  0.0415 -0.2596
 9723TIP3    H150584   4.489   4.994   4.461  1.0591  0.3846  0.0164
 9723TIP3    H250585   4.414   5.084   4.366 -0.0453 -0.7862 -0.2330
 9724TIP3   OH250586   5.795   5.001  16.348 -0.1913  0.0169  0.0267
 9724TIP3    H150587   5.762   4.969  16.264 -0.3715  0.0273  0.0928
 9724TIP3    H250588   5.890   5.010  16.335  0.0004 -1.4872  0.3140
 9725TIP3   OH250589   6.028   5.607  10.802 -0.0150  0.1501  0.5423
 9725TIP3    H150590   6.061   5.660  10.729 -0.2976  1.5984  1.4481
 9725TIP3    H250591   6.063   5.520  10.786  0.3577  0.5713 -1.0560
 9726TIP3   OH250592   4.757   1.829  12.629 -0.5816  0.1040  0.3207
 9726TIP3    H150593   4.724   1.739  12.632  0.7716 -0.4055  0.1626
 9726TIP3    H250594   4.686   1.879  12.589 -0.7223 -1.1741 -1.0617
 9727TIP3   OH250595   6.335   3.075  15.784 -0.7483 -0.0558  0.6520
 9727TIP3    H150596   6.310   2.983  15.793 -0.4751 -0.2412 -0.4428
 9727TIP3    H250597   6.261   3.115  15.738 -0.8364  0.2690  1.0662
 9728TIP3   OH250598   5.966   0.985  15.510  0.1745  0.3071 -0.1233
 9728TIP3    H150599   6.055   1.015  15.531 -0.1935  2.5692 -1.7068
 9728TIP3    H250600   5.976   0.941  15.425 -0.1079 -0.0980  0.0512
 9729TIP3   OH250601   4.769   6.118   1.752  0.4959 -0.1171 -0.0556
 9729TIP3    H150602   4.683   6.088   1.721  0.8954 -0.3678 -0.9286
 9729TIP3    H250603   4.830   6.088   1.685  1.4355 -1.0964  1.2064
 9730TIP3   OH250604   5.122   5.400   3.957 -0.1353 -0.4919  0.2559
 9730TIP3    H150605   5.124   5.475   3.898 -1.6876  0.1807  1.0296
 9730TIP3    H250606   5.034   5.364   3.947 -0.0653 -0.9852  1.3899
 9731TIP3   OH250607   4.600   5.043   2.913 -0.0178  0.1079 -0.4498
 9731TIP3    H150608   4.653   4.964   2.921  0.0000  0.2299  0.8802
 9731TIP3    H250609   4.512   5.011   2.890 -0.6678 -0.5638  2.6520
 9732TIP3   OH250610   0.181   3.477   1.158 -1.0171  0.2039  0.2440
 9732TIP3    H150611   0.100   3.509   1.119 -1.3745 -0.8854  0.0733
 9732TIP3    H250612   0.222   3.555   1.197 -0.4829  1.3567 -2.5616
 9733TIP3   OH250613   1.314   1.714   5.864  0.0200  0.0560  0.5901
 9733TIP3    H150614   1.225   1.693   5.893 -1.1015  3.2177 -0.3418
 9733TIP3    H250615   1.301   1.769   5.787  2.8237 -0.0866 -0.0111
 9734TIP3   OH250616   2.005   2.103   1.264 -0.3001 -0.3418  0.7981
 9734TIP3    H150617   1.989   2.022   1.312  0.1261 -0.9932 -0.1452
 9734TIP3    H250618   2.101   2.112   1.265 -0.3270 -0.0426  0.5772
 9735TIP3   OH250619   0.349   2.861  16.802 -0.9253  0.1628  0.0288
 9735TIP3    H150620   0.257   2.883  16.811 -1.0180 -0.5077  0.7056
 9735TIP3    H250621   0.350   2.786  16.742 -0.9088 -0.6084  0.9938
 9736TIP3   OH250622   1.912   6.157   2.104  0.2951  0.0011 -0.3060
 9736TIP3    H150623   1.915   6.096   2.178 -0.6331  0.3798  0.0455
 9736TIP3    H250624   1.866   6.110   2.035  1.5000 -0.4987 -0.7976
 9737TIP3   OH250625   6.715   5.111  11.200 -0.3632  0.0697  0.5890
 9737TIP3    H150626   6.754   5.099  11.287 -0.8925 -0.7122  0.7263
 9737TIP3    H250627   6.679   5.199  11.201  0.4374  0.3938  0.8465
 9738TIP3   OH250628   1.974   0.889  14.298  0.2378  0.4904 -0.0204
 9738TIP3    H150629   2.031   0.820  14.332 -1.1497  0.1757  1.7668
 9738TIP3    H250630   1.967   0.952  14.369 -1.0567  0.8798 -0.4761
 9739TIP3   OH250631   0.058   5.634  13.377  0.1031  0.2918 -0.3638
 9739TIP3    H150632   0.051   5.693  13.302 -0.0718  1.6218  0.6923
 9739TIP3    H250633   0.066   5.692  13.453  1.8486 -1.0288  0.5089
 9740TIP3   OH250634   1.998   0.123   0.538  0.5039 -0.3734 -0.3384
 9740TIP3    H150635   1.971   0.197   0.484  0.4230 -0.7523 -0.8217
 9740TIP3    H250636   2.094   0.125   0.535  0.5167  0.1228  0.2188
 9741TIP3   OH250637   0.422   0.792  11.989  0.7646 -0.0810 -0.4751
 9741TIP3    H150638   0.426   0.888  11.983  0.1004 -0.1096 -1.4512
 9741TIP3    H250639   0.354   0.767  11.926 -1.4300 -0.9345  2.1180
 9742TIP3   OH250640   5.280   3.953   3.972  0.1713  0.3907  0.6202
 9742TIP3    H150641   5.253   3.913   3.889  0.0457 -0.1607  0.9247
 9742TIP3    H250642   5.244   3.895   4.039  2.6560 -0.7101  1.0496
 9743TIP3   OH250643   4.133   6.132  13.061 -0.5237 -0.2194 -0.5984
 9743TIP3    H150644   4.052   6.184  13.062  0.3275  1.1025  0.7187
 9743TIP3    H250645   4.174   6.155  12.977 -0.6758  0.4138 -0.5051
 9744TIP3   OH250646   3.457   3.038  12.944 -0.0771 -0.4576  0.3781
 9744TIP3    H150647   3.409   3.107  12.898  3.7756  0.1250 -3.0099
 9744TIP3    H250648   3.459   2.965  12.883  1.8066 -1.0946  1.1630
 9745TIP3   OH250649   5.183   6.417  11.421 -0.0921  0.5399 -0.8402
 9745TIP3    H150650   5.202   6.369  11.502 -0.5092  0.5030 -0.7631
 9745TIP3    H250651   5.164   6.349  11.356 -0.5141  0.5942 -0.7744
 9746TIP3   OH250652   4.533   6.506  11.155 -0.1462 -0.1221 -0.1790
 9746TIP3    H150653   4.471   6.448  11.110 -0.3687 -0.2830  0.3409
 9746TIP3    H250654   4.491   6.592  11.153 -0.3019 -0.1951  0.0150
 9747TIP3   OH250655   4.761   4.790   2.633  0.1331 -0.0179 -0.0901
 9747TIP3    H150656   4.669   4.811   2.644 -0.3657 -2.1363 -0.0653
 9747TIP3    H250657   4.791   4.765   2.720  0.3597 -0.7583 -0.3788
 9748TIP3   OH250658   1.613   5.305  17.190  0.4288 -0.2051  0.0423
 9748TIP3    H150659   1.607   5.267  17.277  0.4437 -1.1294 -0.3549
 9748TIP3    H250660   1.667   5.383  17.201  0.7306 -0.5206  0.7908
 9749TIP3   OH250661   4.564   5.037   1.094  0.0135  0.3386  0.1789
 9749TIP3    H150662   4.500   5.001   1.032  0.9821 -0.3415 -0.4299
 9749TIP3    H250663   4.515   5.104   1.142 -1.1415 -0.1181 -0.3351
 9750TIP3   OH250664   0.933   3.063   0.491  0.1997 -0.7890 -0.1671
 9750TIP3    H150665   0.898   3.136   0.440  0.0125 -1.1003 -0.4835
 9750TIP3    H250666   1.001   3.025   0.435  1.4119  0.1401  0.6591
 9751TIP3   OH250667   0.746   6.315  11.564 -0.3549  0.2959  0.1993
 9751TIP3    H150668   0.658   6.281  11.581 -0.5241  0.6617  0.0667
 9751TIP3    H250669   0.804   6.239  11.573 -0.6878  0.0496  0.2578
 9752TIP3   OH250670   0.822   3.707   1.951 -0.1476  0.1206  0.6145
 9752TIP3    H150671   0.801   3.755   1.871  2.6355 -0.7537 -0.7008
 9752TIP3    H250672   0.753   3.732   2.012 -2.5444  0.5478 -2.1357
 9753TIP3   OH250673   2.840   5.403   4.821 -0.1336 -0.1480 -0.6789
 9753TIP3    H150674   2.792   5.486   4.820  0.3393  0.1765  1.8795
 9753TIP3    H250675   2.924   5.423   4.780  0.4665  0.9420  1.0678
 9754TIP3   OH250676   4.734   2.448   5.829 -0.0864  0.3437  0.8584
 9754TIP3    H150677   4.791   2.520   5.855  0.3781  0.5983 -0.7985
 9754TIP3    H250678   4.697   2.476   5.745 -0.6659 -0.9249  0.6818
 9755TIP3   OH250679   3.521   5.942  13.334 -0.0749  0.6233 -0.1135
 9755TIP3    H150680   3.489   6.029  13.311  0.6522  0.7388 -0.6938
 9755TIP3    H250681   3.616   5.948  13.328 -0.0419 -0.4067 -0.9004
 9756TIP3   OH250682   2.112   4.514  11.797  0.0414  0.9114  0.0037
 9756TIP3    H150683   2.074   4.524  11.884  0.5471 -1.1542  0.4973
 9756TIP3    H250684   2.192   4.463  11.813 -1.2622 -1.8312 -1.9814
 9757TIP3   OH250685   6.709   5.733  12.516 -0.1511  0.0754 -0.3301
 9757TIP3    H150686   6.712   5.749  12.422  1.1229  0.4335 -0.2386
 9757TIP3    H250687   6.741   5.644  12.527  0.4333  0.2957 -0.1871
 9758TIP3   OH250688   0.564   0.776  15.115 -0.1824  0.3736  0.2762
 9758TIP3    H150689   0.587   0.805  15.026 -1.9119  0.1025 -0.2737
 9758TIP3    H250690   0.470   0.792  15.122 -0.8531 -3.2544  0.6346
 9759TIP3   OH250691   5.115   1.684   1.263 -0.7297 -0.2685  0.1257
 9759TIP3    H150692   5.072   1.604   1.232 -1.8454  0.3897 -0.0715
 9759TIP3    H250693   5.043   1.747   1.275  0.1015  0.6292  0.5117
 9760TIP3   OH250694   6.388   6.581  16.716 -0.4823 -0.8161 -0.1235
 9760TIP3    H150695   6.341   6.519  16.659  0.9979 -2.6165  0.5629
 9760TIP3    H250696   6.413   6.529  16.792  0.7951  0.6398  0.4695
 9761TIP3   OH250697   3.908   6.654  16.983  0.6458  0.2629 -0.3920
 9761TIP3    H150698   3.829   6.688  17.025  0.3189 -0.0418 -0.7644
 9761TIP3    H250699   3.979   6.681  17.041  0.1894 -0.2144  0.3860
 9762TIP3   OH250700   5.721   4.343  14.048 -0.7751 -0.1720  0.4421
 9762TIP3    H150701   5.786   4.410  14.026 -2.2229  1.2202  0.2989
 9762TIP3    H250702   5.752   4.307  14.131  1.0264 -0.6458 -0.4088
 9763TIP3   OH250703   2.357   1.191   2.161  0.1974  0.0506  0.3020
 9763TIP3    H150704   2.368   1.097   2.152  0.2893 -0.1989  2.7213
 9763TIP3    H250705   2.423   1.218   2.224 -0.5047  1.5809  0.4261
 9764TIP3   OH250706   3.870   4.676   2.753  0.3771 -1.0486  0.1026
 9764TIP3    H150707   3.860   4.614   2.681  1.0090 -1.3284  0.2456
 9764TIP3    H250708   3.954   4.652   2.793 -0.0224 -0.9746  1.0032
 9765TIP3   OH250709   1.697   0.493   0.385  0.0681  0.4296  0.0629
 9765TIP3    H150710   1.683   0.404   0.418 -2.3978  1.1380  0.9845
 9765TIP3    H250711   1.646   0.497   0.305  1.5883  0.4851 -0.9161
 9766TIP3   OH250712   0.426   3.487   3.062  0.4838 -0.0518  0.2222
 9766TIP3    H150713   0.361   3.505   2.995  0.6242 -0.1290  0.0654
 9766TIP3    H250714   0.509   3.514   3.024  0.5984 -0.3302  0.2670
 9767TIP3   OH250715   2.456   4.903   3.172  0.2468  0.4666 -0.3606
 9767TIP3    H150716   2.538   4.897   3.123  0.1580  0.5126 -0.5136
 9767TIP3    H250717   2.400   4.837   3.132  0.1521  0.5492 -0.3622
 9768TIP3   OH250718   3.922   4.944   1.587  0.2711  0.5596  0.1262
 9768TIP3    H150719   3.902   4.974   1.498  0.3295 -1.2117 -0.5242
 9768TIP3    H250720   3.946   4.852   1.575 -1.3548 -0.1573  2.1777
 9769TIP3   OH250721   6.034   5.526  14.659 -0.0342 -0.4846  0.4115
 9769TIP3    H150722   6.078   5.611  14.668 -0.0287 -0.3257 -0.9887
 9769TIP3    H250723   5.944   5.543  14.686  0.0470 -0.1258  0.4688
 9770TIP3   OH250724   2.352   1.385  13.844  0.4413 -0.4004  0.1628
 9770TIP3    H150725   2.263   1.361  13.819  0.8296 -1.0465 -0.6062
 9770TIP3    H250726   2.394   1.302  13.867  0.2838  0.1044  2.3952
 9771TIP3   OH250727   6.277   4.546   3.062  0.1007 -0.3387 -0.5228
 9771TIP3    H150728   6.238   4.466   3.098  0.3555 -0.2749 -0.1088
 9771TIP3    H250729   6.220   4.616   3.092  0.2931 -0.2892 -0.2727
 9772TIP3   OH250730   1.750   0.956   2.567  0.2132 -0.2434  0.6736
 9772TIP3    H150731   1.834   0.933   2.606  0.8485  1.5067  0.4047
 9772TIP3    H250732   1.696   0.985   2.641  0.0243 -0.8472  0.7748
 9773TIP3   OH250733   2.339   0.085   1.455 -0.5734 -0.8333 -0.5584
 9773TIP3    H150734   2.409   0.058   1.514 -0.9140  0.1932  0.3119
 9773TIP3    H250735   2.379   0.083   1.368  0.0698 -1.8407 -0.2468
 9774TIP3   OH250736   1.344   4.235   3.010 -0.1083 -0.5637 -0.2024
 9774TIP3    H150737   1.387   4.295   3.071 -0.0237  0.5586 -1.3448
 9774TIP3    H250738   1.358   4.274   2.924  0.0059 -2.2767 -0.9744
 9775TIP3   OH250739   6.750   2.242   4.681 -0.2723 -0.2728 -0.0210
 9775TIP3    H150740   6.783   2.318   4.729 -1.2162  0.3440 -0.3381
 9775TIP3    H250741   6.820   2.177   4.687 -0.4477 -0.2805  2.3595
 9776TIP3   OH250742   4.865   4.892  12.042 -0.2914  0.4681 -0.3426
 9776TIP3    H150743   4.888   4.935  11.959 -1.9021 -1.5865 -1.8992
 9776TIP3    H250744   4.772   4.912  12.054  0.4213  2.6489  2.1993
 9777TIP3   OH250745   0.176   3.127   4.774 -0.1477  0.7232 -1.1142
 9777TIP3    H150746   0.119   3.140   4.850  0.1468  0.5167 -0.8530
 9777TIP3    H250747   0.251   3.079   4.809  2.1696  4.5094 -0.5304
 9778TIP3   OH250748   2.897   2.530  11.479 -0.2207  0.6853  0.4018
 9778TIP3    H150749   2.887   2.526  11.574  0.2186 -1.4362  0.3759
 9778TIP3    H250750   2.989   2.550  11.465 -0.7656  3.3802  0.4245
 9779TIP3   OH250751   4.902   2.904  13.497 -0.1985 -0.2773  0.2492
 9779TIP3    H150752   4.905   2.933  13.406 -1.4915  1.7538  0.8185
 9779TIP3    H250753   4.930   2.812  13.494  2.8795  0.6619 -1.7667
 9780TIP3   OH250754   1.710   5.807  14.867 -0.3771  0.5845  0.6247
 9780TIP3    H150755   1.788   5.854  14.898  0.8099 -0.6414 -0.4412
 9780TIP3    H250756   1.744   5.724  14.833 -2.0787  0.3314 -0.5081
 9781TIP3   OH250757   3.638   3.039   4.876 -0.2903 -0.1798 -0.3205
 9781TIP3    H150758   3.649   3.120   4.826  0.9109  0.5934  1.1757
 9781TIP3    H250759   3.702   3.045   4.946 -1.9409 -1.2433  1.3288
 9782TIP3   OH250760   6.740   3.383  16.943 -0.0449  0.3966 -0.1191
 9782TIP3    H150761   6.831   3.354  16.946 -0.2144 -0.1248  0.1993
 9782TIP3    H250762   6.743   3.476  16.965  0.5823  0.7822 -1.7969
 9783TIP3   OH250763   3.629   3.561   4.996 -0.0451 -0.2255  0.4220
 9783TIP3    H150764   3.661   3.581   4.908  1.4104  0.5664  1.1154
 9783TIP3    H250765   3.571   3.634   5.018 -0.4321 -0.4381  0.1121
 9784TIP3   OH250766   5.260   3.096  10.616 -0.4003 -0.2828 -0.8199
 9784TIP3    H150767   5.341   3.081  10.566  1.0070 -0.4729  1.4241
 9784TIP3    H250768   5.227   3.008  10.634  0.1026 -0.2765  0.1511
 9785TIP3   OH250769   4.743   2.248  15.207  0.4374  0.3060 -1.0296
 9785TIP3    H150770   4.769   2.340  15.205  1.7286 -0.0601 -1.6426
 9785TIP3    H250771   4.798   2.207  15.140  1.6467 -1.3838  0.9637
 9786TIP3   OH250772   5.207   4.811   2.381 -0.1654  0.2571  0.0791
 9786TIP3    H150773   5.136   4.768   2.334  2.2378 -3.3440 -0.5161
 9786TIP3    H250774   5.225   4.753   2.455  1.2552  1.8074  0.9812
 9787TIP3   OH250775   4.200   3.434  14.128  0.1531  0.1877  0.9694
 9787TIP3    H150776   4.124   3.470  14.084  1.7928 -0.3579 -2.5147
 9787TIP3    H250777   4.171   3.348  14.160 -1.4181  1.1086  2.0529
 9788TIP3   OH250778   3.083   0.804   3.730 -0.1704 -0.2752  0.2370
 9788TIP3    H150779   3.115   0.718   3.756  0.7869  0.1782  0.5538
 9788TIP3    H250780   3.157   0.863   3.743 -0.3197  0.3240 -1.5079
 9789TIP3   OH250781   3.384   3.668  14.723  0.4093  0.9047  0.3488
 9789TIP3    H150782   3.365   3.624  14.640  1.0336  1.7220 -0.2363
 9789TIP3    H250783   3.476   3.647  14.741 -0.0144 -0.1596  1.3977
 9790TIP3   OH250784   3.819   5.997  10.895 -0.2922  0.1455  0.1233
 9790TIP3    H150785   3.744   5.974  10.950  0.9951 -0.7475  1.5685
 9790TIP3    H250786   3.817   6.092  10.889 -2.2159  0.0679 -0.8635
 9791TIP3   OH250787   1.088   0.880   2.959  0.4196  0.6897  0.6435
 9791TIP3    H150788   1.149   0.939   2.915  0.7343 -1.6343 -2.1691
 9791TIP3    H250789   1.001   0.912   2.934  0.6012 -1.5293 -3.0597
 9792TIP3   OH250790   1.801   4.086  14.825 -0.3772  0.7778  0.0228
 9792TIP3    H150791   1.749   4.093  14.744  2.0055  0.3631 -1.6129
 9792TIP3    H250792   1.837   4.174  14.838  0.9940  0.3354 -0.6280
 9793TIP3   OH250793   0.560   3.817   3.312  0.0551  0.0127  0.4761
 9793TIP3    H150794   0.521   3.818   3.400  2.4731 -0.6223  1.6035
 9793TIP3    H250795   0.650   3.845   3.326  0.7179 -0.9698 -1.7038
 9794TIP3   OH250796   3.404   2.781   2.749 -0.1411 -0.2277  0.4101
 9794TIP3    H150797   3.384   2.873   2.731  0.3862 -0.3603 -0.9773
 9794TIP3    H250798   3.323   2.735   2.729  0.0130 -0.2081 -0.2914
 9795TIP3   OH250799   3.001   1.196   0.446 -0.3780 -0.2291 -0.1260
 9795TIP3    H150800   3.053   1.271   0.476 -0.5598 -0.9969  2.2321
 9795TIP3    H250801   2.911   1.218   0.470 -1.1753  0.9485 -3.8891
 9796TIP3   OH250802   5.875   0.008   1.532  0.2468 -0.4913  0.3334
 9796TIP3    H150803   5.849   0.045   1.617  0.9912  0.5050  0.1353
 9796TIP3    H250804   5.923   0.079   1.489 -0.4435 -0.8697 -1.0762
 9797TIP3   OH250805   0.090   5.883  11.211  0.0531  0.3327  0.5465
 9797TIP3    H150806   0.137   5.963  11.234  2.1330 -0.3873 -1.1521
 9797TIP3    H250807  -0.003   5.906  11.223  0.5688  3.1885 -0.5169
 9798TIP3   OH250808   5.427   6.288   2.417  0.2921  0.1665 -0.2730
 9798TIP3    H150809   5.414   6.354   2.348  0.8968  0.9330  0.3244
 9798TIP3    H250810   5.384   6.325   2.494 -3.5760 -2.3408 -1.1285
 9799TIP3   OH250811   4.948   4.492  12.092 -0.0626 -0.0409 -0.2256
 9799TIP3    H150812   4.968   4.506  12.000  0.6604  0.4558  0.0093
 9799TIP3    H250813   4.993   4.563  12.138 -0.7959 -0.0154  0.4697
 9800TIP3   OH250814   4.024   5.000  13.196 -0.2933 -0.1310  0.9768
 9800TIP3    H150815   3.942   4.996  13.245 -0.9288 -1.2305 -0.1595
 9800TIP3    H250816   4.036   4.912  13.161 -0.5867  0.9529 -2.0101
 9801TIP3   OH250817   1.768   5.697  11.595 -0.1301  0.1542 -0.2432
 9801TIP3    H150818   1.767   5.709  11.500 -1.3934  1.3871 -0.0974
 9801TIP3    H250819   1.737   5.781  11.629 -0.6252 -0.6149  1.2207
 9802TIP3   OH250820   6.007   5.111   0.064  0.0329  0.4979 -0.0403
 9802TIP3    H150821   6.035   5.153  -0.018 -0.7799  1.5939  0.2280
 9802TIP3    H250822   6.010   5.017   0.045  3.5569  0.5892 -0.0925
 9803TIP3   OH250823   2.877   3.452  14.879 -0.1038 -0.0286 -0.4800
 9803TIP3    H150824   2.970   3.469  14.859  0.0584 -0.7927 -0.3693
 9803TIP3    H250825   2.872   3.358  14.891 -0.8999  0.0169 -0.4601
 9804TIP3   OH250826   5.519   1.873  13.277  0.1767  0.4188  0.2596
 9804TIP3    H150827   5.487   1.784  13.290  0.3491  0.1318 -1.1950
 9804TIP3    H250828   5.465   1.927  13.335 -1.4368 -0.3332 -0.5409
 9805TIP3   OH250829   1.660   5.856  16.029 -0.2156 -0.5254  0.0794
 9805TIP3    H150830   1.639   5.839  15.937  2.9389 -3.4727 -0.1942
 9805TIP3    H250831   1.750   5.891  16.027  0.0701 -1.0929  2.0531
 9806TIP3   OH250832   2.138   2.192   4.533  0.6727  0.3903  0.1737
 9806TIP3    H150833   2.105   2.175   4.444 -0.5630  2.4791  0.2138
 9806TIP3    H250834   2.223   2.147   4.535  0.0453 -0.9567 -1.5547
 9807TIP3   OH250835   6.328   3.202  16.085 -0.1144 -0.1030 -0.4566
 9807TIP3    H150836   6.265   3.210  16.158  0.4891  1.0070 -0.0501
 9807TIP3    H250837   6.413   3.215  16.126  0.1690  1.3370 -1.5130
 9808TIP3   OH250838   6.684   1.314  12.663 -0.5170  0.0893 -0.4405
 9808TIP3    H150839   6.668   1.374  12.737 -1.6989 -0.9417  0.1520
 9808TIP3    H250840   6.609   1.255  12.664  0.3966 -1.0948 -1.3386
 9809TIP3   OH250841   0.377   2.586   0.157  0.3084  0.9047 -0.2423
 9809TIP3    H150842   0.444   2.641   0.116  1.0228  0.2450  0.0360
 9809TIP3    H250843   0.403   2.582   0.249 -0.8478  1.7239  0.1277
 9810TIP3   OH250844   0.562   2.586  16.255  0.1903 -0.2080  1.0496
 9810TIP3    H150845   0.637   2.527  16.246 -0.4158 -0.7439 -0.8863
 9810TIP3    H250846   0.588   2.666  16.210  0.6454  0.6650  2.8337
 9811TIP3   OH250847   4.329   0.738   2.252  0.1560  0.2854 -0.2786
 9811TIP3    H150848   4.326   0.744   2.347 -2.0506 -1.3247 -0.1947
 9811TIP3    H250849   4.337   0.829   2.222 -2.7828  1.1725  1.3905
 9812TIP3   OH250850   6.078   0.033   4.081  0.0766 -0.6777  0.1333
 9812TIP3    H150851   6.013   0.092   4.119 -0.6337 -2.6114  2.0705
 9812TIP3    H250852   6.073   0.049   3.987 -2.3924  0.0505  0.3502
 9813TIP3   OH250853   1.881   6.338   2.886 -0.3105  0.8509  0.2991
 9813TIP3    H150854   1.940   6.263   2.882  0.9456  1.7551  1.2949
 9813TIP3    H250855   1.813   6.319   2.822  0.5745 -0.6412 -0.2138
 9814TIP3   OH250856   4.906   5.322  13.497  0.9428  0.1693  0.0720
 9814TIP3    H150857   4.927   5.414  13.513  2.1673 -0.0707 -0.0702
 9814TIP3    H250858   4.988   5.276  13.514  0.7362 -0.7352 -1.2950
 9815TIP3   OH250859   6.171   4.297   4.177  0.0614 -0.4118  0.1461
 9815TIP3    H150860   6.190   4.353   4.102  0.0928  0.7632  1.0064
 9815TIP3    H250861   6.237   4.321   4.242 -0.1443 -1.1995  0.6531
 9816TIP3   OH250862   5.461   2.580  14.812  0.2096 -0.4011  0.0698
 9816TIP3    H150863   5.439   2.495  14.850 -1.2142  0.3680  0.9785
 9816TIP3    H250864   5.378   2.617  14.783  0.8216  0.6753 -0.3665
 9817TIP3   OH250865   3.295   6.611  14.089 -0.2844  0.0257  0.3820
 9817TIP3    H150866   3.360   6.548  14.121 -1.3408 -0.8613  0.7850
 9817TIP3    H250867   3.242   6.562  14.027 -0.4453  0.8179 -0.1196
 9818TIP3   OH250868   2.667   5.112   0.156  0.3049 -0.3332 -0.3017
 9818TIP3    H150869   2.720   5.187   0.129  0.1614  0.0916  0.5692
 9818TIP3    H250870   2.578   5.133   0.128  0.5076 -0.8095 -1.2972
 9819TIP3   OH250871   0.329   5.158   0.535 -0.4630 -0.0600  0.1738
 9819TIP3    H150872   0.253   5.104   0.552 -0.6918  0.8702  2.2108
 9819TIP3    H250873   0.381   5.153   0.615  2.1829 -1.5290 -1.5439
 9820TIP3   OH250874   3.170   4.779   3.240  0.5198 -0.4356 -0.2749
 9820TIP3    H150875   3.153   4.865   3.203  0.6669  0.8539  2.4986
 9820TIP3    H250876   3.252   4.751   3.200  1.3555  1.4804  0.0309
 9821TIP3   OH250877   5.635   0.631  10.280 -0.2011 -0.3659 -0.6614
 9821TIP3    H150878   5.690   0.553  10.275  0.4549  0.0817 -0.4603
 9821TIP3    H250879   5.558   0.603  10.330  0.7318 -0.4779  0.7266
 9822TIP3   OH250880   3.946   0.851  17.189 -1.2193  0.7040 -0.0578
 9822TIP3    H150881   3.912   0.865  17.101 -1.0368  0.0086 -0.2460
 9822TIP3    H250882   4.041   0.854  17.179 -1.1958  0.4718  0.0940
 9823TIP3   OH250883   1.945   2.997   0.029  0.0517 -0.0792 -0.0521
 9823TIP3    H150884   2.032   3.023  -0.003  0.3602 -1.7491 -0.5781
 9823TIP3    H250885   1.962   2.950   0.110 -0.2880 -1.2062 -0.6242
 9824TIP3   OH250886   0.249   0.261  11.601  0.2460 -0.4242 -0.1009
 9824TIP3    H150887   0.300   0.211  11.537  1.0178 -1.4473  1.2977
 9824TIP3    H250888   0.160   0.225  11.594 -0.0441  0.5112 -1.6480
 9825TIP3   OH250889   0.867   0.428   0.016 -0.0390  0.5271  0.2193
 9825TIP3    H150890   0.865   0.343  -0.029 -3.1631  1.4726 -1.5500
 9825TIP3    H250891   0.861   0.493  -0.054 -0.8102  2.1378  1.7357
 9826TIP3   OH250892   1.950   5.847  15.752  0.0881 -0.2545  0.4929
 9826TIP3    H150893   2.043   5.847  15.773 -0.0303 -2.5722  1.1279
 9826TIP3    H250894   1.943   5.904  15.675  1.7444  1.4119  1.5258
 9827TIP3   OH250895   0.899   6.590  14.511  0.4375 -0.6748  0.2628
 9827TIP3    H150896   0.882   6.669  14.562 -2.0198 -1.9433  1.5038
 9827TIP3    H250897   0.859   6.606  14.426 -0.1511 -0.6094  0.5487
 9828TIP3   OH250898   6.161   6.682   2.680 -0.0899 -0.7537  0.1306
 9828TIP3    H150899   6.186   6.729   2.760  1.0813  0.2046 -0.7899
 9828TIP3    H250900   6.070   6.707   2.665 -0.5442 -1.4827  1.5363
 9829TIP3   OH250901   3.228   4.877   2.370  0.6143 -0.4656 -0.7521
 9829TIP3    H150902   3.299   4.866   2.433 -0.8152  1.3547  1.2739
 9829TIP3    H250903   3.265   4.932   2.301  0.7940  1.7681  1.0528
 9830TIP3   OH250904   2.140   6.277  13.606 -0.2321 -0.2448 -0.0583
 9830TIP3    H150905   2.131   6.367  13.639  4.1835 -0.0162  0.8446
 9830TIP3    H250906   2.138   6.286  13.511  1.3140  1.0062  0.0031
 9831TIP3   OH250907   1.545   1.567   1.197 -0.7828 -0.1174 -0.0739
 9831TIP3    H150908   1.533   1.646   1.250  1.0474  0.6831 -0.8166
 9831TIP3    H250909   1.576   1.600   1.113 -0.4240 -1.6128 -0.5319
 9832TIP3   OH250910   5.831   0.208   4.211  0.6064  0.2965 -0.2547
 9832TIP3    H150911   5.753   0.253   4.177  0.3993  0.7726  0.8194
 9832TIP3    H250912   5.805   0.180   4.299  1.4069 -0.2034 -0.1760
 9833TIP3   OH250913   3.376   3.387  15.744  0.1881 -0.3464  0.2228
 9833TIP3    H150914   3.462   3.424  15.723  0.2226 -0.2452  0.5415
 9833TIP3    H250915   3.341   3.445  15.811 -0.0034 -0.5652  0.3108
 9834TIP3   OH250916   0.614   4.393   2.696  0.5990 -0.3041  0.0568
 9834TIP3    H150917   0.529   4.428   2.670  2.0590  1.7376 -2.2378
 9834TIP3    H250918   0.631   4.322   2.634  0.5666 -0.7321  0.5337
 9835TIP3   OH250919   4.037   0.061   4.868 -0.0185  0.3764  0.2148
 9835TIP3    H150920   4.008  -0.028   4.885  2.4450 -0.3568  0.6865
 9835TIP3    H250921   4.118   0.052   4.820  0.9512  2.3378  1.3898
 9836TIP3   OH250922   2.441   5.698  16.571 -0.6178  0.1326  0.8169
 9836TIP3    H150923   2.535   5.708  16.555 -0.4454 -1.8988  0.4465
 9836TIP3    H250924   2.408   5.654  16.492 -1.4152 -1.4567  2.0069
 9837TIP3   OH250925   4.891   4.987  14.958  0.1279 -0.2900  0.3633
 9837TIP3    H150926   4.795   4.994  14.966  0.1082  0.9756 -0.8057
 9837TIP3    H250927   4.925   5.056  15.015  0.3594 -0.6145  0.6268
 9838TIP3   OH250928   4.267   3.955  11.978 -0.2764  0.5024 -0.4232
 9838TIP3    H150929   4.204   4.015  11.939  0.2483  1.7228  0.5952
 9838TIP3    H250930   4.248   3.871  11.936 -0.8046  1.4210 -2.0938
 9839TIP3   OH250931   3.375   5.614   4.095  0.0776 -0.0872  0.5786
 9839TIP3    H150932   3.373   5.619   4.000 -1.2481 -1.2429  0.5232
 9839TIP3    H250933   3.439   5.545   4.115  1.5089  1.2311  0.5854
 9840TIP3   OH250934   1.602   4.161   3.057  0.7051  0.5789 -0.1511
 9840TIP3    H150935   1.633   4.100   2.990 -1.0843 -1.1625  0.5876
 9840TIP3    H250936   1.515   4.187   3.028 -0.2916 -0.5668  1.7179
 9841TIP3   OH250937   3.867   5.957   3.586  0.4055 -0.0452 -0.0299
 9841TIP3    H150938   3.779   5.921   3.589  0.7566 -0.9515 -0.4062
 9841TIP3    H250939   3.862   6.028   3.521  0.4728 -1.5527 -1.7220
 9842TIP3   OH250940   5.693   4.951  15.459  0.1769  0.1618  0.1059
 9842TIP3    H150941   5.604   4.965  15.426  0.2646 -0.1064 -0.2402
 9842TIP3    H250942   5.689   4.981  15.550 -0.4523 -0.5027  0.3090
 9843TIP3   OH250943   1.573   1.353  12.565  0.1899  0.3728 -0.7182
 9843TIP3    H150944   1.630   1.307  12.503  0.0438  1.6200 -1.7937
 9843TIP3    H250945   1.560   1.439  12.526 -2.2693  0.1864 -0.3867
 9844TIP3   OH250946   0.434   0.554  15.846 -0.1396  0.1666  0.3058
 9844TIP3    H150947   0.392   0.532  15.929 -0.0211  0.8774  0.5584
 9844TIP3    H250948   0.397   0.639  15.823 -1.6532 -0.9034 -1.3568
 9845TIP3   OH250949   1.353   2.912  15.965 -0.4177 -0.3411  0.0807
 9845TIP3    H150950   1.378   2.856  15.891 -1.4244 -0.0577 -0.4821
 9845TIP3    H250951   1.281   2.866  16.007 -1.0180  0.3515 -0.1734
 9846TIP3   OH250952   1.037   6.507   3.709  0.0105 -0.0780 -0.1528
 9846TIP3    H150953   1.089   6.436   3.672  2.7880  0.7066  2.0919
 9846TIP3    H250954   0.993   6.547   3.634  2.2020 -1.1302 -2.0356
 9847TIP3   OH250955   2.995   3.960   1.781 -0.2304  0.3884 -0.1307
 9847TIP3    H150956   3.064   3.960   1.848  0.2569 -0.6626 -0.6158
 9847TIP3    H250957   2.913   3.961   1.831  0.1202 -1.2880  0.5224
 9848TIP3   OH250958   2.988   0.453  15.763  0.6882 -0.1955  0.4113
 9848TIP3    H150959   3.041   0.380  15.733  0.0751 -0.1295 -0.8589
 9848TIP3    H250960   2.898   0.421  15.758  0.2657  1.2009 -1.8532
 9849TIP3   OH250961   3.480   3.260   3.800 -0.8834 -0.3188  0.2998
 9849TIP3    H150962   3.443   3.283   3.885 -0.3250  0.1021  0.4316
 9849TIP3    H250963   3.573   3.244   3.817 -0.7778 -0.2849 -0.2183
 9850TIP3   OH250964   3.084   6.750  12.107 -0.3587 -0.1284  0.6850
 9850TIP3    H150965   3.000   6.796  12.107 -0.3881 -0.1719 -0.1312
 9850TIP3    H250966   3.145   6.811  12.065 -0.6529 -1.2844 -1.4535
 9851TIP3   OH250967   6.560   4.340   6.201  0.7326  0.5324 -0.1489
 9851TIP3    H150968   6.598   4.280   6.265 -1.6292 -1.5336 -0.6138
 9851TIP3    H250969   6.471   4.308   6.187  0.6159  1.9700 -3.1696
 9852TIP3   OH250970   3.086   3.286   4.033 -0.1323 -0.6099  0.5348
 9852TIP3    H150971   2.999   3.314   4.003 -0.3797 -0.6792  1.1898
 9852TIP3    H250972   3.072   3.255   4.122  0.3708 -1.6531  0.2512
 9853TIP3   OH250973   5.773   5.569   5.776  0.0759  0.1615  0.1474
 9853TIP3    H150974   5.766   5.509   5.850 -0.3780 -0.7350 -0.6153
 9853TIP3    H250975   5.693   5.621   5.780  0.3397  0.5370  0.6434
 9854TIP3   OH250976   4.865   2.515  15.207  0.6610  0.4399  0.0154
 9854TIP3    H150977   4.878   2.592  15.262  1.7763  0.4138 -0.1879
 9854TIP3    H250978   4.951   2.471  15.207  0.0881 -0.7102  0.0008
 9855TIP3   OH250979   0.843   6.220   2.118 -0.0125 -0.2940 -0.2102
 9855TIP3    H150980   0.853   6.313   2.136 -1.2715 -0.3052  0.5998
 9855TIP3    H250981   0.911   6.178   2.171  1.9656  0.2954 -2.2250
 9856TIP3   OH250982   4.011   3.784  15.729  0.0433 -0.7543  0.3914
 9856TIP3    H150983   3.925   3.797  15.689  0.2465 -2.6509 -0.7513
 9856TIP3    H250984   4.061   3.861  15.704 -0.6780 -0.6445 -0.7479
 9857TIP3   OH250985   6.747   2.906  11.435  0.4509 -0.3280  0.4351
 9857TIP3    H150986   6.734   2.966  11.362  0.4527 -1.5459 -0.5808
 9857TIP3    H250987   6.842   2.902  11.447  0.4764 -0.5124  0.1744
 9858TIP3   OH250988   6.336   5.303   0.054 -0.2232  0.5552 -0.2780
 9858TIP3    H150989   6.250   5.335   0.025  0.5561  4.0532  1.0359
 9858TIP3    H250990   6.396   5.331  -0.015  0.4043  1.3768  0.6095
 9859TIP3   OH250991   4.825   1.280   6.284 -0.0745  0.5010 -0.5182
 9859TIP3    H150992   4.890   1.222   6.244 -0.2952 -1.4425  1.8558
 9859TIP3    H250993   4.861   1.301   6.370 -2.0870  0.1954  0.4315
 9860TIP3   OH250994   3.368   6.349  12.601  0.1553 -0.2759 -0.2440
 9860TIP3    H150995   3.463   6.345  12.587  0.3108  0.6113  0.5081
 9860TIP3    H250996   3.335   6.268  12.564  1.1160 -0.1911 -1.3026
 9861TIP3   OH250997   0.138   3.760  15.913 -0.3251  0.3116 -0.0445
 9861TIP3    H150998   0.159   3.809  15.834  1.9901 -0.6391 -0.0704
 9861TIP3    H250999   0.155   3.669  15.891 -0.9661 -0.1156  1.1405
 9862TIP3   OH251000   5.982   3.679  14.045 -0.6435 -0.1060  0.6152
 9862TIP3    H151001   5.994   3.768  14.078 -0.9556  0.1314  0.1119
 9862TIP3    H251002   5.929   3.691  13.965 -1.3607 -0.8134  0.9797
 9863TIP3   OH251003   4.978   3.430  15.128  0.1669 -0.0175  0.1074
 9863TIP3    H151004   4.981   3.516  15.086  1.1907 -0.2646 -0.3545
 9863TIP3    H251005   4.963   3.448  15.220 -1.6361  0.5546 -0.2931
 9864TIP3   OH251006   6.740   5.084  13.846  0.2303 -0.2722 -0.2507
 9864TIP3    H151007   6.796   5.065  13.771  1.0105  0.3585  0.1645
 9864TIP3    H251008   6.781   5.159  13.889  0.0316 -0.8996  1.0718
 9865TIP3   OH251009   4.336   0.769  12.727 -0.2955 -0.4184 -0.6651
 9865TIP3    H151010   4.246   0.800  12.726 -1.0446 -2.4252  0.9153
 9865TIP3    H251011   4.386   0.841  12.767 -1.5780 -0.2131  0.6284
 9866TIP3   OH251012   1.512   0.087   0.153 -0.2110  0.0822  0.4604
 9866TIP3    H151013   1.442   0.142   0.118 -2.6731 -0.6697  3.9681
 9866TIP3    H251014   1.474  -0.000   0.157  1.5437 -0.6824  0.7652
 9867TIP3   OH251015   1.916   0.431   0.186  0.3939 -0.2099  0.1397
 9867TIP3    H151016   1.926   0.521   0.155  0.3127 -0.5998 -1.0290
 9867TIP3    H251017   1.883   0.441   0.276  2.3388  0.9320  0.7518
 9868TIP3   OH251018   4.436   2.305  15.368  0.0946 -0.5116  0.3376
 9868TIP3    H151019   4.407   2.234  15.425 -0.2249  0.6382  1.6093
 9868TIP3    H251020   4.507   2.348  15.415  0.6661 -0.3198 -0.6722
 9869TIP3   OH251021   1.623   4.705  14.732  0.2286  0.3302 -0.1031
 9869TIP3    H151022   1.653   4.685  14.820 -0.2187  0.0243 -0.0231
 9869TIP3    H251023   1.528   4.700  14.736  0.1664  1.0856 -0.4154
 9870TIP3   OH251024   0.570   1.569  12.226 -0.0887  0.3751  0.1588
 9870TIP3    H151025   0.580   1.652  12.180  0.1023  0.7810  0.9199
 9870TIP3    H251026   0.519   1.591  12.304  0.3215 -0.1471  0.5766
 9871TIP3   OH251027   0.358   6.638  15.217  0.0426 -0.8628 -0.5498
 9871TIP3    H151028   0.394   6.705  15.159  2.2473 -1.6885 -0.2127
 9871TIP3    H251029   0.290   6.595  15.166  1.1856 -0.8328 -2.1337
 9872TIP3   OH251030   6.101   1.707  16.875  0.1144  0.4891 -1.4286
 9872TIP3    H151031   6.115   1.630  16.820 -1.0635 -0.4457 -0.4539
 9872TIP3    H251032   6.183   1.756  16.869  0.9420 -0.9140 -1.9542
 9873TIP3   OH251033   0.660   6.386  15.375  0.0781 -0.2364 -0.6208
 9873TIP3    H151034   0.627   6.431  15.297 -3.5608 -0.2476  0.8013
 9873TIP3    H251035   0.683   6.299  15.345 -0.1786  0.1238 -1.8966
 9874TIP3   OH251036   6.532   5.398   2.719  0.0124  0.5776  0.9607
 9874TIP3    H151037   6.489   5.312   2.723  2.4530 -0.7092  0.5657
 9874TIP3    H251038   6.583   5.394   2.638  1.8400  1.5798  2.0645
 9875TIP3   OH251039   5.143   3.082  11.954  0.1566  0.0916 -0.0961
 9875TIP3    H151040   5.059   3.046  11.926  0.1919  0.7497 -1.0849
 9875TIP3    H251041   5.197   3.006  11.971 -0.5379 -0.3381  0.2238
 9876TIP3   OH251042   1.139   5.583  16.696 -0.3035 -0.1415 -0.5473
 9876TIP3    H151043   1.171   5.502  16.658 -1.2828 -0.2035 -1.2778
 9876TIP3    H251044   1.214   5.642  16.695  0.1058 -0.6644 -1.1121
 9877TIP3   OH251045   1.680   4.535   5.663  0.2991  0.3236 -0.0791
 9877TIP3    H151046   1.614   4.604   5.666  0.2777  0.3173 -0.3559
 9877TIP3    H251047   1.666   4.485   5.743 -0.4317 -0.0493 -0.4392
 9878TIP3   OH251048   0.565   6.215   0.914  0.1121  0.1528 -0.7204
 9878TIP3    H151049   0.537   6.150   0.978  3.3378  0.6080  1.3136
 9878TIP3    H251050   0.595   6.164   0.839 -1.0178 -0.5202 -0.7123
 9879TIP3   OH251051   2.749   3.588  13.024  0.2691 -0.3711 -0.0606
 9879TIP3    H151052   2.813   3.633  13.080 -2.5111  1.2809  1.8731
 9879TIP3    H251053   2.735   3.648  12.951  0.0677 -0.2032  0.1147
 9880TIP3   OH251054   0.931   3.793  15.027 -0.2328 -0.4661  0.0195
 9880TIP3    H151055   0.863   3.782  14.960 -0.2296 -3.1474  0.4083
 9880TIP3    H251056   0.886   3.776  15.110  0.2904  0.5555  0.5267
 9881TIP3   OH251057   4.301   5.162  16.493  0.5562  0.1866  0.4958
 9881TIP3    H151058   4.393   5.142  16.512  0.9586 -3.1578 -4.0759
 9881TIP3    H251059   4.252   5.100  16.548  1.1848 -0.2722  0.5568
 9882TIP3   OH251060   2.253   6.618   3.958 -0.6544 -0.4347 -0.3452
 9882TIP3    H151061   2.200   6.539   3.952  0.0991 -0.8350 -2.0046
 9882TIP3    H251062   2.277   6.638   3.867 -0.3238  1.3468  0.1095
 9883TIP3   OH251063   1.097   3.186   5.327 -0.0917 -0.3878 -0.2524
 9883TIP3    H151064   1.076   3.269   5.284 -0.3203 -0.8009 -0.9346
 9883TIP3    H251065   1.183   3.162   5.293 -0.3280 -0.7779 -0.5706
 9884TIP3   OH251066   1.975   5.362   4.660 -0.5730 -0.0830  0.0646
 9884TIP3    H151067   1.906   5.334   4.720 -0.9598 -0.1236 -0.3891
 9884TIP3    H251068   1.930   5.372   4.576 -0.1420  0.4661 -0.1015
 9885TIP3   OH251069   3.646   4.030   2.890  0.1314  0.7283  0.0569
 9885TIP3    H151070   3.678   3.980   2.815 -0.4844 -3.7799  2.5929
 9885TIP3    H251071   3.565   4.070   2.859 -0.2071 -1.2025 -1.7082
 9886TIP3   OH251072   0.073   4.605  14.454 -0.0842  0.4675  0.2739
 9886TIP3    H151073  -0.014   4.599  14.415 -0.0694 -1.7679  0.5452
 9886TIP3    H251074   0.127   4.546  14.402  0.1255 -1.9193  3.0645
 9887TIP3   OH251075   2.028   2.821   4.891  0.1604  0.2796 -0.0658
 9887TIP3    H151076   1.989   2.735   4.873  0.4125  0.5167 -1.8415
 9887TIP3    H251077   1.957   2.871   4.929  0.9148 -1.7424  4.2857
 9888TIP3   OH251078   6.738   5.728   1.099  0.2298 -0.3435  0.4802
 9888TIP3    H151079   6.775   5.727   1.187  0.0363  0.9718  0.5790
 9888TIP3    H251080   6.696   5.813   1.091 -0.9357 -0.9797 -0.4038
 9889TIP3   OH251081   6.408   6.716   5.388  0.5499  0.4007  0.2501
 9889TIP3    H151082   6.451   6.670   5.316 -1.7564 -0.3908 -0.6621
 9889TIP3    H251083   6.407   6.652   5.459 -1.0051 -0.3557 -0.4243
 9890TIP3   OH251084   6.403   4.494   1.790 -0.0224 -0.6277 -0.4232
 9890TIP3    H151085   6.397   4.534   1.704 -0.9561  0.4746  0.1315
 9890TIP3    H251086   6.450   4.558   1.843  0.1792 -1.1125 -0.0095
 9891TIP3   OH251087   6.100   6.232  12.765 -0.0087 -0.2989 -0.1123
 9891TIP3    H151088   6.095   6.261  12.673 -0.2748  0.2787  0.0836
 9891TIP3    H251089   6.137   6.308  12.811 -0.3455 -0.4148  0.3406
 9892TIP3   OH251090   6.157   5.185  11.798 -0.1837  0.3300  0.0012
 9892TIP3    H151091   6.075   5.228  11.825  0.8043  2.5309 -0.3628
 9892TIP3    H251092   6.193   5.149  11.879 -1.2297 -0.1447  0.2624
 9893TIP3   OH251093   6.098   3.586   1.277 -0.2438 -0.0165 -0.1970
 9893TIP3    H151094   6.034   3.593   1.205 -2.1185  0.1915  1.4580
 9893TIP3    H251095   6.099   3.672   1.317  1.0162 -0.0516 -0.1578
 9894TIP3   OH251096   3.970   0.847   3.431 -0.5289  0.6283  0.1833
 9894TIP3    H151097   3.943   0.917   3.372 -0.2096  0.6431  0.0519
 9894TIP3    H251098   3.922   0.770   3.401  0.5848  0.3420 -0.8918
 9895TIP3   OH251099   4.048   5.324  16.858 -0.5654 -0.5148 -0.4526
 9895TIP3    H151100   3.987   5.316  16.785 -0.6576 -1.8613 -0.2388
 9895TIP3    H251101   4.080   5.235  16.872  0.3932 -0.0492  0.3389
 9896TIP3   OH251102   0.165   4.736  13.554 -0.5455  0.3345 -0.5540
 9896TIP3    H151103   0.209   4.657  13.587  0.0993  1.2990  0.9509
 9896TIP3    H251104   0.149   4.717  13.461 -0.3422 -1.5340 -0.2334
 9897TIP3   OH251105   3.501   1.200  15.225  0.0209  0.4269  0.3911
 9897TIP3    H151106   3.581   1.250  15.208  2.2631 -3.2450 -0.3131
 9897TIP3    H251107   3.473   1.170  15.139 -1.0584  0.0676  0.8548
 9898TIP3   OH251108   6.116   4.107  13.701  0.6684 -0.2044 -0.4236
 9898TIP3    H151109   6.060   4.053  13.757 -2.1868 -0.1219 -3.0149
 9898TIP3    H251110   6.172   4.044  13.656  0.9232 -0.5312  0.3442
 9899TIP3   OH251111   1.935   0.066  16.693  0.4624  0.3134 -0.4663
 9899TIP3    H151112   2.028   0.081  16.676  0.2586  0.0267 -1.8609
 9899TIP3    H251113   1.901   0.032  16.610 -0.6297 -0.7502  0.4121
 9900TIP3   OH251114   1.088   0.850   1.857 -0.5727  0.4297 -0.3076
 9900TIP3    H151115   1.106   0.912   1.927  1.2823 -0.3497 -0.0660
 9900TIP3    H251116   1.068   0.768   1.902  0.3372 -0.0025 -0.6829
 9901TIP3   OH251117   4.704   6.678  16.161 -0.8114 -0.5333 -0.7910
 9901TIP3    H151118   4.634   6.733  16.126 -0.5304  0.2501 -0.1696
 9901TIP3    H251119   4.770   6.676  16.092 -0.4128  0.7127 -0.4694
 9902TIP3   OH251120   2.998   2.188  14.996  0.4996  0.2192 -0.3941
 9902TIP3    H151121   3.088   2.211  14.972  0.0816  1.8305 -0.4708
 9902TIP3    H251122   2.986   2.226  15.083 -0.1636  0.1664 -0.4600
 9903TIP3   OH251123   6.619   4.058  13.420 -0.7659  0.4896  0.2561
 9903TIP3    H151124   6.571   4.117  13.362  1.6842  1.3242 -1.0010
 9903TIP3    H251125   6.680   4.115  13.467  0.6048 -0.8196  0.1083
 9904TIP3   OH251126   2.066   2.641   3.776 -0.0705  0.0893  0.1438
 9904TIP3    H151127   2.138   2.661   3.717 -0.0836  0.3951  0.2268
 9904TIP3    H251128   2.108   2.624   3.861 -0.2412  2.6962  0.7955
 9905TIP3   OH251129   5.397   6.191  13.154 -0.5997 -0.0246 -0.3658
 9905TIP3    H151130   5.347   6.189  13.236 -0.0797 -1.0725 -0.0669
 9905TIP3    H251131   5.414   6.099  13.134 -0.8659  0.2119 -1.7539
 9906TIP3   OH251132   2.613   2.825   3.255  0.2424  0.4182  0.2462
 9906TIP3    H151133   2.692   2.801   3.205  0.1691  2.2094 -0.7889
 9906TIP3    H251134   2.569   2.742   3.272  0.8536 -0.3430 -1.7346
 9907TIP3   OH251135   5.078   2.128  12.709  0.0407  0.4474  0.2265
 9907TIP3    H151136   5.081   2.089  12.796 -1.1512  1.7756  0.8820
 9907TIP3    H251137   5.115   2.216  12.721 -3.4714  2.0024  0.1923
 9908TIP3   OH251138   4.115   0.350  14.952 -0.9791 -0.1283 -0.3976
 9908TIP3    H151139   4.086   0.441  14.963 -0.7031  0.1594 -1.8807
 9908TIP3    H251140   4.211   0.356  14.947 -1.0754 -0.1838 -2.9977
 9909TIP3   OH251141   6.363   1.073  12.319 -0.2408 -0.0314 -0.4662
 9909TIP3    H151142   6.314   1.043  12.242 -2.1337 -0.9798  1.0682
 9909TIP3    H251143   6.455   1.059  12.296 -0.7561  0.1702 -2.7392
 9910TIP3   OH251144   2.350   2.868  16.451  0.1394 -0.9763 -0.0723
 9910TIP3    H151145   2.362   2.869  16.546 -0.1727 -0.6545 -0.0388
 9910TIP3    H251146   2.287   2.797  16.436  0.5039 -1.2981 -0.0756
 9911TIP3   OH251147   4.260   2.320   4.021 -0.1288 -0.1520 -0.0417
 9911TIP3    H151148   4.314   2.319   4.100 -1.2165 -1.8172  0.7113
 9911TIP3    H251149   4.206   2.241   4.028  0.9739 -1.2663 -3.3254
 9912TIP3   OH251150   6.605   2.396   6.061 -0.3854 -0.0619  0.1261
 9912TIP3    H151151   6.596   2.469   6.122 -0.2528 -0.0050  0.0780
 9912TIP3    H251152   6.527   2.342   6.076  0.0991 -0.5401  1.0073
 9913TIP3   OH251153   0.087   2.392  16.189  0.6557  0.0056  0.2735
 9913TIP3    H151154   0.006   2.442  16.177 -0.6087 -2.3157 -1.1736
 9913TIP3    H251155   0.149   2.456  16.224 -0.6061  2.8488 -2.4158
 9914TIP3   OH251156   3.977   4.933   4.035 -0.3576 -0.6185 -0.0739
 9914TIP3    H151157   4.016   4.863   3.983  0.1609 -0.5716  0.2456
 9914TIP3    H251158   4.006   4.915   4.124 -1.9286 -1.1785  0.3401
 9915TIP3   OH251159   6.600   4.683  15.444  0.2272 -0.0527  0.2531
 9915TIP3    H151160   6.644   4.609  15.484  0.3324 -0.0856  0.0791
 9915TIP3    H251161   6.596   4.750  15.513  1.6524  0.4036 -0.0893
 9916TIP3   OH251162   2.073   2.580  11.991 -0.3024 -0.1030  0.0614
 9916TIP3    H151163   2.053   2.538  12.075  0.2459 -0.6993 -0.1034
 9916TIP3    H251164   2.168   2.585  11.988 -0.2536 -1.4246 -1.1594
 9917TIP3   OH251165   4.406   5.324  14.807  0.0406  0.7370 -0.7374
 9917TIP3    H151166   4.459   5.278  14.871 -1.5685 -0.1431 -0.0072
 9917TIP3    H251167   4.426   5.282  14.723 -0.7384 -0.6945 -0.2147
 9918TIP3   OH251168   3.341   6.492   2.556  0.9861 -0.0366 -0.3239
 9918TIP3    H151169   3.334   6.534   2.470  3.5906 -0.0919 -0.6053
 9918TIP3    H251170   3.376   6.404   2.537  2.2259  0.1882  0.8113
 9919TIP3   OH251171   2.425   6.431   5.329 -0.0845 -0.4390 -0.5127
 9919TIP3    H151172   2.504   6.402   5.374  0.6515 -0.5347 -1.8540
 9919TIP3    H251173   2.362   6.445   5.400  1.0692 -0.5127  0.5587
 9920TIP3   OH251174   2.850   4.426   1.896  0.2493  0.1537  0.4421
 9920TIP3    H151175   2.891   4.506   1.862 -0.0062 -0.1252 -0.5380
 9920TIP3    H251176   2.793   4.397   1.825 -0.3541 -0.3978  1.1532
 9921TIP3   OH251177   2.401   6.065  14.083  0.1167  0.7039 -0.2428
 9921TIP3    H151178   2.379   6.135  14.021 -1.0137 -1.5372 -2.4402
 9921TIP3    H251179   2.433   5.993  14.029 -0.8518 -1.2982  1.7405
 9922TIP3   OH251180   1.285   3.051  16.567  0.0962 -0.0815  0.2158
 9922TIP3    H151181   1.343   3.063  16.492  1.4514 -0.8290  1.1231
 9922TIP3    H251182   1.234   3.133  16.572  0.1571  0.0615 -1.3564
 9923TIP3   OH251183   5.434   5.021  16.487 -0.3786 -0.7672  0.0635
 9923TIP3    H151184   5.389   5.091  16.440 -0.6289 -0.9987 -0.0471
 9923TIP3    H251185   5.381   4.943  16.470 -0.7440 -0.7551  1.1425
 9924TIP3   OH251186   4.020   3.456   2.790  0.0126  0.1072  0.0115
 9924TIP3    H151187   3.938   3.408   2.783 -0.5117  1.0304 -0.2259
 9924TIP3    H251188   4.016   3.500   2.875 -2.0484  4.3257 -2.1269
 9925TIP3   OH251189   5.056   2.112  14.252 -0.5219  0.9244 -0.1420
 9925TIP3    H151190   5.087   2.203  14.259  0.5991  0.6542 -1.2481
 9925TIP3    H251191   5.022   2.106  14.162 -1.0065  0.3672  0.0753
 9926TIP3   OH251192   2.442   2.142  14.745  0.1145 -0.4842 -0.5191
 9926TIP3    H151193   2.410   2.114  14.831 -0.5198 -0.3794 -0.7178
 9926TIP3    H251194   2.536   2.125  14.747  0.4189  1.2914  0.8884
 9927TIP3   OH251195   1.446   2.532   0.894  0.7504  0.0374  0.2312
 9927TIP3    H151196   1.408   2.604   0.844  0.6957  0.8412  1.3937
 9927TIP3    H251197   1.393   2.529   0.974  1.3604 -0.6659  0.6151
 9928TIP3   OH251198   6.380   3.645  13.245 -0.5362  0.0917 -0.1626
 9928TIP3    H151199   6.403   3.730  13.209 -0.0550  0.0332  0.0103
 9928TIP3    H251200   6.463   3.607  13.272 -0.6424 -0.7962 -1.0398
 9929TIP3   OH251201   3.660   1.113   3.902 -0.4118 -0.0845  0.6928
 9929TIP3    H151202   3.745   1.137   3.940  0.1353 -0.3957 -0.3308
 9929TIP3    H251203   3.602   1.104   3.978  0.0057  1.9184  1.2810
 9930TIP3   OH251204   5.064   1.048  11.410 -0.4538  0.1163  0.0194
 9930TIP3    H151205   5.100   1.045  11.322  1.0117  1.2827  0.5539
 9930TIP3    H251206   5.090   0.964  11.449 -1.4772 -0.5837 -0.7817
 9931TIP3   OH251207   1.030   4.533  13.977 -0.0824  0.2767 -0.4102
 9931TIP3    H151208   1.066   4.527  14.065 -1.4725  0.8095  0.2082
 9931TIP3    H251209   1.064   4.456  13.932  0.7182  0.0590  0.5615
 9932TIP3   OH251210   2.176   2.927   3.451 -0.5188  0.1207  0.2592
 9932TIP3    H151211   2.112   2.981   3.405 -1.3032 -1.6431 -0.7603
 9932TIP3    H251212   2.173   2.958   3.542  2.0398  4.5972 -1.0193
 9933TIP3   OH251213   0.028   1.520  15.529  0.0102 -0.1606 -0.4037
 9933TIP3    H151214   0.006   1.577  15.603 -0.3401 -2.4589  1.3034
 9933TIP3    H251215   0.075   1.577  15.468 -1.2517  2.2156  0.7591
 9934TIP3   OH251216   4.051   4.106   2.971  0.0408  0.4551  0.1697
 9934TIP3    H151217   3.970   4.107   3.021 -0.5320  2.3936 -0.7278
 9934TIP3    H251218   4.075   4.014   2.965 -0.4709  0.1118  3.0019
 9935TIP3   OH251219   2.555   2.925   5.094 -0.2421 -0.1760 -1.1823
 9935TIP3    H151220   2.461   2.942   5.091 -0.3734 -0.8064 -0.6913
 9935TIP3    H251221   2.577   2.897   5.005 -0.5748 -0.3045 -1.2251
 9936TIP3   OH251222   4.500   3.484  16.711  0.2262 -0.1625  0.3023
 9936TIP3    H151223   4.424   3.435  16.743 -2.8065  2.3937 -2.6264
 9936TIP3    H251224   4.497   3.473  16.616  1.9139  2.2715 -0.0623
 9937TIP3   OH251225   5.522   1.368  12.945  0.1072  0.3535  0.4474
 9937TIP3    H151226   5.469   1.291  12.924  2.6316 -1.3160 -0.1867
 9937TIP3    H251227   5.603   1.355  12.894  0.5061  3.5697  0.1445
 9938TIP3   OH251228   4.005   2.419  14.071 -0.4303 -0.0208  1.0667
 9938TIP3    H151229   3.976   2.350  14.012 -1.0534  1.5031 -0.4445
 9938TIP3    H251230   4.097   2.398  14.089 -0.3679 -0.7521 -0.0531
 9939TIP3   OH251231   6.048   3.170  15.985 -0.0586 -0.0168  0.7545
 9939TIP3    H151232   6.067   3.169  16.079  1.3402 -0.3980  0.4785
 9939TIP3    H251233   5.989   3.095  15.973 -0.5165  0.2372  1.3834
 9940TIP3   OH251234   5.667   4.411   2.954 -0.6041  0.4872 -0.3471
 9940TIP3    H151235   5.759   4.437   2.957 -0.0975 -1.3630  2.0996
 9940TIP3    H251236   5.665   4.333   2.899 -0.6169  0.2609 -0.0293
 9941TIP3   OH251237   1.572   6.436  15.522  0.0936 -0.5342  0.0288
 9941TIP3    H151238   1.548   6.484  15.443 -1.8029 -0.5258  0.5904
 9941TIP3    H251239   1.542   6.493  15.594  1.0983 -0.8946  0.7453
 9942TIP3   OH251240   6.434   6.406  13.426  0.5258  0.6662  0.3325
 9942TIP3    H151241   6.348   6.373  13.452  0.5134 -0.8873 -1.5265
 9942TIP3    H251242   6.495   6.367  13.488  0.2442 -1.0456 -0.4444
 9943TIP3   OH251243   6.062   6.462   0.799 -0.0416  0.2352  0.2831
 9943TIP3    H151244   6.037   6.387   0.853 -1.7246  1.3895  1.1626
 9943TIP3    H251245   6.018   6.447   0.716  0.6844 -0.3882  0.0027
 9944TIP3   OH251246   5.257   6.275  14.758  0.2639 -0.1216 -0.0111
 9944TIP3    H151247   5.312   6.353  14.771  1.0625 -0.9365  1.7045
 9944TIP3    H251248   5.216   6.289  14.673  1.6289  1.4295 -0.4529
 9945TIP3   OH251249   0.472   3.361   3.747  0.0135 -0.4677  0.6030
 9945TIP3    H151250   0.534   3.319   3.688 -0.1221  0.6870 -0.3682
 9945TIP3    H251251   0.398   3.386   3.692  0.0278  0.9193  1.1739
 9946TIP3   OH251252   1.950   3.405   5.270 -0.0937 -0.4862 -0.5528
 9946TIP3    H151253   1.954   3.481   5.213  1.5964 -1.5501 -1.9296
 9946TIP3    H251254   1.937   3.441   5.358 -0.1681  1.3206 -1.2876
 9947TIP3   OH251255   4.293   0.590   2.011 -0.2233 -0.3620  0.3909
 9947TIP3    H151256   4.198   0.582   1.997 -0.3069 -0.3539  0.9302
 9947TIP3    H251257   4.301   0.630   2.098  0.2815 -0.6949  0.4976
 9948TIP3   OH251258   6.356   5.684  13.246  0.1590  0.4032 -0.0757
 9948TIP3    H151259   6.335   5.673  13.154 -0.6047  0.6656  0.0630
 9948TIP3    H251260   6.283   5.734  13.282  0.3306  0.0973  0.7224
 9949TIP3   OH251261   5.203   3.430   1.416 -0.7065  0.2294  0.0001
 9949TIP3    H151262   5.128   3.436   1.356  0.1287  1.3446 -0.9428
 9949TIP3    H251263   5.280   3.433   1.358  0.0640 -2.4953  0.8134
 9950TIP3   OH251264   0.704   5.563  12.769 -0.2273  0.3710  0.4373
 9950TIP3    H151265   0.721   5.555  12.863  0.3657  1.2285  0.4092
 9950TIP3    H251266   0.675   5.653  12.757  1.5548  0.8447 -0.4792
 9951TIP3   OH251267   0.216   4.720   5.730  0.4081 -0.4448  0.1582
 9951TIP3    H151268   0.217   4.715   5.826  1.1164 -1.4581  0.0989
 9951TIP3    H251269   0.212   4.629   5.701  2.7429 -0.2533 -0.8191
 9952TIP3   OH251270   2.277   5.044   5.811  0.3331  0.0545  0.2999
 9952TIP3    H151271   2.256   5.003   5.727 -4.5769  0.7864  1.0292
 9952TIP3    H251272   2.280   5.138   5.792 -0.0336  0.1656  0.7901
 9953TIP3   OH251273   2.565   1.357   6.115  0.0944  0.5560  0.0471
 9953TIP3    H151274   2.650   1.386   6.083  0.6377 -0.7204  0.2883
 9953TIP3    H251275   2.561   1.390   6.205  0.3691  0.5626  0.0588
 9954TIP3   OH251276   4.146   5.751   1.775  0.0308 -0.0629 -0.4083
 9954TIP3    H151277   4.178   5.826   1.825 -0.6646  0.3533 -0.5935
 9954TIP3    H251278   4.085   5.707   1.834  0.0045 -0.1616 -0.5097
 9955TIP3   OH251279   3.603   5.217   3.896  0.2193  0.8442 -0.1070
 9955TIP3    H151280   3.599   5.231   3.801  1.4320 -2.4202 -0.6885
 9955TIP3    H251281   3.664   5.284   3.927  0.6665  1.2339 -1.7846
 9956TIP3   OH251282   1.801   5.324  10.844 -0.4373  0.2277  0.4072
 9956TIP3    H151283   1.745   5.259  10.802  0.7203 -0.4164 -0.1880
 9956TIP3    H251284   1.846   5.368  10.771  0.7937 -0.1625  0.9077
 9957TIP3   OH251285   3.403   1.691   3.351 -0.3679 -0.0386  0.0693
 9957TIP3    H151286   3.479   1.746   3.371 -0.9529  0.2452  1.5397
 9957TIP3    H251287   3.361   1.735   3.277  1.7249 -1.0081 -1.7589
 9958TIP3   OH251288   6.441   1.444  15.149  0.6661  0.1998  0.0850
 9958TIP3    H151289   6.432   1.349  15.140  0.2658  0.3877 -1.6932
 9958TIP3    H251290   6.350   1.476  15.152  0.7893  0.6710 -1.0643
 9959TIP3   OH251291   4.498   2.656   0.151 -0.0784 -0.6521 -0.3131
 9959TIP3    H151292   4.507   2.722   0.219  0.7821 -0.2592 -0.7935
 9959TIP3    H251293   4.437   2.592   0.187  0.3502 -0.4342  0.8018
 9960TIP3   OH251294   5.648   4.363   5.914  0.3884  0.9951 -0.7020
 9960TIP3    H151295   5.636   4.302   5.841 -1.0678  0.6398 -0.1874
 9960TIP3    H251296   5.655   4.448   5.872 -0.0115  0.7477 -1.2892
 9961TIP3   OH251297   4.717   0.316   2.745  0.0849 -0.5001 -0.8326
 9961TIP3    H151298   4.759   0.274   2.669  0.2292 -1.6489 -0.1411
 9961TIP3    H251299   4.751   0.405   2.745  2.8567 -1.4992 -0.0860
 9962TIP3   OH251300   4.853   0.254   3.438  0.1950  0.1881  0.1231
 9962TIP3    H151301   4.780   0.201   3.407 -0.7457  2.5677 -1.9460
 9962TIP3    H251302   4.908   0.193   3.487 -2.1826 -2.0696  0.0969
 9963TIP3   OH251303   1.262   4.449  11.418  0.0512 -0.0908  0.4319
 9963TIP3    H151304   1.182   4.456  11.367  0.6707  0.7351 -0.4462
 9963TIP3    H251305   1.233   4.421  11.505 -0.9808 -1.7811 -0.4436
 9964TIP3   OH251306   5.280   5.364   0.463  0.3696  0.5885  0.5742
 9964TIP3    H151307   5.342   5.310   0.512  1.3826  1.8921  0.7505
 9964TIP3    H251308   5.245   5.305   0.396  1.0659 -0.4351  1.1010
 9965TIP3   OH251309   1.435   0.326   1.567  0.5413 -0.3213 -0.1676
 9965TIP3    H151310   1.455   0.301   1.477  0.0815 -1.8748  0.1418
 9965TIP3    H251311   1.502   0.282   1.619 -0.5361 -1.2960  0.4247
 9966TIP3   OH251312   5.073   0.758  11.112 -0.0264 -0.0170  0.0601
 9966TIP3    H151313   5.135   0.692  11.143  1.7287  1.1546 -0.9119
 9966TIP3    H251314   5.054   0.732  11.022 -0.6522 -0.1550  0.2314
 9967TIP3   OH251315   0.700   2.969  13.887 -0.0370  0.2811 -0.2399
 9967TIP3    H151316   0.768   2.955  13.820  0.7679 -1.0458  0.8192
 9967TIP3    H251317   0.651   2.887  13.888  0.0551  0.2332  0.8851
 9968TIP3   OH251318   2.174   5.568   1.032 -0.0352  0.4091  0.4145
 9968TIP3    H151319   2.079   5.579   1.025 -0.1438 -0.7753 -0.1027
 9968TIP3    H251320   2.185   5.482   1.073  0.8252 -0.1662 -0.9954
 9969TIP3   OH251321   0.192   2.287  11.062 -0.0161  0.1400 -0.8083
 9969TIP3    H151322   0.227   2.241  11.139 -1.0304  1.6492  0.6032
 9969TIP3    H251323   0.268   2.325  11.019  0.6414 -1.3533 -0.9814
 9970TIP3   OH251324   1.944   6.071   5.189 -0.3350 -0.4149 -0.0780
 9970TIP3    H151325   1.934   6.134   5.118 -1.4414  0.1494  0.5581
 9970TIP3    H251326   2.023   6.099   5.235 -0.5277  0.2103 -0.1158
 9971TIP3   OH251327   3.528   6.106  16.483  0.4668 -0.2752  0.5415
 9971TIP3    H151328   3.510   6.021  16.443 -1.1638  1.3410 -2.3309
 9971TIP3    H251329   3.484   6.102  16.568  0.0535 -2.1143  0.2678
 9972TIP3   OH251330   5.738   6.129   5.095  0.0399 -0.3182 -0.7078
 9972TIP3    H151331   5.752   6.161   5.184 -0.3207  0.3760 -0.8925
 9972TIP3    H251332   5.818   6.153   5.048  1.1728 -2.6885 -0.0305
 9973TIP3   OH251333   0.362   2.402   1.126  0.6559  0.0964  0.2725
 9973TIP3    H151334   0.268   2.407   1.107  0.6062 -0.0817  0.4685
 9973TIP3    H251335   0.379   2.475   1.186  0.3963 -0.6171  1.2344
 9974TIP3   OH251336   1.301   0.696   1.444 -0.0621 -0.2542 -0.2757
 9974TIP3    H151337   1.385   0.658   1.417 -0.7475 -0.7617 -1.7272
 9974TIP3    H251338   1.304   0.693   1.540  1.4289 -0.5911 -0.3151
 9975TIP3   OH251339   3.759   5.027   5.563  0.0095  0.7430  0.2499
 9975TIP3    H151340   3.727   4.939   5.582  0.6150  0.8119  1.6731
 9975TIP3    H251341   3.701   5.084   5.614  0.3951  1.0754  0.3175
 9976TIP3   OH251342   0.066   0.961   4.367  0.2424 -0.1722 -0.6205
 9976TIP3    H151343   0.056   0.986   4.459 -0.7835 -2.8807  0.0365
 9976TIP3    H251344   0.136   1.018   4.334  1.4703 -0.0043  2.1765
 9977TIP3   OH251345   2.394   2.976  14.278  0.3863 -0.0347  0.6604
 9977TIP3    H151346   2.489   2.961  14.277  0.2549 -1.0354 -2.3436
 9977TIP3    H251347   2.379   3.038  14.206 -1.0646  1.5961  2.2915
 9978TIP3   OH251348   5.796   5.412   3.584 -0.1437 -1.0674  0.2351
 9978TIP3    H151349   5.813   5.474   3.513  0.7519  0.6560  1.9158
 9978TIP3    H251350   5.715   5.443   3.624  0.3185 -0.9556  1.0925
 9979TIP3   OH251351   2.991   4.176   3.618  0.8863  0.1863  0.4133
 9979TIP3    H151352   3.077   4.213   3.597  0.8656  0.0941  0.1686
 9979TIP3    H251353   2.931   4.218   3.557  1.1422 -1.5937 -1.1125
 9980TIP3   OH251354   2.109   0.057  12.813  0.2139 -0.4506  0.2563
 9980TIP3    H151355   2.141  -0.017  12.865 -0.4078 -0.0946  1.1672
 9980TIP3    H251356   2.058   0.110  12.875 -1.4777 -0.5963 -0.9566
 9981TIP3   OH251357   2.413   0.386   4.597 -0.4597  0.2135  0.4335
 9981TIP3    H151358   2.493   0.356   4.638  0.3581  0.9661 -0.5766
 9981TIP3    H251359   2.344   0.329   4.633  0.5034 -0.3774  1.3607
 9982TIP3   OH251360   5.161   2.277  15.140 -0.1896 -0.0686  0.0253
 9982TIP3    H151361   5.211   2.320  15.070  0.6474 -2.7027 -1.0542
 9982TIP3    H251362   5.101   2.218  15.094 -1.5572  0.1677  1.4620
 9983TIP3   OH251363   3.150   2.746  11.774  0.4194  0.1476  0.1302
 9983TIP3    H151364   3.095   2.675  11.808 -0.8981  0.9767 -0.2232
 9983TIP3    H251365   3.113   2.766  11.688  1.4336  0.5511 -0.2105
 9984TIP3   OH251366   4.279   3.894   6.367  0.8062 -0.0389 -0.3286
 9984TIP3    H151367   4.293   3.816   6.421  0.9504 -0.5993 -1.1763
 9984TIP3    H251368   4.352   3.952   6.390 -0.1561  0.5133  1.4685
 9985TIP3   OH251369   2.071   4.315   0.177 -0.0508  0.1227  0.0757
 9985TIP3    H151370   2.092   4.260   0.252  0.1357 -0.6579 -0.5517
 9985TIP3    H251371   2.145   4.375   0.169  0.4416 -0.5176 -0.1611
 9986TIP3   OH251372   4.545   6.655   4.894 -0.1533 -0.4106 -0.1548
 9986TIP3    H151373   4.546   6.565   4.861  2.7116 -1.0942  1.6179
 9986TIP3    H251374   4.515   6.647   4.985  0.5084  0.3726  0.1381
 9987TIP3   OH251375   3.492   4.643  16.724  0.1457 -0.1397 -0.4594
 9987TIP3    H151376   3.491   4.732  16.759 -0.7401 -0.3947  0.1814
 9987TIP3    H251377   3.527   4.652  16.635 -0.0319  0.8549 -0.4325
 9988TIP3   OH251378   4.497   2.868   5.993 -0.6083  0.0692  0.0173
 9988TIP3    H151379   4.583   2.906   5.976 -0.7820  0.7087  0.5651
 9988TIP3    H251380   4.474   2.824   5.911 -0.9779  2.2388 -1.0677
 9989TIP3   OH251381   5.785   3.366  12.616 -0.1323 -0.0341  0.8482
 9989TIP3    H151382   5.720   3.315  12.567  0.5553  1.3908 -1.6204
 9989TIP3    H251383   5.738   3.397  12.693 -2.4066  0.9811 -0.8907
 9990TIP3   OH251384   0.168   4.503  17.201 -0.2645 -0.0337  0.0657
 9990TIP3    H151385   0.151   4.547  17.285  0.6410 -0.4676  0.4840
 9990TIP3    H251386   0.260   4.475  17.207  0.0678  0.7038 -1.4241
 9991TIP3   OH251387   5.165   5.594  12.541  0.2576  0.3147  0.4387
 9991TIP3    H151388   5.244   5.583  12.594 -0.1363 -0.4197  0.8852
 9991TIP3    H251389   5.138   5.505  12.519 -0.0177  0.5943 -0.3556
 9992TIP3   OH251390   5.994   4.928   5.282  0.5338 -0.3123 -0.1303
 9992TIP3    H151391   6.051   4.926   5.205 -0.0075 -0.6205 -0.5237
 9992TIP3    H251392   5.992   4.837   5.312  0.7852 -0.1840  0.2825
 9993TIP3   OH251393   1.775   3.596  11.305  0.4996 -0.2768 -0.1583
 9993TIP3    H151394   1.766   3.675  11.251  0.8048 -1.3391 -1.8141
 9993TIP3    H251395   1.712   3.608  11.376  0.1406  1.2078 -0.7061
 9994TIP3   OH251396   6.308   6.009   3.846 -0.0596  0.1718  0.0014
 9994TIP3    H151397   6.242   6.063   3.888 -1.6568 -0.0842 -2.1194
 9994TIP3    H251398   6.276   5.995   3.758  0.7627 -3.4511  0.1803
 9995TIP3   OH251399   6.039   3.878   5.418 -0.1262 -0.2812  0.3710
 9995TIP3    H151400   5.991   3.849   5.496  1.9744  0.1877  1.8925
 9995TIP3    H251401   6.017   3.971   5.410  0.1921 -0.1635  0.8243
 9996TIP3   OH251402   4.197   4.551   3.580  0.1401 -0.1224  0.3765
 9996TIP3    H151403   4.260   4.601   3.632  0.1347 -0.2909  0.5424
 9996TIP3    H251404   4.153   4.494   3.643 -0.4211  0.2442  0.3180
 9997TIP3   OH251405   0.418   3.773  11.669 -0.1173  0.3497 -0.2173
 9997TIP3    H151406   0.367   3.786  11.589  1.2597  2.6234 -0.7720
 9997TIP3    H251407   0.429   3.678  11.675 -0.5671  0.1065 -2.5323
 9998TIP3   OH251408   1.838   5.216   4.866 -0.5997 -0.1999  0.0131
 9998TIP3    H151409   1.753   5.173   4.872  0.2393 -1.8478  0.4971
 9998TIP3    H251410   1.837   5.281   4.936 -0.7268 -1.5733  1.3204
 9999TIP3   OH251411   1.261   1.588   6.595 -0.7353  0.5108  0.2911
 9999TIP3    H151412   1.307   1.625   6.670 -1.5885 -0.0157  1.0815
 9999TIP3    H251413   1.280   1.648   6.523  3.6656 -1.2496 -0.1826
10000TIP3   OH251414   5.676   4.200   1.849 -0.7162  0.4958  0.1209
10000TIP3    H151415   5.672   4.296   1.846 -0.5497  0.5188  0.6347
10000TIP3    H251416   5.713   4.180   1.935 -0.0488 -0.0154 -0.2851
10001TIP3   OH251417   5.886   2.011  13.880 -0.5320  0.0590  0.1714
10001TIP3    H151418   5.966   2.062  13.865 -0.6959 -0.0560 -1.1211
10001TIP3    H251419   5.907   1.924  13.845 -0.3640 -0.6835  2.0700
10002TIP3   OH251420   4.808   2.567   2.604 -0.0822 -0.1849 -0.6943
10002TIP3    H151421   4.832   2.492   2.659 -1.9188 -0.8730 -0.8167
10002TIP3    H251422   4.714   2.579   2.618 -0.1200  1.1138 -1.8921
10003TIP3   OH251423   3.857   3.209   0.342 -0.0176  0.1741  0.0432
10003TIP3    H151424   3.910   3.167   0.274  0.8296 -0.5919  1.1369
10003TIP3    H251425   3.838   3.137   0.403  1.1390  1.2887  1.7600
10004TIP3   OH251426   1.355   3.358  13.808  0.9698  0.7659 -0.0986
10004TIP3    H151427   1.281   3.418  13.804  0.0325 -0.2847  1.1395
10004TIP3    H251428   1.394   3.363  13.720 -1.0952  0.6703 -1.0464
10005TIP3   OH251429   6.519   0.896  14.005  0.7916  0.1863 -0.1670
10005TIP3    H151430   6.545   0.865  14.092  1.7119 -1.1663 -0.8960
10005TIP3    H251431   6.474   0.979  14.021 -0.7162 -0.9739  1.7558
10006TIP3   OH251432   3.348   4.925   0.365 -0.2272  0.1765  0.4868
10006TIP3    H151433   3.398   4.865   0.421  1.2653 -0.0642 -1.0810
10006TIP3    H251434   3.303   4.867   0.303 -1.0799  0.5181  0.7664
10007TIP3   OH251435   3.226   5.467   3.643 -0.2262 -0.7685 -0.4241
10007TIP3    H151436   3.292   5.401   3.663  0.2017 -0.5445 -1.0738
10007TIP3    H251437   3.258   5.509   3.562  0.7014  1.7734  1.1942
10008TIP3   OH251438   4.984   4.086  13.270 -0.1441  0.4057 -0.4315
10008TIP3    H151439   5.072   4.056  13.293 -0.9917 -0.7857  1.4225
10008TIP3    H251440   4.959   4.143  13.343 -2.5349 -2.6809  1.2853
10009TIP3   OH251441   1.477   1.902   5.010  0.3586 -0.2816 -0.4528
10009TIP3    H151442   1.478   1.989   5.049  0.0412 -0.2683 -0.4725
10009TIP3    H251443   1.482   1.918   4.916 -1.1510 -0.2260 -0.5368
10010TIP3   OH251444   5.183   2.326  11.263  0.1350 -0.3189  0.1392
10010TIP3    H151445   5.258   2.267  11.270  0.1396 -0.9018 -3.8227
10010TIP3    H251446   5.115   2.274  11.220 -1.5122  1.1421  0.8835
10011TIP3   OH251447   2.934   5.956   2.862  0.6918 -0.1158  0.0469
10011TIP3    H151448   2.900   6.027   2.808  3.6907 -0.0700 -1.9051
10011TIP3    H251449   2.993   5.998   2.923 -1.1801 -0.4104  2.1056
10012TIP3   OH251450   5.328   5.299  10.972 -0.9126 -0.5323  0.2475
10012TIP3    H151451   5.267   5.339  10.911 -0.9243  1.1076  1.3180
10012TIP3    H251452   5.308   5.205  10.969  0.2662 -0.7312 -3.5710
10013TIP3   OH251453   4.815   1.660   0.943 -0.6650  0.7274 -0.1065
10013TIP3    H151454   4.873   1.635   0.871  0.2736  1.1350  0.4996
10013TIP3    H251455   4.763   1.582   0.960  2.3320 -0.9451  1.8673
10014TIP3   OH251456   2.392   0.215  16.100  0.2685  0.3458 -0.0032
10014TIP3    H151457   2.416   0.307  16.084  0.9407  0.5542  2.1522
10014TIP3    H251458   2.302   0.220  16.133 -0.0238  0.1392 -0.7492
10015TIP3   OH251459   1.028   5.372   5.429  0.2661  0.8178  0.6859
10015TIP3    H151460   1.074   5.407   5.505 -1.6779  2.9583  0.9370
10015TIP3    H251461   0.970   5.305   5.465  1.3904 -0.1870  0.6765
10016TIP3   OH251462   5.677   1.249  14.161 -0.0051  0.2038  0.4806
10016TIP3    H151463   5.655   1.328  14.211  0.0905  0.6689 -0.2153
10016TIP3    H251464   5.749   1.275  14.105  0.7702 -0.6900  1.0562
10017TIP3   OH251465   5.604   5.301  11.066  0.2136  0.6518 -0.0539
10017TIP3    H151466   5.519   5.296  11.022 -0.4235 -0.0841  1.2487
10017TIP3    H251467   5.664   5.253  11.008 -0.9814 -1.8456  0.7007
10018TIP3   OH251468   6.042   6.063  11.998 -0.9454 -0.6622  0.2300
10018TIP3    H151469   5.993   5.991  11.958 -1.6324 -1.8439  3.0890
10018TIP3    H251470   6.132   6.052  11.966 -1.6481 -0.9677 -1.7110
10019TIP3   OH251471   2.305   4.173   1.309  0.8353  0.1042  0.2405
10019TIP3    H151472   2.394   4.151   1.281  0.6565  1.1376 -1.1797
10019TIP3    H251473   2.299   4.268   1.296 -0.6903 -0.0645 -0.3384
10020TIP3   OH251474   3.549   0.097  13.634  0.0802 -0.3445 -0.1465
10020TIP3    H151475   3.638   0.103  13.667 -0.7874  0.2180  2.1699
10020TIP3    H251476   3.557   0.048  13.552  2.6752  0.9260 -0.7080
10021TIP3   OH251477   2.414   5.492  14.380 -0.2090  0.1638  0.4917
10021TIP3    H151478   2.395   5.580  14.410  2.4456 -0.2631  3.7525
10021TIP3    H251479   2.496   5.500  14.332  0.2388 -0.5432  1.1101
10022TIP3   OH251480   1.355   4.171  11.483 -0.2119  0.3996 -0.0669
10022TIP3    H151481   1.389   4.106  11.422  1.7467  2.1384 -0.8971
10022TIP3    H251482   1.313   4.237  11.427 -0.9738  0.5401  0.6623
10023TIP3   OH251483   1.946   4.024   1.969  0.2433 -0.6560 -0.2391
10023TIP3    H151484   1.967   3.989   1.883  2.4647 -0.4442  0.1924
10023TIP3    H251485   1.937   3.948   2.025 -2.7995 -0.8853 -0.9533
10024TIP3   OH251486   5.783   5.011  16.775 -0.0007  0.1445  0.3636
10024TIP3    H151487   5.727   4.933  16.776 -1.2329  1.0315  1.0827
10024TIP3    H251488   5.755   5.059  16.697 -0.6168  0.8493  1.0112
10025TIP3   OH251489   5.781   0.668  11.845  0.3510  0.2468 -0.4541
10025TIP3    H151490   5.726   0.696  11.918  0.9376 -1.0693  0.4915
10025TIP3    H251491   5.838   0.601  11.881  0.9968 -0.0622 -2.0005
10026TIP3   OH251492   1.131   6.358   3.042 -0.3744  0.5861 -0.1779
10026TIP3    H151493   1.090   6.442   3.058 -0.6744  0.5915 -0.9349
10026TIP3    H251494   1.207   6.379   2.987  0.0813  0.4658  0.3991
10027TIP3   OH251495   4.424   2.442  13.639  0.0570  0.0385  0.0446
10027TIP3    H151496   4.342   2.453  13.591 -0.8118 -0.2586  1.4441
10027TIP3    H251497   4.477   2.518  13.615  0.1330 -0.7128 -2.3402
10028TIP3   OH251498   5.922   0.969   1.548  0.4664 -0.7250 -0.1335
10028TIP3    H151499   5.853   1.035   1.557  0.5354 -0.5746 -0.7422
10028TIP3    H251500   6.003   1.019   1.556  0.5241 -0.6515 -1.2342
10029TIP3   OH251501   4.459   2.952  13.520 -0.3326  0.0959 -0.3916
10029TIP3    H151502   4.409   2.968  13.440 -0.1880  0.0426 -0.4927
10029TIP3    H251503   4.545   2.990  13.501 -0.8395  1.6871  0.3869
10030TIP3   OH251504   1.020   3.670   5.401  0.0423 -0.4407  0.1734
10030TIP3    H151505   1.020   3.766   5.402  1.2010 -0.4149 -0.5065
10030TIP3    H251506   1.060   3.648   5.316  1.7314 -1.5038  1.2199
10031TIP3   OH251507   0.830   6.096  16.201 -0.0318  0.1116 -0.2524
10031TIP3    H151508   0.735   6.106  16.201  0.0018  0.5064 -1.8810
10031TIP3    H251509   0.861   6.162  16.139  1.5376  1.9923  2.3947
10032TIP3   OH251510   3.018   4.535   5.599  0.0302  0.2000  0.1918
10032TIP3    H151511   3.057   4.463   5.548  0.6990  1.0986 -0.5939
10032TIP3    H251512   2.936   4.499   5.632 -1.1918  0.0507 -2.8113
10033TIP3   OH251513   2.309   6.676  12.514  0.5310 -0.0656 -0.1154
10033TIP3    H151514   2.286   6.764  12.545  1.8382 -0.9894  3.8687
10033TIP3    H251515   2.226   6.638  12.486 -0.3736  1.7357  0.0291
10034TIP3   OH251516   2.795   6.036  13.794 -0.2070 -0.0405  0.0950
10034TIP3    H151517   2.748   6.071  13.719  0.9416  2.9065  0.6693
10034TIP3    H251518   2.870   5.989  13.756  0.2335  1.2241 -0.6209
10035TIP3   OH251519   6.319   0.265  16.231 -1.2325  0.0710  0.1058
10035TIP3    H151520   6.225   0.274  16.245 -1.5279 -1.1807 -0.9788
10035TIP3    H251521   6.343   0.184  16.276 -0.8727 -0.1722 -0.5245
10036TIP3   OH251522   5.548   4.754  14.005 -0.5045  0.2805 -0.3105
10036TIP3    H151523   5.518   4.845  14.003  1.3161  0.9069  0.3115
10036TIP3    H251524   5.531   4.726  14.095 -0.9951  0.0295 -0.4820
10037TIP3   OH251525   5.396   0.347  11.872  0.6128 -0.0669 -0.0533
10037TIP3    H151526   5.457   0.275  11.856  1.0023  0.2761 -0.1517
10037TIP3    H251527   5.311   0.305  11.886  0.7282 -0.5093 -0.6641
10038TIP3   OH251528   6.586   0.398   5.164  0.1955 -0.4355 -0.8170
10038TIP3    H151529   6.604   0.333   5.231  0.0170  0.5986  0.2656
10038TIP3    H251530   6.490   0.403   5.160  0.2073  0.1458 -0.4954
10039TIP3   OH251531   3.406   3.000   3.830  0.3025 -0.4190  0.1987
10039TIP3    H151532   3.439   3.088   3.814  0.6586 -1.0781 -2.9881
10039TIP3    H251533   3.312   3.006   3.815  0.0173 -0.1670  1.9808
10040TIP3   OH251534   5.193   4.840  10.348 -0.4054 -0.2045 -0.1436
10040TIP3    H151535   5.119   4.864  10.292 -0.3347  1.5921  0.5122
10040TIP3    H251536   5.153   4.828  10.435  0.1119  1.1504  0.2943
10041TIP3   OH251537   6.622   3.285  10.803 -0.1555  0.0074 -0.2687
10041TIP3    H151538   6.711   3.251  10.795  0.8966  2.4249  0.4195
10041TIP3    H251539   6.601   3.319  10.716 -0.3953 -0.5321 -0.4215
10042TIP3   OH251540   5.695   5.362  13.985  0.1166 -0.9632 -0.3759
10042TIP3    H151541   5.636   5.394  14.053  0.7010 -0.8570  0.0796
10042TIP3    H251542   5.639   5.354  13.907 -0.7355 -1.8992  0.3249
10043TIP3   OH251543   5.008   3.278   2.763  0.5064  0.0739 -0.5173
10043TIP3    H151544   5.001   3.374   2.759 -0.3966 -0.0214 -1.7262
10043TIP3    H251545   4.933   3.251   2.815  0.2179 -0.0239 -0.9770
10044TIP3   OH251546   5.285   0.085   1.420 -0.4302  0.3017  0.1696
10044TIP3    H151547   5.248   0.009   1.464  0.3632 -0.1889 -0.0175
10044TIP3    H251548   5.252   0.160   1.471  0.1221 -0.2357  1.3243
10045TIP3   OH251549   2.421   2.323  14.555 -0.2537 -0.0568  0.3395
10045TIP3    H151550   2.479   2.308  14.480  2.2924  2.1517  1.8059
10045TIP3    H251551   2.438   2.250  14.614 -0.3512 -0.4034 -0.0570
10046TIP3   OH251552   5.556   3.372  10.940 -0.0310  0.7024  0.3641
10046TIP3    H151553   5.546   3.461  10.905  0.0493  1.3009  1.8152
10046TIP3    H251554   5.648   3.368  10.969 -0.2266  0.3828  0.9441
10047TIP3   OH251555   2.957   6.418   0.664 -0.3383 -0.4718  0.5736
10047TIP3    H151556   2.987   6.340   0.617 -1.6530  0.4506 -1.8691
10047TIP3    H251557   2.915   6.472   0.597  0.6197  2.3908  2.1858
10048TIP3   OH251558   5.909   6.096  14.450  0.0700  0.2065  0.0611
10048TIP3    H151559   5.918   6.011  14.407 -1.0123 -0.3620  0.9153
10048TIP3    H251560   5.989   6.143  14.428  0.5897 -0.9589 -0.5879
10049TIP3   OH251561   4.668   2.792   0.692  0.1671  0.0011  0.1374
10049TIP3    H151562   4.720   2.716   0.667  0.7037  0.8708 -1.4515
10049TIP3    H251563   4.726   2.846   0.746  0.1995 -0.0942  0.1970
10050TIP3   OH251564   1.429   0.831   2.166 -0.0558  0.1820 -0.3728
10050TIP3    H151565   1.458   0.845   2.256  0.5101 -2.3094 -0.1257
10050TIP3    H251566   1.511   0.823   2.116 -0.2965 -2.9193 -0.3359
10051TIP3   OH251567   5.234   3.869   5.953  0.1506 -0.3595 -0.7925
10051TIP3    H151568   5.236   3.785   5.908  1.0071 -0.0143 -1.4145
10051TIP3    H251569   5.218   3.847   6.044 -0.6914 -1.1277 -1.1125
10052TIP3   OH251570   2.780   3.707  12.081 -0.5030 -0.6988 -0.8138
10052TIP3    H151571   2.697   3.752  12.096  1.5765  2.4996  1.8661
10052TIP3    H251572   2.761   3.645  12.011 -5.0597  0.1095 -0.4877
10053TIP3   OH251573   3.871   0.605  12.725 -0.4910  0.2425 -0.0548
10053TIP3    H151574   3.820   0.632  12.801 -1.1073 -0.0644 -0.3562
10053TIP3    H251575   3.913   0.523  12.751 -2.5957 -1.1275 -0.8493
10054TIP3   OH251576   1.981   4.746  13.247 -0.4814 -0.2135 -0.0648
10054TIP3    H151577   1.971   4.661  13.291 -0.0362 -0.2543 -0.0432
10054TIP3    H251578   1.892   4.772  13.224 -0.6701 -0.4499  0.3830
10055TIP3   OH251579   3.401   4.355  13.441  0.1968  0.3573  0.2269
10055TIP3    H151580   3.440   4.411  13.374  1.1830  1.7928  1.9568
10055TIP3    H251581   3.472   4.296  13.466  0.6087  1.4708  1.7539
10056TIP3   OH251582   2.361   5.436   2.116  0.0707 -0.0642 -1.0107
10056TIP3    H151583   2.370   5.469   2.205  1.1669  1.9611 -1.8329
10056TIP3    H251584   2.271   5.405   2.111  0.3471 -1.3159  1.1475
10057TIP3   OH251585   3.090   4.810  12.302  0.4044  0.4041 -0.4786
10057TIP3    H151586   3.158   4.839  12.362  0.5934  0.9354 -0.9418
10057TIP3    H251587   3.107   4.717  12.288  0.4018  0.2954  0.2268
10058TIP3   OH251588   6.042   3.199   1.775 -0.4183  0.4795  0.2343
10058TIP3    H151589   6.128   3.158   1.777 -0.3893  0.5247 -0.0605
10058TIP3    H251590   6.027   3.229   1.865 -0.8265 -0.9698  0.6719
10059TIP3   OH251591   1.844   6.533   4.446  0.7706 -0.0849  0.0517
10059TIP3    H151592   1.855   6.447   4.486  1.4168 -0.0373 -0.0061
10059TIP3    H251593   1.756   6.560   4.470  0.6253 -0.6919  0.2092
10060TIP3   OH251594   2.937   0.731  15.098  0.5097  0.8657 -0.0550
10060TIP3    H151595   2.848   0.755  15.125  0.8591  0.2359  1.7264
10060TIP3    H251596   2.928   0.645  15.059  0.3668  0.7110  0.3168
10061TIP3   OH251597   4.480   0.730  14.326  0.1505 -0.4891 -0.0615
10061TIP3    H151598   4.396   0.772  14.307  1.6073  2.9305  0.8670
10061TIP3    H251599   4.511   0.773  14.405  2.0004 -2.9751  0.6407
10062TIP3   OH251600   1.849   0.842  16.905 -0.1510 -0.0782 -0.7339
10062TIP3    H151601   1.892   0.827  16.989 -1.6214  1.7841  0.3831
10062TIP3    H251602   1.920   0.839  16.841  1.1117 -0.6980  0.6536
10063TIP3   OH251603   0.228   1.200  12.227 -0.4540  0.1068 -0.5581
10063TIP3    H151604   0.249   1.223  12.318 -0.0112 -0.3522 -0.5444
10063TIP3    H251605   0.262   1.273  12.176 -4.4298  2.4584 -0.0348
10064TIP3   OH251606   4.072   5.463  12.432  0.2200 -0.0448  0.0741
10064TIP3    H151607   4.163   5.443  12.413 -0.2468 -1.6887 -0.5058
10064TIP3    H251608   4.074   5.500  12.521  1.5471  0.8676 -0.3150
10065TIP3   OH251609   4.876   5.106  14.086  0.2523  0.2395 -0.3605
10065TIP3    H151610   4.940   5.091  14.156  0.3325  0.2487 -0.4314
10065TIP3    H251611   4.797   5.059  14.114  0.0510  0.8319  0.0817
10066TIP3   OH251612   3.943   3.272  16.025 -0.4338  0.1175 -0.3430
10066TIP3    H151613   4.039   3.269  16.029 -0.4828  0.1573  1.3674
10066TIP3    H251614   3.920   3.213  15.954  0.7899 -1.3105  0.4047
10067TIP3   OH251615   1.880   5.374  12.356 -0.3844 -0.8691  0.7539
10067TIP3    H151616   1.884   5.466  12.332 -0.9293 -1.1140 -0.3148
10067TIP3    H251617   1.901   5.372  12.449 -1.2556  0.4214  0.9863
10068TIP3   OH251618   5.722   3.091   0.773  0.3313 -0.3210 -0.2238
10068TIP3    H151619   5.752   3.097   0.682  1.7532  0.4801  0.2792
10068TIP3    H251620   5.748   3.174   0.813 -1.3213 -0.1840  0.6325
10069TIP3   OH251621   0.047   2.325   6.727  0.2417 -0.0597  0.1438
10069TIP3    H151622   0.046   2.269   6.805 -0.5465  0.1842  0.3168
10069TIP3    H251623   0.107   2.282   6.667  1.0798 -0.1030  0.9997
10070TIP3   OH251624   1.353   2.465  13.454  0.0545 -0.4410 -0.2846
10070TIP3    H151625   1.369   2.404  13.382 -0.0166 -0.4816 -0.2662
10070TIP3    H251626   1.285   2.524  13.421 -2.0580 -2.2061  0.7681
10071TIP3   OH251627   5.752   4.576  10.546  0.0667 -0.1858  0.0460
10071TIP3    H151628   5.746   4.672  10.548  1.7093 -0.0233 -1.4524
10071TIP3    H251629   5.772   4.556  10.455  2.0321 -1.8155  0.8157
10072TIP3   OH251630   5.225   4.614  15.731 -0.5683 -0.6478 -0.2505
10072TIP3    H151631   5.274   4.594  15.651 -0.5682 -1.5691 -0.0296
10072TIP3    H251632   5.177   4.694  15.710  2.0463  1.0464 -0.0290
10073TIP3   OH251633   3.531   4.079  13.947  0.0773 -0.5359  0.0987
10073TIP3    H151634   3.524   4.167  13.986  2.2182 -0.8734  1.3689
10073TIP3    H251635   3.477   4.024  14.003  1.9604 -0.7376  1.7927
10074TIP3   OH251636   5.904   4.049   0.134 -0.7436  0.6056 -0.4815
10074TIP3    H151637   5.884   4.125   0.189  2.4695  0.2048  1.3300
10074TIP3    H251638   5.944   4.086   0.055  0.5957  0.8269  0.2942
10075TIP3   OH251639   1.717   4.506  15.486 -0.5210  0.0720  0.3538
10075TIP3    H151640   1.782   4.476  15.423  2.1020  0.9963  2.5191
10075TIP3    H251641   1.753   4.588  15.521 -1.9208 -0.3472  2.9492
10076TIP3   OH251642   5.211   2.221   3.347  0.3342  0.4646 -0.0216
10076TIP3    H151643   5.211   2.312   3.318 -1.2231 -0.0614 -1.7623
10076TIP3    H251644   5.300   2.191   3.333 -0.1124  0.5420 -3.3646
10077TIP3   OH251645   3.339   2.723   6.094  0.4641  0.7215  0.4134
10077TIP3    H151646   3.289   2.785   6.042  0.7842  1.6647  1.2206
10077TIP3    H251647   3.367   2.772   6.171  0.8069 -0.3917  1.0179
10078TIP3   OH251648   6.580   3.804  11.615 -0.0052 -0.5595  0.3496
10078TIP3    H151649   6.506   3.822  11.674  0.1296 -0.6222  0.5395
10078TIP3    H251650   6.621   3.725  11.652  0.6946 -0.0038  0.7608
10079TIP3   OH251651   4.809   0.474  14.243 -0.1342 -0.0699 -0.5730
10079TIP3    H151652   4.793   0.445  14.153  1.0609 -2.8127  0.0533
10079TIP3    H251653   4.898   0.444  14.262 -1.2949 -1.8192  2.3909
10080TIP3   OH251654   2.152   6.195  16.419 -0.2875  0.2241  0.1732
10080TIP3    H151655   2.181   6.250  16.346 -1.8599  0.1346 -0.5233
10080TIP3    H251656   2.147   6.107  16.382  0.0918 -0.0228  0.7068
10081TIP3   OH251657   0.907   5.061   2.712 -0.3970  0.0662 -0.2946
10081TIP3    H151658   0.815   5.064   2.739 -0.5905 -0.7294 -0.8634
10081TIP3    H251659   0.924   5.149   2.678 -0.7921  0.3802  0.2835
10082TIP3   OH251660   5.531   0.521   4.577 -0.1674 -0.0484  0.4290
10082TIP3    H151661   5.599   0.456   4.592 -0.1411 -0.4008 -1.0784
10082TIP3    H251662   5.568   0.603   4.610  1.4074 -0.0452 -1.2193
10083TIP3   OH251663   5.326   3.701   0.162 -0.1055  0.1901 -0.0147
10083TIP3    H151664   5.344   3.794   0.172  0.2598  0.1739 -0.4646
10083TIP3    H251665   5.330   3.686   0.067  4.0297 -1.0723  0.2277
10084TIP3   OH251666   1.974   2.457   1.992 -0.3631  0.3961 -0.4244
10084TIP3    H151667   1.913   2.486   2.059  1.3644  0.5076  1.1547
10084TIP3    H251668   2.045   2.414   2.040  0.6505 -0.0140 -2.2087
10085TIP3   OH251669   2.915   3.011  10.433  0.2992 -0.0804 -0.1198
10085TIP3    H151670   2.958   2.933  10.397  0.7026  0.3250 -0.5228
10085TIP3    H251671   2.822   2.988  10.436  0.4166 -0.5740 -0.2484
10086TIP3   OH251672   0.218   6.163  14.743 -0.0463  0.1012  0.4769
10086TIP3    H151673   0.255   6.181  14.829 -0.5070 -0.9873  0.9088
10086TIP3    H251674   0.282   6.106  14.701  1.3457  2.5158 -0.8412
10087TIP3   OH251675   4.554   2.000   5.176 -0.5127 -0.2387  0.7779
10087TIP3    H151676   4.516   2.069   5.230 -1.4206  0.4990 -0.7657
10087TIP3    H251677   4.649   2.009   5.189 -0.7095  0.0417  2.0762
10088TIP3   OH251678   4.156   2.655  12.544 -0.5157 -0.2822 -0.3671
10088TIP3    H151679   4.194   2.652  12.456 -0.5224  0.0261 -0.3797
10088TIP3    H251680   4.134   2.747  12.558 -0.4953 -0.3270 -0.0333
10089TIP3   OH251681   3.201   2.297  16.388 -0.3177 -0.0835  0.2717
10089TIP3    H151682   3.225   2.331  16.474  0.5841 -0.7159  0.2834
10089TIP3    H251683   3.139   2.227  16.406 -0.3283 -0.0407  0.3971
10090TIP3   OH251684   3.944   3.398  17.094 -0.2482 -0.0164 -0.3441
10090TIP3    H151685   3.860   3.373  17.054  0.6684 -1.1575 -1.6317
10090TIP3    H251686   3.958   3.488  17.063 -1.0213  0.2050 -0.0759
10091TIP3   OH251687   6.488   4.991   1.757 -0.1627  0.5206  0.6114
10091TIP3    H151688   6.449   5.044   1.827 -0.2036 -0.6915  1.5124
10091TIP3    H251689   6.424   4.996   1.685 -0.5427  1.0357  0.9842
10092TIP3   OH251690   5.094   1.888   3.808  0.1221  0.4653 -0.5060
10092TIP3    H151691   5.168   1.925   3.760  1.0604  0.5226  0.9565
10092TIP3    H251692   5.035   1.856   3.740  1.7880 -0.1760 -1.6901
10093TIP3   OH251693   5.359   1.304   3.664  0.7189  0.2981 -0.3444
10093TIP3    H151694   5.404   1.362   3.603  0.8971  2.1763  1.5051
10093TIP3    H251695   5.429   1.271   3.721  0.1296  1.4168  1.0851
10094TIP3   OH251696   1.390   6.222   5.875  0.1097 -0.0706  0.6050
10094TIP3    H151697   1.365   6.287   5.808 -1.8485 -0.8412  0.5345
10094TIP3    H251698   1.481   6.201   5.855 -0.6659 -0.9138 -2.3924
10095TIP3   OH251699   5.141   0.921   3.188 -0.2762  0.3011  0.2856
10095TIP3    H151700   5.051   0.941   3.159  0.3298  2.2086 -0.4052
10095TIP3    H251701   5.166   0.997   3.240  0.3113 -1.0518  1.9995
10096TIP3   OH251702   1.682   0.069  12.043 -0.2169 -0.1931 -0.0542
10096TIP3    H151703   1.660   0.158  12.071  1.0452 -0.1638  0.8705
10096TIP3    H251704   1.657   0.014  12.117  1.8387 -0.2666  0.6222
10097TIP3   OH251705   0.839   6.364  15.021 -0.3057 -0.7379  0.0936
10097TIP3    H151706   0.805   6.399  15.104 -1.2168  1.9342 -1.3252
10097TIP3    H251707   0.933   6.361  15.033 -0.2134  1.9188  0.4620
10098TIP3   OH251708   5.341   0.653   5.282 -0.0503 -0.3259 -0.3073
10098TIP3    H151709   5.297   0.577   5.320  0.4440 -0.4171  0.0836
10098TIP3    H251710   5.296   0.668   5.199 -0.3310 -0.8755 -0.2530
10099TIP3   OH251711   3.205   1.877   3.828 -0.1307 -0.1922  0.5655
10099TIP3    H151712   3.113   1.896   3.812  0.6249  2.1679 -1.3255
10099TIP3    H251713   3.249   1.962   3.820  2.3742 -1.4683  0.1704
10100TIP3   OH251714   3.946   2.726   2.055  0.2666  0.3099  0.3202
10100TIP3    H151715   3.933   2.749   2.147 -0.3186 -0.0422  0.3325
10100TIP3    H251716   3.977   2.636   2.057  1.5083  0.7235  0.2228
10101TIP3   OH251717   1.269   5.099   0.562  0.0277  0.2289  0.3296
10101TIP3    H151718   1.284   5.119   0.654 -0.7380 -1.9587  0.9793
10101TIP3    H251719   1.178   5.125   0.547  1.0433  3.3897 -0.6614
10102TIP3   OH251720   1.225   1.259  14.734  0.2179 -0.5136 -0.3817
10102TIP3    H151721   1.254   1.174  14.768  1.8988  0.4906  0.7730
10102TIP3    H251722   1.288   1.322  14.769  0.4697  0.9187 -3.2543
10103TIP3   OH251723   5.456   3.295  15.637  0.1192  0.5613  0.3923
10103TIP3    H151724   5.367   3.295  15.603 -0.7694 -0.0208  2.6344
10103TIP3    H251725   5.511   3.270  15.562 -1.9099 -2.1279 -0.2482
10104TIP3   OH251726   4.721   6.622   5.707 -0.1496  0.1506  0.1468
10104TIP3    H151727   4.787   6.625   5.776 -2.2138 -0.8880  2.2318
10104TIP3    H251728   4.661   6.693   5.727 -0.5489  0.0942 -0.8153
10105TIP3   OH251729   1.735   5.186  14.696  0.0525  0.0255  0.5399
10105TIP3    H151730   1.649   5.147  14.712  0.2625 -0.3435  0.7675
10105TIP3    H251731   1.720   5.247  14.624 -0.2643 -0.5334  0.1278
10106TIP3   OH251732   2.690   0.356   3.487 -0.0080 -0.3286  0.1792
10106TIP3    H151733   2.629   0.379   3.558  1.8250  0.5393  1.5333
10106TIP3    H251734   2.728   0.440   3.460  1.8944 -1.0054  0.6229
10107TIP3   OH251735   6.698   4.923  14.998  0.2840 -0.2409  0.0463
10107TIP3    H151736   6.787   4.913  15.031  0.6274  0.0681 -0.7648
10107TIP3    H251737   6.686   4.851  14.937 -0.2030 -0.5772  0.5389
10108TIP3   OH251738   3.214   6.526   0.396  0.8046 -0.2864 -0.3505
10108TIP3    H151739   3.195   6.540   0.488 -0.0116  0.2462 -0.5970
10108TIP3    H251740   3.300   6.567   0.383  1.8075 -2.0364  0.5867
10109TIP3   OH251741   5.519   4.357  13.701  0.0408  0.5228 -0.2150
10109TIP3    H151742   5.539   4.389  13.789  0.8006  1.2665 -0.6576
10109TIP3    H251743   5.566   4.416  13.642 -0.8682  0.3304 -1.1435
10110TIP3   OH251744   5.664   3.859   1.899 -0.5586  0.2552 -0.5226
10110TIP3    H151745   5.654   3.929   1.963  0.7366 -1.1277  1.2259
10110TIP3    H251746   5.600   3.793   1.926  0.7738 -0.8200  0.0325
10111TIP3   OH251747   5.619   6.214   0.285  0.1053 -0.0656  0.5120
10111TIP3    H151748   5.689   6.209   0.220 -0.6145 -0.1036 -0.2610
10111TIP3    H251749   5.576   6.298   0.268 -2.3702 -1.6716 -1.4153
10112TIP3   OH251750   5.723   2.503  13.526  0.5750  0.6103  0.1953
10112TIP3    H151751   5.683   2.419  13.551 -0.6436  0.4525 -2.1700
10112TIP3    H251752   5.714   2.558  13.604 -1.3386 -0.5037  0.7867
10113TIP3   OH251753   6.597   3.783   2.071  0.3957  0.2729 -0.3328
10113TIP3    H151754   6.588   3.782   1.976 -0.4843  2.4661 -0.3225
10113TIP3    H251755   6.691   3.772   2.087  0.7221  1.1768 -1.5319
10114TIP3   OH251756   0.094   2.418   2.737  0.1269  0.6676  0.0920
10114TIP3    H151757   0.144   2.394   2.659 -0.7902 -0.5499 -0.1444
10114TIP3    H251758   0.075   2.511   2.726 -0.6402  0.3422 -1.5149
10115TIP3   OH251759   0.081   0.835   2.085 -0.0712  0.7225 -0.3843
10115TIP3    H151760   0.135   0.906   2.119  1.2775 -0.3694 -0.1902
10115TIP3    H251761   0.115   0.819   1.996  0.2478 -0.2683 -0.0958
10116TIP3   OH251762   6.665   1.834  16.329 -0.1042 -0.5877  0.2261
10116TIP3    H151763   6.654   1.847  16.423 -1.5704  2.7857 -0.3613
10116TIP3    H251764   6.580   1.855  16.291  0.7000 -1.0838 -1.9514
10117TIP3   OH251765   2.248   3.855   0.219 -0.1534 -0.2146  1.0292
10117TIP3    H151766   2.230   3.932   0.165  1.5028 -1.0284 -0.7018
10117TIP3    H251767   2.169   3.801   0.211 -0.6816  0.5517  0.9813
10118TIP3   OH251768   3.449   3.115  16.466 -0.2988  0.0280  0.0949
10118TIP3    H151769   3.475   3.161  16.546  0.6241 -2.0734  1.0587
10118TIP3    H251770   3.359   3.141  16.451 -0.4688  0.5022  1.8064
10119TIP3   OH251771   4.058   5.802  15.529 -0.4000 -0.4602 -0.3908
10119TIP3    H151772   4.028   5.721  15.489 -0.4612  0.1971 -1.7130
10119TIP3    H251773   4.046   5.789  15.623 -1.3042 -1.6198 -0.6600
10120TIP3   OH251774   4.704   5.435   4.034  0.4467 -0.0711  0.1207
10120TIP3    H151775   4.617   5.429   4.074  0.5471  0.8881  0.5043
10120TIP3    H251776   4.728   5.527   4.044  1.7139 -0.4299  0.4211
10121TIP3   OH251777   3.441   5.843  17.016  0.0687  0.3891 -0.1173
10121TIP3    H151778   3.471   5.793  16.941  2.3631  0.5833  0.6293
10121TIP3    H251779   3.471   5.794  17.092 -3.2118 -0.4092  0.7555
10122TIP3   OH251780   1.194   3.156   4.959 -0.0866  0.0051 -0.3097
10122TIP3    H151781   1.122   3.114   5.006 -0.1010  0.1496 -0.2022
10122TIP3    H251782   1.242   3.204   5.026 -0.4187  0.6518 -0.5289
10123TIP3   OH251783   5.756   5.171  13.594 -0.1073  0.1134  1.2344
10123TIP3    H151784   5.742   5.127  13.678 -0.9016 -3.7301 -0.8135
10123TIP3    H251785   5.671   5.168  13.551  0.7701  0.2494 -0.5266
10124TIP3   OH251786   1.923   3.794  12.764  0.1815  0.4369  0.0167
10124TIP3    H151787   1.961   3.811  12.677 -0.0514  0.2974 -0.1123
10124TIP3    H251788   1.921   3.699  12.772  0.7500  0.4584  0.4178
10125TIP3   OH251789   4.094   0.372   4.820  0.0335 -0.2376 -0.6581
10125TIP3    H151790   4.002   0.390   4.801 -0.4265 -0.2197  1.4166
10125TIP3    H251791   4.097   0.278   4.839  0.3811 -0.1852 -0.4361
10126TIP3   OH251792   5.708   2.606   4.613  0.1800 -0.1221 -0.0058
10126TIP3    H151793   5.759   2.608   4.532  1.0525 -0.2886  0.5465
10126TIP3    H251794   5.771   2.623   4.682 -0.6791  0.6717  0.5949
10127TIP3   OH251795   5.341   3.432  17.161  0.5327  0.3053  0.2307
10127TIP3    H151796   5.383   3.347  17.143 -2.7590 -1.1437 -0.9736
10127TIP3    H251797   5.303   3.422  17.248  1.0610  0.9544  0.5412
10128TIP3   OH251798   4.749   3.887   0.611 -0.1461 -0.1583  0.3183
10128TIP3    H151799   4.749   3.981   0.628  1.4313  0.4557 -2.7065
10128TIP3    H251800   4.675   3.874   0.551 -0.9381 -1.0164  1.4594
10129TIP3   OH251801   4.895   3.758  13.197  0.1584 -0.4169  0.1923
10129TIP3    H151802   4.810   3.794  13.171 -0.6209 -0.9878  1.8830
10129TIP3    H251803   4.959   3.817  13.158 -1.0527  1.3210  0.7852
10130TIP3   OH251804   1.131   4.725  11.230  0.1313 -0.1382  0.3749
10130TIP3    H151805   1.173   4.735  11.316  0.9844  0.3648 -0.0933
10130TIP3    H251806   1.187   4.774  11.170 -1.5539  1.2485 -0.1302
10131TIP3   OH251807   5.785   5.381   0.430 -0.3183 -0.1535 -0.6456
10131TIP3    H151808   5.745   5.301   0.464 -0.5080 -0.0871 -0.7084
10131TIP3    H251809   5.745   5.393   0.344 -0.4983  0.1607 -0.5192
10132TIP3   OH251810   6.461   0.310   1.104 -0.0528  0.5213  0.6728
10132TIP3    H151811   6.402   0.253   1.054 -0.3688 -0.3481  2.0116
10132TIP3    H251812   6.431   0.399   1.084 -0.6470  0.1602 -0.0871
10133TIP3   OH251813   2.724   6.211  15.975 -0.2330 -0.9087  0.5686
10133TIP3    H151814   2.656   6.274  15.951  0.8644 -0.3094 -1.0411
10133TIP3    H251815   2.737   6.158  15.896 -1.8677 -3.9046  2.2003
10134TIP3   OH251816   3.943   2.166  10.940 -0.6555  1.0043  0.3461
10134TIP3    H151817   3.941   2.091  10.881 -1.0413  1.9074 -0.8163
10134TIP3    H251818   4.036   2.187  10.949 -0.4118 -0.8524  2.3008
10135TIP3   OH251819   3.804   5.593   3.740 -0.1329  0.2069 -0.3886
10135TIP3    H151820   3.863   5.668   3.734  0.1596 -0.0129 -0.2894
10135TIP3    H251821   3.858   5.518   3.717  0.1286 -0.2283  1.5435
10136TIP3   OH251822   0.904   3.412   5.267 -0.2372 -0.2048 -0.2978
10136TIP3    H151823   0.894   3.481   5.333  0.3561 -0.8504  0.4743
10136TIP3    H251824   0.915   3.460   5.185 -1.3394  0.6051  0.0099
10137TIP3   OH251825   3.476   2.419  14.768 -0.2276  0.1589  0.1162
10137TIP3    H151826   3.542   2.425  14.837  1.3492  1.1722 -1.4480
10137TIP3    H251827   3.526   2.401  14.688 -1.8952  0.3593 -0.9927
10138TIP3   OH251828   0.946   5.884   2.574  0.1616 -0.1581 -0.1726
10138TIP3    H151829   0.967   5.889   2.667 -0.3855 -0.5994 -0.0205
10138TIP3    H251830   0.986   5.803   2.544  0.2541 -0.0656 -0.3005
10139TIP3   OH251831   0.544   5.264  16.478  0.3600  0.1837 -0.2825
10139TIP3    H151832   0.619   5.228  16.431 -1.1602  0.3061 -2.9249
10139TIP3    H251833   0.549   5.359  16.461  0.2186  0.3177  0.4216
10140TIP3   OH251834   4.684   3.872  15.607 -0.0637  0.2470 -0.3155
10140TIP3    H151835   4.768   3.912  15.584 -0.4691  0.5493 -1.2852
10140TIP3    H251836   4.623   3.903  15.541 -0.6270 -1.1309 -0.4739
10141TIP3   OH251837   5.042   4.478   6.604 -0.1636  0.1043  0.2834
10141TIP3    H151838   5.051   4.499   6.511 -0.1453 -1.8332 -0.1711
10141TIP3    H251839   5.128   4.496   6.641  0.4889 -1.2532 -0.5294
10142TIP3   OH251840   1.428   1.781  14.554 -0.4320 -0.3297 -0.1301
10142TIP3    H151841   1.500   1.826  14.511  0.7271  0.1083  2.1468
10142TIP3    H251842   1.391   1.847  14.613 -0.7019 -1.4491  0.9705
10143TIP3   OH251843   0.066   1.397   2.962  0.2614 -0.1792 -0.0053
10143TIP3    H151844   0.019   1.314   2.967  0.2357 -0.1006  1.0436
10143TIP3    H251845   0.002   1.458   2.923  0.1412 -0.5394 -0.3794
10144TIP3   OH251846   0.492   1.226  14.117  0.3977  1.2067 -0.2592
10144TIP3    H151847   0.416   1.230  14.175  0.1746  0.0043 -0.4639
10144TIP3    H251848   0.498   1.314  14.080 -0.6543  1.4225  0.0653
10145TIP3   OH251849   3.736   2.690  14.872  0.3713 -0.0108 -0.0637
10145TIP3    H151850   3.752   2.618  14.811  1.9429 -0.0118  0.3125
10145TIP3    H251851   3.807   2.752  14.855  0.6681  0.1238  1.5553
10146TIP3   OH251852   5.416   4.151  12.074  0.3721 -0.2510  0.2780
10146TIP3    H151853   5.424   4.245  12.055  0.4135  0.1035  1.9707
10146TIP3    H251854   5.342   4.122  12.020  1.2687  0.4389 -1.3416
10147TIP3   OH251855   1.733   0.680  13.878  0.0691 -0.3368  0.2758
10147TIP3    H151856   1.749   0.775  13.878 -1.6041 -0.0034 -2.3102
10147TIP3    H251857   1.667   0.667  13.945 -0.9721  0.6052 -0.5427
10148TIP3   OH251858   0.208   0.029   1.395 -0.0478  0.0699  0.2354
10148TIP3    H151859   0.161   0.086   1.456 -0.3146 -1.0373  1.0986
10148TIP3    H251860   0.151   0.023   1.319 -0.0238  0.9425  0.1467
10149TIP3   OH251861   1.897   6.114   0.732 -0.3961  0.2827  0.1136
10149TIP3    H151862   1.803   6.094   0.729 -0.4132  0.2167  0.8478
10149TIP3    H251863   1.911   6.144   0.822  0.3105  0.1570  0.0432
10150TIP3   OH251864   1.270   0.188  16.506  0.0071  0.0790 -0.0620
10150TIP3    H151865   1.292   0.110  16.456  0.0818  0.4935 -0.6842
10150TIP3    H251866   1.201   0.230  16.455 -1.7013 -0.8009  1.4897
10151TIP3   OH251867   0.739   1.824  12.161 -0.4809 -0.3205 -0.5104
10151TIP3    H151868   0.797   1.748  12.157  0.0279 -0.0861  1.4455
10151TIP3    H251869   0.712   1.828  12.253 -2.4805  0.4255 -1.0947
10152TIP3   OH251870   5.099   0.979  14.029 -0.3479 -0.2911  0.0201
10152TIP3    H151871   5.119   0.974  14.123 -0.9780 -2.8850  0.0512
10152TIP3    H251872   5.168   0.928  13.987 -1.1240 -0.6936 -0.7759
10153TIP3   OH251873   2.654   4.769   4.001 -0.8226 -0.1216 -1.4778
10153TIP3    H151874   2.717   4.760   3.930 -0.4433  0.1733 -1.1821
10153TIP3    H251875   2.676   4.697   4.061 -1.3687 -0.5834 -1.8284
10154TIP3   OH251876   4.950   3.869   6.141 -0.3065  0.1375  0.1427
10154TIP3    H151877   4.927   3.958   6.166  0.8426  0.6284 -0.5479
10154TIP3    H251878   4.997   3.877   6.058  3.2816 -0.7146  1.9944
10155TIP3   OH251879   4.307   1.583   2.471 -0.2768 -0.2663  0.0122
10155TIP3    H151880   4.325   1.519   2.541  1.0957  1.7823  1.6028
10155TIP3    H251881   4.394   1.608   2.440 -0.8685 -0.5365 -1.8919
10156TIP3   OH251882   1.246   2.933   4.820  0.3404 -0.0758 -0.2966
10156TIP3    H151883   1.226   3.008   4.877  1.7348  0.9401 -1.1210
10156TIP3    H251884   1.211   2.959   4.735  1.9663  0.2064 -0.8965
10157TIP3   OH251885   5.729   5.102  15.980 -0.0046  0.1400 -0.3460
10157TIP3    H151886   5.801   5.148  16.023  1.2432 -0.3497 -1.8531
10157TIP3    H251887   5.732   5.013  16.015  0.0602  0.1551 -0.3133
10158TIP3   OH251888   6.721   0.090  11.810  0.0559  0.1488 -0.6762
10158TIP3    H151889   6.740   0.012  11.757  3.9338  1.5054 -1.4599
10158TIP3    H251890   6.626   0.102  11.802 -0.3436 -3.4027 -2.0433
10159TIP3   OH251891   4.974   6.538  13.233 -0.7181  0.0869 -0.2940
10159TIP3    H151892   4.968   6.457  13.182  2.6132  2.0585 -4.0598
10159TIP3    H251893   5.061   6.534  13.274  0.2767  2.4848 -2.0326
10160TIP3   OH251894   2.742   2.575   0.696 -0.1639 -0.4437  0.5426
10160TIP3    H151895   2.697   2.603   0.616 -0.4963  0.7706  1.1381
10160TIP3    H251896   2.682   2.514   0.737 -0.6383  0.0650  0.6081
10161TIP3   OH251897   2.897   0.211  12.798 -0.3875 -0.5087 -0.0895
10161TIP3    H151898   2.975   0.189  12.850 -1.4890 -1.5790  1.1267
10161TIP3    H251899   2.907   0.304  12.779  2.0199 -0.9548 -1.3533
10162TIP3   OH251900   4.584   3.312   5.483  0.3379  0.2142  0.8219
10162TIP3    H151901   4.508   3.327   5.538 -0.9549 -1.1250 -0.5667
10162TIP3    H251902   4.549   3.302   5.395  2.3586  2.1287 -0.2612
10163TIP3   OH251903   3.194   5.432   0.946  0.2284  0.2683  0.4423
10163TIP3    H151904   3.187   5.525   0.925  1.0670  0.0396 -0.9310
10163TIP3    H251905   3.123   5.390   0.898 -0.3350  0.2255  1.2993
10164TIP3   OH251906   4.401   2.039  14.167  0.4891  0.1720 -0.3107
10164TIP3    H151907   4.355   2.111  14.210  2.0249  0.0751  1.5836
10164TIP3    H251908   4.487   2.076  14.146  0.9340 -0.8075 -0.2203
10165TIP3   OH251909   6.438   4.420   3.369 -0.0626 -0.3536  0.2129
10165TIP3    H151910   6.393   4.416   3.453  0.3935 -1.4855  0.4059
10165TIP3    H251911   6.409   4.343   3.321  1.0058 -0.6352  0.0067
10166TIP3   OH251912   4.603   5.884  12.508 -0.3736  1.0832  0.0916
10166TIP3    H151913   4.598   5.789  12.519  1.0198  0.7750 -1.6395
10166TIP3    H251914   4.593   5.919  12.596  1.7785 -0.7884  1.1300
10167TIP3   OH251915   5.012   1.287  15.519  0.0104 -0.1838 -0.1838
10167TIP3    H151916   5.100   1.262  15.490 -0.0233  0.1594 -0.5899
10167TIP3    H251917   5.010   1.383  15.511  0.0980 -0.0546  1.2333
10168TIP3   OH251918   0.419   5.774   4.215 -0.0843 -0.7642 -0.4967
10168TIP3    H151919   0.471   5.725   4.279  0.0206 -1.3895 -1.0614
10168TIP3    H251920   0.455   5.862   4.217 -0.5359 -0.5945  0.8236
10169TIP3   OH251921   4.973   5.145  15.186 -0.0439 -0.5079 -0.0795
10169TIP3    H151922   4.911   5.217  15.196  0.3564 -0.2045  0.2593
10169TIP3    H251923   5.056   5.188  15.164  0.0063 -0.9196 -0.7081
10170TIP3   OH251924   1.080   4.090  11.268 -0.3255 -0.7399  0.0310
10170TIP3    H151925   1.064   4.031  11.342 -0.0976 -0.9417 -0.0800
10170TIP3    H251926   0.993   4.121  11.242 -0.2531  1.0764  1.8010
10171TIP3   OH251927   1.573   1.433   3.414  0.0415  0.0139  0.4976
10171TIP3    H151928   1.478   1.427   3.404  0.3116 -1.5031 -1.5681
10171TIP3    H251929   1.592   1.526   3.400 -0.9008 -0.0942 -1.8620
10172TIP3   OH251930   1.841   5.038   4.586  0.0337 -0.1456  0.3066
10172TIP3    H151931   1.790   5.119   4.576 -0.5196 -0.4459  0.6918
10172TIP3    H251932   1.901   5.056   4.658  1.0984  0.5219 -0.7211
10173TIP3   OH251933   3.117   2.166  14.495 -0.2124  0.1274 -0.7611
10173TIP3    H151934   3.066   2.200  14.422  1.4397  1.4174 -1.3424
10173TIP3    H251935   3.135   2.242  14.550 -0.9753 -0.7394  0.7234
10174TIP3   OH251936   0.329   5.657   2.364 -0.0438 -0.0874 -0.3476
10174TIP3    H151937   0.313   5.563   2.360  0.0366 -0.1681  1.0146
10174TIP3    H251938   0.363   5.672   2.452 -1.3174  1.3929 -0.0735
10175TIP3   OH251939   1.827   6.436   3.153  0.5238 -0.0619  0.0800
10175TIP3    H151940   1.798   6.525   3.135 -0.9460 -0.6003 -0.2724
10175TIP3    H251941   1.849   6.400   3.066 -0.8546 -0.7026 -0.0184
10176TIP3   OH251942   4.799   4.463   5.238  0.0708 -0.0455 -0.1496
10176TIP3    H151943   4.786   4.554   5.263  0.5990 -0.4707  1.6976
10176TIP3    H251944   4.883   4.438   5.276 -0.4526 -1.5482  0.0668
10177TIP3   OH251945   3.171   5.602  14.698  0.2229  0.0458  0.3257
10177TIP3    H151946   3.208   5.686  14.671  1.2664  0.0186  1.6325
10177TIP3    H251947   3.085   5.624  14.734 -1.5035  0.0233 -3.4495
10178TIP3   OH251948   2.986   0.778  16.723 -0.0622  0.2942  0.1345
10178TIP3    H151949   2.964   0.693  16.685  0.1485  0.3875 -0.1992
10178TIP3    H251950   3.065   0.805  16.677 -0.6438  1.0949 -0.4046
10179TIP3   OH251951   6.199   3.984  14.661 -0.2358 -0.3029  0.5033
10179TIP3    H151952   6.173   3.896  14.690 -2.0635  0.3489  0.8617
10179TIP3    H251953   6.284   3.970  14.618 -1.0567 -2.4456 -0.5252
10180TIP3   OH251954   4.615   5.524  15.528 -0.5758 -0.2707  0.2688
10180TIP3    H151955   4.552   5.519  15.457 -0.7274  0.5118  0.3432
10180TIP3    H251956   4.569   5.569  15.599  0.3133  1.0440  0.0403
10181TIP3   OH251957   4.110   6.075   3.957  0.2356  0.0970  0.2790
10181TIP3    H151958   4.082   6.076   4.048 -0.0648  0.2616  0.1855
10181TIP3    H251959   4.205   6.066   3.961  0.2422  0.3220  0.6107
10182TIP3   OH251960   3.667   6.244   5.170 -0.3634  0.4621  0.7119
10182TIP3    H151961   3.742   6.248   5.111 -0.3583 -0.8081  0.6194
10182TIP3    H251962   3.688   6.307   5.240  1.0909 -0.3459  1.0289
10183TIP3   OH251963   4.956   4.748   5.316  0.4442  0.3506  0.0527
10183TIP3    H151964   4.984   4.702   5.395  1.4907  0.4567 -0.2423
10183TIP3    H251965   4.988   4.837   5.328  1.4756  0.1297 -0.9122
10184TIP3   OH251966   6.557   2.269  14.494  0.0180 -0.1305  0.2951
10184TIP3    H151967   6.499   2.195  14.480 -0.3591  0.3190 -0.5449
10184TIP3    H251968   6.644   2.238  14.469  0.4879 -1.3802  3.2708
10185TIP3   OH251969   0.755   5.862   0.091  0.1366  0.0542  0.2807
10185TIP3    H151970   0.726   5.776   0.124 -1.6344 -0.1461 -1.7319
10185TIP3    H251971   0.700   5.925   0.137  0.0105 -0.0163  0.2266
10186TIP3   OH251972   3.562   2.481  12.685 -0.8528  0.4962 -0.3167
10186TIP3    H151973   3.505   2.419  12.730  1.7033 -0.6821  1.4189
10186TIP3    H251974   3.565   2.449  12.595 -1.2831 -0.6475  0.0663
10187TIP3   OH251975   5.657   4.667  15.497 -0.1417 -0.7967  0.0454
10187TIP3    H151976   5.669   4.754  15.459  0.5179 -1.8629 -2.2770
10187TIP3    H251977   5.569   4.641  15.470  0.2575 -1.4876 -0.5925
10188TIP3   OH251978   1.782   3.663  13.595  0.0249 -0.2539 -0.6531
10188TIP3    H151979   1.736   3.620  13.667 -0.2104  0.7736 -0.1814
10188TIP3    H251980   1.853   3.711  13.638 -0.6003  1.0078 -1.0254
10189TIP3   OH251981   0.459   6.169   6.333  0.0047  0.2401  0.1356
10189TIP3    H151982   0.456   6.173   6.429  0.9436  1.0881  0.1435
10189TIP3    H251983   0.425   6.082   6.312 -0.4796  0.1522  1.2225
10190TIP3   OH251984   2.230   5.818  11.778  1.0238  0.8398  0.3348
10190TIP3    H151985   2.269   5.758  11.842  0.9315 -0.2110 -0.5838
10190TIP3    H251986   2.150   5.849  11.820  0.0107 -1.2400  0.0365
10191TIP3   OH251987   5.148   1.891  10.238  0.6361 -0.0075 -0.0347
10191TIP3    H151988   5.126   1.804  10.271  1.7467  0.1260  1.0611
10191TIP3    H251989   5.234   1.910  10.273  0.8712  1.0975 -1.1569
10192TIP3   OH251990   1.058   3.351   2.814 -0.7964 -0.0167  0.1049
10192TIP3    H151991   1.101   3.273   2.849 -0.7953  0.1799  0.5528
10192TIP3    H251992   0.971   3.351   2.856 -2.0236 -1.5316 -2.3547
10193TIP3   OH251993   5.342   3.190   6.193 -0.0216  0.1798  0.3155
10193TIP3    H151994   5.299   3.137   6.126 -0.4835 -1.4549  1.8542
10193TIP3    H251995   5.271   3.233   6.240  0.2520  0.6992  0.2595
10194TIP3   OH251996   1.363   1.733   2.409  0.2124 -0.3706  0.0012
10194TIP3    H151997   1.388   1.716   2.318 -1.8344 -0.3965 -0.5727
10194TIP3    H251998   1.354   1.828   2.414 -0.5714 -0.4349 -0.0804
10195TIP3   OH251999   5.936   4.417  15.224  0.1741  0.6389 -0.1656
10195TIP3    H152000   5.986   4.393  15.146 -1.1605  0.8822 -1.1116
10195TIP3    H252001   6.000   4.414  15.295  1.0721 -1.1732 -1.0009
10196TIP3   OH252002   0.596   5.136   2.742  0.0834 -0.1762 -0.2848
10196TIP3    H152003   0.605   5.221   2.698  1.6937 -0.6225 -0.8511
10196TIP3    H252004   0.503   5.128   2.760 -0.4429  0.5718 -2.5426
10197TIP3   OH252005   2.972   2.617  11.177  0.0109  0.3256  0.3141
10197TIP3    H152006   3.057   2.635  11.137 -0.1249  0.5103  0.1002
10197TIP3    H252007   2.939   2.704  11.201 -1.1368  0.5059 -1.7195
10198TIP3   OH252008   5.800   6.188   5.335  0.0685 -0.6945  0.5609
10198TIP3    H152009   5.821   6.108   5.384 -0.2008  0.6575  3.0025
10198TIP3    H252010   5.859   6.254   5.372  2.2305 -0.3165 -3.3289
10199TIP3   OH252011   3.846   3.325   5.964  0.4939  0.0408  0.5956
10199TIP3    H152012   3.761   3.303   6.002  0.4366  0.4875  0.7288
10199TIP3    H252013   3.832   3.409   5.921  0.8253  0.0287  0.4615
10200TIP3   OH252014   2.632   2.830   1.269 -0.0841 -0.6451  0.2375
10200TIP3    H152015   2.605   2.905   1.215  0.9264 -1.1177 -0.9416
10200TIP3    H252016   2.568   2.762   1.249 -1.5996  0.2079  2.0688
10201TIP3   OH252017   1.239   3.818   2.634 -0.2469 -0.3543  0.2917
10201TIP3    H152018   1.205   3.744   2.685 -1.3494  0.4852  0.7812
10201TIP3    H252019   1.180   3.825   2.559 -0.0513 -0.0717  0.1624
10202TIP3   OH252020   0.317   4.818   5.308 -0.2293 -0.2265  0.6222
10202TIP3    H152021   0.250   4.883   5.329 -0.4628 -0.3465  0.2427
10202TIP3    H252022   0.302   4.747   5.371  0.0356  0.0898  1.0481
10203TIP3   OH252023   6.284   6.011  12.779  0.1044  0.3313  0.6678
10203TIP3    H152024   6.322   6.021  12.692  2.2657  0.4725  1.6170
10203TIP3    H252025   6.205   6.065  12.777 -0.2586 -0.2212 -1.4221
10204TIP3   OH252026   2.344   4.271  15.205 -0.5793  0.4060  0.5929
10204TIP3    H152027   2.428   4.226  15.199 -0.1998  1.2521 -0.8266
10204TIP3    H252028   2.359   4.344  15.265 -0.6739 -0.2269  1.3914
10205TIP3   OH252029   1.767   1.641  14.689 -0.1323 -0.4090  0.0803
10205TIP3    H152030   1.760   1.546  14.679  0.6283 -0.4821  0.2682
10205TIP3    H252031   1.695   1.664  14.747 -0.6040 -0.8081 -0.3403
10206TIP3   OH252032   1.791   4.408  16.887 -0.1792  0.3263 -0.3975
10206TIP3    H152033   1.803   4.416  16.792 -0.8044 -0.2259 -0.5288
10206TIP3    H252034   1.808   4.315  16.905 -0.4167  0.3571 -0.0218
10207TIP3   OH252035   6.211   5.305  13.151 -0.3123  0.3391 -0.2230
10207TIP3    H152036   6.285   5.244  13.149 -0.1465  0.3951  2.2455
10207TIP3    H252037   6.199   5.331  13.060  1.1046 -1.5910 -1.0008
10208TIP3   OH252038   2.460   4.337  12.120 -0.2309 -0.8147  0.4117
10208TIP3    H152039   2.494   4.352  12.208  0.3994 -0.0830  0.0501
10208TIP3    H252040   2.469   4.422  12.077 -1.8316 -0.8102  0.0773
10209TIP3   OH252041   1.260   2.691   6.882 -0.0961  0.1094 -0.1684
10209TIP3    H152042   1.207   2.666   6.806 -1.1558  1.9563 -0.0898
10209TIP3    H252043   1.350   2.690   6.850 -0.4026 -0.6139 -1.0260
10210TIP3   OH252044   0.138   5.678  14.040  0.0631 -0.4204 -0.2201
10210TIP3    H152045   0.072   5.721  13.986  0.1927  0.9970  0.7418
10210TIP3    H252046   0.105   5.685  14.129  2.2342  1.6872  0.4683
10211TIP3   OH252047   3.351   5.154   1.869  0.7747 -0.2423  1.0710
10211TIP3    H152048   3.433   5.150   1.820  0.2403  1.9027 -0.0643
10211TIP3    H252049   3.335   5.247   1.882 -2.4282 -0.5075 -0.3593
10212TIP3   OH252050   6.049   2.767   5.119  0.3066  0.2980 -0.1278
10212TIP3    H152051   6.036   2.851   5.076  1.1295  1.0540  1.0670
10212TIP3    H252052   6.072   2.707   5.048 -1.0827  0.8783 -1.0943
10213TIP3   OH252053   4.267   3.306  11.187  0.8262  0.1578  0.6190
10213TIP3    H152054   4.189   3.302  11.130  1.3841 -1.8986 -0.0469
10213TIP3    H252055   4.278   3.399  11.205 -0.7698  0.6443 -0.7184
10214TIP3   OH252056   2.171   2.681  12.511 -0.4090  0.0851  0.0860
10214TIP3    H152057   2.165   2.729  12.593 -1.7926 -0.5708  0.3959
10214TIP3    H252058   2.096   2.711  12.459 -1.1672 -1.5244  0.1971
10215TIP3   OH252059   1.614   1.522  15.869 -0.6271 -0.6535  0.2972
10215TIP3    H152060   1.533   1.551  15.910 -0.2521  0.4608  0.2659
10215TIP3    H252061   1.586   1.487  15.784 -0.8991  1.5149 -0.5527
10216TIP3   OH252062   2.161   2.842   6.228  0.3420  0.0496 -0.3996
10216TIP3    H152063   2.250   2.828   6.261  0.0310 -0.1498  0.3402
10216TIP3    H252064   2.104   2.805   6.295 -0.4407  3.4194  0.9185
10217TIP3   OH252065   4.136   4.134   1.088  0.3799  0.1280  0.6091
10217TIP3    H152066   4.116   4.043   1.067 -2.1613  0.3991  1.7655
10217TIP3    H252067   4.051   4.178   1.092  1.5476  2.5271  0.2795
10218TIP3   OH252068   2.844   0.812  15.435  0.3229  0.7407  0.1658
10218TIP3    H152069   2.803   0.891  15.399 -0.3620  0.7270  0.9133
10218TIP3    H252070   2.788   0.786  15.507 -0.1048 -1.1153 -0.8103
10219TIP3   OH252071   0.479   3.448  11.230 -0.3410  0.6797 -0.0520
10219TIP3    H152072   0.486   3.399  11.148  0.2510  1.2104 -0.3278
10219TIP3    H252073   0.565   3.440  11.270 -0.2350  1.4814 -0.1030
10220TIP3   OH252074   3.974   3.649  14.852  0.4173  0.0707 -0.1695
10220TIP3    H152075   4.033   3.724  14.863 -0.6294  0.6997  1.3560
10220TIP3    H252076   4.022   3.576  14.889  1.6287 -0.1441 -2.0626
10221TIP3   OH252077   4.405   4.511  14.399  0.3290  0.0675 -0.0935
10221TIP3    H152078   4.325   4.495  14.350  0.4497 -0.8147 -0.0129
10221TIP3    H252079   4.380   4.575  14.467 -0.2843 -0.1667 -0.1027
10222TIP3   OH252080   0.194   5.638  14.961 -0.5277  0.2454 -0.8591
10222TIP3    H152081   0.216   5.574  15.029 -0.5987 -0.3550 -1.4037
10222TIP3    H252082   0.194   5.588  14.880  0.0878  1.0755 -1.3729
10223TIP3   OH252083   1.100   6.479   1.608  0.3322 -0.2388 -0.5043
10223TIP3    H152084   1.195   6.479   1.592  0.3222 -0.4794 -0.5720
10223TIP3    H252085   1.090   6.523   1.692  0.5566 -0.7637 -0.2027
10224TIP3   OH252086   3.751   2.857  11.063  0.0918  0.5389  0.0826
10224TIP3    H152087   3.764   2.766  11.091 -1.1957  0.7550  1.4078
10224TIP3    H252088   3.838   2.896  11.070  0.2507 -0.0334  1.5720
10225TIP3   OH252089   6.054   1.656  14.236 -0.0534  1.1611  0.0506
10225TIP3    H152090   6.084   1.631  14.324  0.0424 -0.5344 -0.4392
10225TIP3    H252091   6.094   1.741  14.221  0.1298  1.3636  1.5564
10226TIP3   OH252092   3.199   4.203  12.272 -0.3902  0.4814  0.3520
10226TIP3    H152093   3.290   4.223  12.249 -0.3224 -0.1585  0.0531
10226TIP3    H252094   3.188   4.111  12.248 -1.0188  0.4636  0.7008
10227TIP3   OH252095   5.967   3.214   1.267 -0.2317 -0.3528 -0.0540
10227TIP3    H152096   5.904   3.152   1.304  1.6748 -2.8335 -0.8014
10227TIP3    H252097   5.969   3.287   1.329 -1.1337 -1.9140  1.8607
10228TIP3   OH252098   2.858   3.960   5.556  0.0279 -0.3014  0.1575
10228TIP3    H152099   2.815   4.025   5.500  0.0914 -0.5512 -0.1908
10228TIP3    H252100   2.812   3.878   5.537 -1.5517  0.0615  2.2757
10229TIP3   OH252101   6.373   2.585   0.001 -0.4188 -0.2210 -0.1711
10229TIP3    H152102   6.347   2.544  -0.082 -0.9567  0.6603 -0.4371
10229TIP3    H252103   6.353   2.518   0.067 -1.1411 -0.4555 -0.6199
10230TIP3   OH252104   1.303   1.398  15.141 -0.5509 -0.1707  0.4987
10230TIP3    H152105   1.219   1.391  15.095 -1.0584 -0.2563  1.4154
10230TIP3    H252106   1.321   1.309  15.172  0.4428 -0.3838 -0.6431
10231TIP3   OH252107   5.375   3.246  11.922  0.1114 -0.3639 -0.0320
10231TIP3    H152108   5.410   3.172  11.872  0.3693 -0.4156  0.2222
10231TIP3    H252109   5.281   3.241  11.910  0.0517 -1.3318  0.8132
10232TIP3   OH252110   4.634   0.460  16.753 -0.4833 -0.3995 -0.6126
10232TIP3    H152111   4.606   0.369  16.764  0.1790 -0.4642  0.5807
10232TIP3    H252112   4.711   0.455  16.696 -0.1915 -0.6223 -0.1937
10233TIP3   OH252113   2.526   6.196   5.690  0.6812  0.1849  0.0914
10233TIP3    H152114   2.460   6.161   5.630 -0.6219 -0.8651  2.0749
10233TIP3    H252115   2.594   6.128   5.692 -1.1462 -1.6916  2.7854
10234TIP3   OH252116   5.235   4.049   1.717 -0.4156 -0.5799 -0.2940
10234TIP3    H152117   5.327   4.048   1.692 -0.2728  0.4656  0.1868
10234TIP3    H252118   5.188   4.049   1.634  0.0227 -0.3819 -0.5438
10235TIP3   OH252119   2.475   3.222   2.879  0.1866 -0.4038  0.2231
10235TIP3    H152120   2.389   3.179   2.872 -0.7534  1.5681 -0.5164
10235TIP3    H252121   2.455   3.315   2.887  2.2732  0.0731  0.1087
10236TIP3   OH252122   2.013   3.900  11.179 -0.2342 -0.5421 -0.4721
10236TIP3    H152123   2.084   3.854  11.222 -0.6502 -2.5921 -1.9208
10236TIP3    H252124   2.056   3.962  11.120  0.3298  0.0364  0.5416
10237TIP3   OH252125   5.791   4.516  16.235 -0.2894 -0.1339 -0.6367
10237TIP3    H152126   5.838   4.597  16.216 -0.5537  0.0366 -0.5640
10237TIP3    H252127   5.727   4.540  16.301  1.4554 -1.0047  1.4283
10238TIP3   OH252128   3.196   3.470   4.215 -0.3734  0.2662  0.0257
10238TIP3    H152129   3.236   3.477   4.128 -0.3584 -1.6115 -0.1325
10238TIP3    H252130   3.134   3.543   4.219 -1.5945 -0.6127 -2.2077
10239TIP3   OH252131   5.511   6.705   5.227  0.4985 -0.0649 -0.3521
10239TIP3    H152132   5.441   6.640   5.230  0.3553 -0.0440 -2.4793
10239TIP3    H252133   5.487   6.763   5.155  1.6561  1.1586  0.2294
10240TIP3   OH252134   3.603   2.151  15.205  0.0509  0.2339 -0.2443
10240TIP3    H152135   3.616   2.118  15.294 -0.0239  0.1794 -0.2557
10240TIP3    H252136   3.615   2.075  15.149 -0.5220  0.1466 -0.2436
10241TIP3   OH252137   6.455   3.827   2.437  0.7787  0.5835 -0.3449
10241TIP3    H152138   6.460   3.922   2.450 -2.8848  0.8964 -0.8694
10241TIP3    H252139   6.430   3.792   2.523  0.0313  0.3057 -0.6724
10242TIP3   OH252140   2.630   5.493  13.668  0.2465 -0.8771  0.3670
10242TIP3    H152141   2.636   5.588  13.656 -1.1000 -0.8358 -0.0874
10242TIP3    H252142   2.715   5.460  13.638  0.9445  0.2337  1.0972
10243TIP3   OH252143   0.919   1.585   6.189 -0.4130  0.8399  0.1809
10243TIP3    H152144   0.911   1.491   6.176  0.2213  0.8348 -0.2275
10243TIP3    H252145   0.838   1.611   6.233 -0.8469  0.2012 -0.2329
10244TIP3   OH252146   0.905   4.024   1.696 -0.0905 -0.6561 -0.7459
10244TIP3    H152147   0.981   4.028   1.755 -0.3161 -0.4965 -0.4663
10244TIP3    H252148   0.847   4.093   1.727 -0.4614 -0.9411 -0.8024
10245TIP3   OH252149   1.306   0.292   0.102  0.2800  0.2395 -0.4497
10245TIP3    H152150   1.260   0.362   0.055 -0.5599 -1.4906 -2.3005
10245TIP3    H252151   1.241   0.257   0.163  0.1290 -0.1235 -0.8183
10246TIP3   OH252152   2.789   2.921  16.509  0.2096  0.1985 -0.2803
10246TIP3    H152153   2.799   2.990  16.573  1.6276  0.4095 -0.7130
10246TIP3    H252154   2.847   2.946  16.436  1.4828 -1.8902 -0.0408
10247TIP3   OH252155   1.809   1.929  17.102 -0.5106 -0.1270  0.0896
10247TIP3    H152156   1.866   1.878  17.160  1.3248  3.2016  1.3440
10247TIP3    H252157   1.752   1.977  17.162 -1.3444  0.2645 -1.0144
10248TIP3   OH252158   1.055   1.127  17.129 -0.0641 -0.0135 -0.1519
10248TIP3    H152159   0.995   1.183  17.080 -1.7935 -0.9316  0.8474
10248TIP3    H252160   1.119   1.098  17.065  0.7328  2.8868 -0.7555
10249TIP3   OH252161   2.446   0.482  14.694  0.3226 -0.1984 -0.6437
10249TIP3    H152162   2.413   0.394  14.678 -0.7256 -0.0897  0.8098
10249TIP3    H252163   2.528   0.486  14.646  0.0590 -1.7481 -1.2536
10250TIP3   OH252164   2.041   6.179  12.288 -0.3338  0.2176 -0.9401
10250TIP3    H152165   2.025   6.262  12.243 -1.2491  0.3280 -0.4317
10250TIP3    H252166   2.126   6.150  12.256 -0.0054  1.3574 -1.1272
10251TIP3   OH252167   2.195   3.243   1.863  0.5770 -0.1682 -0.3756
10251TIP3    H152168   2.158   3.297   1.792 -0.4735 -0.6108 -0.1609
10251TIP3    H252169   2.255   3.184   1.818  0.1464 -0.2425 -0.8628
10252TIP3   OH252170   5.949   0.320   2.246  0.3285 -0.3621  0.2362
10252TIP3    H152171   5.983   0.394   2.195  0.0805  1.8984  3.2295
10252TIP3    H252172   6.011   0.249   2.230  1.0199  0.7055 -2.0598
10253TIP3   OH252173   2.584   0.311   1.221 -0.4770  0.1124  0.2633
10253TIP3    H152174   2.632   0.254   1.281 -0.7893  0.6795  1.0715
10253TIP3    H252175   2.516   0.256   1.183  0.1548 -0.4278 -0.0922
10254TIP3   OH252176   5.718   4.757   2.335 -0.2419  0.1470  0.1982
10254TIP3    H152177   5.642   4.806   2.367  0.7005  0.6133  1.7764
10254TIP3    H252178   5.792   4.794   2.383  0.9525 -0.4948 -1.1216
10255TIP3   OH252179   2.310   6.511  12.925  0.4432  0.8926  0.1885
10255TIP3    H152180   2.379   6.504  12.859  1.3186  0.7619  1.1102
10255TIP3    H252181   2.346   6.571  12.991 -0.8811  1.9388 -0.0185
10256TIP3   OH252182   2.016   5.813  13.692  0.2074  0.3118  0.3844
10256TIP3    H152183   1.969   5.892  13.665 -0.4271 -0.5419 -1.0463
10256TIP3    H252184   2.072   5.792  13.618 -1.1352 -1.7501 -0.0656
10257TIP3   OH252185   6.341   6.623  16.221  0.3042  0.2378 -0.4238
10257TIP3    H152186   6.355   6.530  16.239  1.2330  0.5213  0.3677
10257TIP3    H252187   6.340   6.629  16.126  1.9625 -0.3417 -0.4902
10258TIP3   OH252188   4.972   5.293   0.896 -0.2414 -0.5672  0.1517
10258TIP3    H152189   4.981   5.241   0.976 -1.7486 -0.3513  0.4753
10258TIP3    H252190   5.028   5.248   0.833  0.2364 -1.2804  1.0647
10259TIP3   OH252191   1.870   4.498  10.541  0.0888 -0.4483 -0.6281
10259TIP3    H152192   1.799   4.497  10.605  0.2091 -0.4368 -0.4958
10259TIP3    H252193   1.887   4.591  10.526 -0.3611 -0.4442 -1.1401
10260TIP3   OH252194   5.381   0.733   3.580  0.4791 -0.1031  0.3870
10260TIP3    H152195   5.425   0.649   3.594 -0.8362 -1.2056 -1.8454
10260TIP3    H252196   5.385   0.746   3.486  0.4517  2.2611  0.6875
10261TIP3   OH252197   2.771   0.450  13.451  0.2950  0.1216 -0.0562
10261TIP3    H152198   2.760   0.477  13.359 -2.1247  0.3718  0.2574
10261TIP3    H252199   2.767   0.532  13.500  1.4210 -0.0290  0.2998
10262TIP3   OH252200   0.122   2.567  13.457 -0.0319  0.3503 -0.4559
10262TIP3    H152201   0.083   2.483  13.482 -0.4503  1.2061  1.8164
10262TIP3    H252202   0.141   2.611  13.540  0.6829  2.2942 -1.6135
10263TIP3   OH252203   5.509   6.208   5.411  0.4621  0.0749  0.1722
10263TIP3    H152204   5.583   6.217   5.351 -0.0714  0.7275 -0.3981
10263TIP3    H252205   5.532   6.134   5.467  1.8247  0.6512  0.3940
10264TIP3   OH252206   0.267   0.495  16.522  0.0130 -0.2233 -0.1033
10264TIP3    H152207   0.348   0.527  16.481 -1.0850  0.7326 -1.5970
10264TIP3    H252208   0.297   0.440  16.595  2.0094 -0.5345 -1.1152
10265TIP3   OH252209   2.538   2.764   4.872  0.7179 -0.3064  0.0498
10265TIP3    H152210   2.455   2.805   4.848  0.5197 -0.0397  1.1567
10265TIP3    H252211   2.579   2.741   4.789 -1.2332 -2.0080 -0.4730
10266TIP3   OH252212   4.239   0.619   0.152 -0.2468  0.4297  0.1467
10266TIP3    H152213   4.319   0.626   0.099 -0.0412 -0.8385  0.2816
10266TIP3    H252214   4.176   0.574   0.096 -0.0923 -0.7365  0.8822
10267TIP3   OH252215   2.950   6.435   4.201  0.0135 -0.1633 -0.5381
10267TIP3    H152216   2.863   6.397   4.193  0.2284 -0.5271 -1.2299
10267TIP3    H252217   2.935   6.525   4.229 -0.5832 -0.1980 -0.7471
10268TIP3   OH252218   1.348   2.108   5.712 -0.5572  0.2041 -0.0603
10268TIP3    H152219   1.300   2.042   5.762 -2.2201  1.6591  0.3253
10268TIP3    H252220   1.438   2.076   5.709 -1.5419 -2.5823 -0.7970
10269TIP3   OH252221   5.749   0.948   5.658 -0.3828  0.4635  0.2614
10269TIP3    H152222   5.791   1.004   5.723  2.7459 -0.9217 -0.5019
10269TIP3    H252223   5.748   0.861   5.698 -0.2918  0.0051 -0.7103
10270TIP3   OH252224   2.824   0.077   0.604 -0.1929  0.4104 -0.2684
10270TIP3    H152225   2.868   0.131   0.669  0.6616  0.6736 -1.0565
10270TIP3    H252226   2.796  -0.001   0.653 -2.8950  2.2234  1.2492
10271TIP3   OH252227   1.241   2.927   2.272 -0.0897  0.1830  0.1505
10271TIP3    H152228   1.207   3.017   2.267 -2.3494 -0.6451 -0.2711
10271TIP3    H252229   1.335   2.937   2.287 -0.6115  2.6158  2.2382
10272TIP3   OH252230   5.074   5.772   1.611  0.2931 -0.3335 -0.1275
10272TIP3    H152231   5.077   5.679   1.630  1.3606 -0.3890 -0.5485
10272TIP3    H252232   5.125   5.813   1.680 -0.3671 -0.0351  0.1880
10273TIP3   OH252233   3.826   0.016  12.801  0.4731  0.3458 -0.3187
10273TIP3    H152234   3.830   0.007  12.706  1.0259  0.7148 -0.3342
10273TIP3    H252235   3.766  -0.053  12.830  0.1351  0.3711 -0.9518
10274TIP3   OH252236   0.988   1.181   0.790 -0.1028 -0.2857 -1.1142
10274TIP3    H152237   1.016   1.091   0.773 -0.3891 -1.0277  2.0316
10274TIP3    H252238   1.062   1.221   0.835 -0.5075  0.6436 -1.2571
10275TIP3   OH252239   0.793   4.058  10.478 -0.3345  0.0108  0.1250
10275TIP3    H152240   0.770   4.052  10.571 -2.3050  0.5092 -0.2959
10275TIP3    H252241   0.878   4.102  10.477 -0.6772  0.7453  1.6580
10276TIP3   OH252242   2.389   4.819   4.065 -0.4013 -0.4408 -0.1569
10276TIP3    H152243   2.481   4.792   4.061 -0.9284 -2.3033 -0.2317
10276TIP3    H252244   2.374   4.867   3.983  0.8267  1.0013  0.4413
10277TIP3   OH252245   0.588   0.460   0.881  0.0344  0.1199  0.2147
10277TIP3    H152246   0.617   0.530   0.939  0.0984  0.0805  0.2304
10277TIP3    H252247   0.669   0.424   0.845  0.0224 -0.2303  0.5330
10278TIP3   OH252248   2.849   4.998   4.433  0.4525 -0.0105 -0.5904
10278TIP3    H152249   2.922   5.050   4.467  1.3772 -0.5307 -1.7473
10278TIP3    H252250   2.771   5.050   4.455  1.3143  1.6379 -1.3040
10279TIP3   OH252251   1.777   2.665   3.195  0.0813  0.0954  0.1320
10279TIP3    H152252   1.797   2.742   3.142  1.3640 -1.5815 -1.9326
10279TIP3    H252253   1.690   2.637   3.166  0.6307 -0.6094 -0.8848
10280TIP3   OH252254   1.522   5.751  12.718  0.6305  0.5983 -0.0347
10280TIP3    H152255   1.521   5.656  12.705  2.0038  0.5492  0.0816
10280TIP3    H252256   1.433   5.773  12.745  0.4709 -0.7570  0.5961
10281TIP3   OH252257   5.853   2.432   4.962 -0.0086  0.8809 -0.0197
10281TIP3    H152258   5.910   2.408   5.035  1.2621  1.3652 -0.8374
10281TIP3    H252259   5.786   2.364   4.961  0.1678  0.6698  1.3752
10282TIP3   OH252260   5.066   5.127   5.496  0.6181  0.2213 -0.7204
10282TIP3    H152261   5.098   5.184   5.566 -2.6597 -0.1059  1.1285
10282TIP3    H252262   5.084   5.038   5.527  0.3529  0.1066 -0.8928
10283TIP3   OH252263   0.825   0.853   4.781  0.2548  0.1778  0.2482
10283TIP3    H152264   0.913   0.817   4.794  0.2345  1.0568  3.2707
10283TIP3    H252265   0.768   0.777   4.770  1.4172 -0.3888 -2.2521
10284TIP3   OH252266   2.453   2.998  17.239 -0.4440  0.1548 -0.0794
10284TIP3    H152267   2.428   3.052  17.164 -1.5086 -0.3969 -0.1268
10284TIP3    H252268   2.531   2.952  17.210  0.5720  1.7681  0.0146
10285TIP3   OH252269   1.539   2.243   0.200  0.0056 -0.4571 -0.3847
10285TIP3    H152270   1.480   2.187   0.250  1.2093 -1.0185  0.4519
10285TIP3    H252271   1.573   2.305   0.265 -1.6319  1.5595 -1.3729
10286TIP3   OH252272   6.189   5.221   5.257 -0.0031  0.6774 -0.5323
10286TIP3    H152273   6.258   5.176   5.209 -1.3242 -1.1830 -0.7225
10286TIP3    H252274   6.120   5.235   5.191 -0.7518  0.4431  0.1978
10287TIP3   OH252275   6.563   6.138   0.664 -0.8081 -0.3122 -0.4519
10287TIP3    H152276   6.621   6.193   0.717  0.8038 -1.3262 -1.1234
10287TIP3    H252277   6.505   6.097   0.728 -0.1389 -0.0241  0.3544
10288TIP3   OH252278   6.378   0.226   1.379 -0.0362 -0.2105 -0.5133
10288TIP3    H152279   6.375   0.198   1.288 -1.3498 -1.3691 -0.1428
10288TIP3    H252280   6.333   0.310   1.381  0.3313 -0.0051 -0.9947
10289TIP3   OH252281   1.780   6.756   0.401 -0.3097 -0.0030 -0.1129
10289TIP3    H152282   1.771   6.687   0.467  0.8499 -1.7593 -1.7276
10289TIP3    H252283   1.843   6.817   0.439 -0.1193 -0.6797  0.6772
10290TIP3   OH252284   6.595   3.626   6.124  0.2048  0.7737  0.1107
10290TIP3    H152285   6.682   3.592   6.146  0.7743  0.9235 -1.8263
10290TIP3    H252286   6.535   3.557   6.153  0.9846  0.4771  1.0626
10291TIP3   OH252287   5.324   5.969  16.934 -0.2983  0.0977 -0.7078
10291TIP3    H152288   5.238   5.996  16.965  0.6705  1.6820  0.7445
10291TIP3    H252289   5.325   5.874  16.943 -1.3384  0.2148  0.7507
10292TIP3   OH252290   1.430   3.282  11.225  0.4399  0.1500 -0.1225
10292TIP3    H152291   1.459   3.194  11.201  0.1183  0.1406 -0.4853
10292TIP3    H252292   1.435   3.332  11.143  0.2882  0.3770  0.0050
10293TIP3   OH252293   3.337   1.377   5.600  0.2119  0.2209 -0.1009
10293TIP3    H152294   3.385   1.459   5.594 -0.2357  0.7258  2.6281
10293TIP3    H252295   3.245   1.404   5.611 -0.1330 -0.6625 -0.7799
10294TIP3   OH252296   0.755   0.112  12.292  0.4592  0.2558  0.4321
10294TIP3    H152297   0.717   0.057  12.223  1.0391 -1.0332  1.1142
10294TIP3    H252298   0.679   0.148  12.338  0.0705  1.0233 -0.7901
10295TIP3   OH252299   4.545   1.362   3.815 -0.0524 -0.7804  0.0657
10295TIP3    H152300   4.517   1.371   3.906 -0.6559  2.0612 -0.3583
10295TIP3    H252301   4.465   1.341   3.767 -0.9367  3.7836 -0.6309
10296TIP3   OH252302   6.757   5.084  13.067 -0.3055 -0.2572 -0.7751
10296TIP3    H152303   6.830   5.023  13.054  0.7921  1.0289 -0.7296
10296TIP3    H252304   6.760   5.105  13.161 -1.0451 -0.5838 -0.6751
10297TIP3   OH252305   5.046   1.436  10.904 -0.0224  0.1177 -0.2073
10297TIP3    H152306   5.049   1.426  11.000  3.2955  1.0960 -0.1564
10297TIP3    H252307   5.088   1.357  10.871  0.4149  0.6004 -0.8027
10298TIP3   OH252308   1.793   6.260  12.362 -0.7308 -1.1829 -0.1716
10298TIP3    H152309   1.871   6.215  12.328  0.6887  0.4496  0.8369
10298TIP3    H252310   1.799   6.248  12.457 -1.0639 -0.0227 -0.0022
10299TIP3   OH252311   1.654   2.738   5.469  0.3604  0.7191 -0.2041
10299TIP3    H152312   1.603   2.681   5.527  0.3525 -0.8533 -1.6887
10299TIP3    H252313   1.589   2.781   5.414  0.4883  0.6060 -0.4458
10300TIP3   OH252314   1.969   0.024   4.627  0.0360  0.0457  0.0540
10300TIP3    H152315   1.982   0.007   4.721  1.5077 -0.7057 -0.2817
10300TIP3    H252316   2.049  -0.006   4.586 -1.2736 -1.1751 -1.6659
10301TIP3   OH252317   0.544   1.910   0.489  0.6007  0.1133 -0.3566
10301TIP3    H152318   0.547   1.815   0.480  1.4350  0.2890 -2.1651
10301TIP3    H252319   0.474   1.937   0.429 -0.1254  0.6035  0.6826
10302TIP3   OH252320   0.874   1.505  15.187  0.3979  0.3480 -0.6924
10302TIP3    H152321   0.874   1.590  15.232 -0.0656 -0.0571  0.0744
10302TIP3    H252322   0.854   1.442  15.256 -0.7955 -0.2273 -1.5633
10303TIP3   OH252323   1.051   2.530   4.635 -0.3297 -0.6319  0.0511
10303TIP3    H152324   1.045   2.562   4.725 -0.4729 -0.5990  0.0291
10303TIP3    H252325   1.011   2.600   4.582  0.0496 -0.5036 -0.0687
10304TIP3   OH252326   0.438   0.218  13.942 -0.2006  0.2954 -0.4454
10304TIP3    H152327   0.374   0.159  13.903 -0.6912  0.7546 -0.3304
10304TIP3    H252328   0.390   0.299  13.959 -0.1704 -0.1129  1.7080
10305TIP3   OH252329   3.820   0.830   3.670 -0.3055 -0.1119  0.5044
10305TIP3    H152330   3.772   0.912   3.676 -1.4840 -0.7145 -0.5186
10305TIP3    H252331   3.876   0.840   3.593  1.1299  0.5246  1.5965
10306TIP3   OH252332   0.895   4.924  11.197  0.6047 -0.1495 -0.2623
10306TIP3    H152333   0.962   4.861  11.224 -0.0716 -0.7187  0.1130
10306TIP3    H252334   0.838   4.933  11.274  0.0896  0.1187 -0.6720
10307TIP3   OH252335   2.647   0.189   3.896 -0.0114 -0.1080  0.6002
10307TIP3    H152336   2.592   0.267   3.886 -2.6568 -2.0389 -0.4056
10307TIP3    H252337   2.590   0.125   3.939  1.5235 -2.1018 -0.2709
10308TIP3   OH252338   2.064   3.723   3.724 -0.3459  0.1449 -0.4295
10308TIP3    H152339   2.114   3.700   3.802 -0.1757  2.8547  0.3254
10308TIP3    H252340   1.977   3.686   3.739  0.1103 -0.6280  0.3448
10309TIP3   OH252341   2.625   6.309  16.742  0.1431  0.5541 -0.0819
10309TIP3    H152342   2.612   6.403  16.756  0.5536  0.5458  0.3634
10309TIP3    H252343   2.714   6.303  16.706 -0.5123  0.4865 -1.7234
10310TIP3   OH252344   5.125   6.594   2.168 -0.1913  0.7216  0.1048
10310TIP3    H152345   5.040   6.562   2.197 -0.4460  1.9426  0.7389
10310TIP3    H252346   5.162   6.522   2.117 -0.4061 -0.8853  2.1459
10311TIP3   OH252347   3.921   5.923   5.007  0.4384  0.5146  0.2655
10311TIP3    H152348   3.826   5.930   5.019  0.3918  1.1636 -0.4233
10311TIP3    H252349   3.932   5.843   4.955  0.2870  0.3064  0.5530
10312TIP3   OH252350   4.264   0.811   4.669  0.3577 -0.2400 -0.2101
10312TIP3    H152351   4.260   0.876   4.599  1.1907  0.9818  0.8266
10312TIP3    H252352   4.337   0.754   4.645 -0.1675 -0.5876 -0.9650
10313TIP3   OH252353   0.859   1.713  14.608 -0.2166 -0.1977 -0.0411
10313TIP3    H152354   0.863   1.710  14.703  0.6037 -1.2825 -0.1065
10313TIP3    H252355   0.848   1.622  14.581  0.2242  0.0261 -1.0190
10314TIP3   OH252356   6.280   0.226  10.829  0.1204  0.3276  0.3404
10314TIP3    H152357   6.349   0.277  10.871  2.3747 -1.7190 -0.8293
10314TIP3    H252358   6.311   0.212  10.739 -2.3794  0.4211 -0.5870
10315TIP3   OH252359   6.297   6.165  11.692  0.3483  0.5392 -0.2672
10315TIP3    H152360   6.220   6.182  11.639 -0.7788  0.8480  1.4405
10315TIP3    H252361   6.366   6.145  11.628 -1.2347 -0.2101 -1.7835
10316TIP3   OH252362   4.708   3.521   1.305 -0.0945 -0.1436 -0.3810
10316TIP3    H152363   4.642   3.590   1.303  0.3228  0.2655 -0.2002
10316TIP3    H252364   4.679   3.457   1.240  0.3480  0.9814 -1.7173
10317TIP3   OH252365   6.613   1.667  15.135 -0.3171  0.1413  0.0130
10317TIP3    H152366   6.549   1.600  15.160  0.1728 -0.5257 -0.4984
10317TIP3    H252367   6.694   1.640  15.179  0.3474 -0.6111 -1.6447
10318TIP3   OH252368   5.086   0.736  14.748  0.3514 -0.0192 -0.4434
10318TIP3    H152369   5.170   0.781  14.750  0.5874 -0.4801  0.3450
10318TIP3    H252370   5.056   0.743  14.657  1.6682 -0.6271 -0.9333
10319TIP3   OH252371   3.933   0.076   2.653  0.4526  0.2917 -0.0728
10319TIP3    H152372   3.902  -0.014   2.644 -1.9847  1.2062 -0.9222
10319TIP3    H252373   3.942   0.088   2.748  2.1220 -1.2447  0.0068
10320TIP3   OH252374   4.519   4.382  12.681 -0.0981  0.3823 -0.0569
10320TIP3    H152375   4.466   4.450  12.722  0.3863  1.6669 -1.5128
10320TIP3    H252376   4.483   4.373  12.593 -0.3031 -1.4263  0.1946
10321TIP3   OH252377   3.584   6.261  13.514 -0.3166  0.6238  0.2277
10321TIP3    H152378   3.640   6.339  13.521  0.1331  0.1245  2.5778
10321TIP3    H252379   3.638   6.190  13.549 -2.2290  0.0342  2.0759
10322TIP3   OH252380   5.196   1.372  11.933 -0.1843  0.4480 -0.4696
10322TIP3    H152381   5.272   1.371  11.874 -1.0498  0.2940 -1.6092
10322TIP3    H252382   5.192   1.282  11.967  3.1591  1.7177  3.6142
10323TIP3   OH252383   2.019   6.370   1.991 -0.7546  0.5316  0.0276
10323TIP3    H152384   2.081   6.398   2.059 -0.0062 -0.2674 -0.3199
10323TIP3    H252385   1.973   6.296   2.030 -2.3460  1.8508  0.7349
10324TIP3   OH252386   4.134   4.227  13.240 -0.0808 -0.2272  0.2938
10324TIP3    H152387   4.221   4.210  13.204 -1.0153  0.7327 -2.5181
10324TIP3    H252388   4.073   4.192  13.175 -1.8232  0.9960  1.2115
10325TIP3   OH252389   6.157   5.161  12.486 -0.1401  0.0165 -0.2622
10325TIP3    H152390   6.116   5.104  12.551 -1.3810  0.8740 -0.2816
10325TIP3    H252391   6.099   5.236  12.479  0.1052  0.0684 -2.1831
10326TIP3   OH252392   5.426   3.134  11.044  0.3200 -0.4201 -0.4623
10326TIP3    H152393   5.509   3.129  11.092 -0.1474  0.5673  0.4593
10326TIP3    H252394   5.432   3.217  10.996 -0.1798 -0.2970 -0.3114
10327TIP3   OH252395   1.415   5.636   3.056 -0.0149  0.1356  0.2354
10327TIP3    H152396   1.362   5.589   3.119  0.0236  0.3931  0.4606
10327TIP3    H252397   1.487   5.577   3.035 -0.0135  0.0623  0.4517
10328TIP3   OH252398   0.236   2.787   2.260 -0.0459  0.1750  0.1970
10328TIP3    H152399   0.144   2.788   2.285 -0.3071 -0.3365 -0.7063
10328TIP3    H252400   0.266   2.877   2.275 -1.2813  0.9117 -1.5602
10329TIP3   OH252401   0.168   5.260   4.617 -0.1342  0.1174 -0.2250
10329TIP3    H152402   0.221   5.241   4.695 -0.3252 -0.1181 -0.1520
10329TIP3    H252403   0.109   5.185   4.609  1.6384 -1.1594 -2.0972
10330TIP3   OH252404   3.854   6.201  13.046  0.5445  0.5721 -0.1245
10330TIP3    H152405   3.892   6.231  12.963 -1.4809  1.4795 -0.7557
10330TIP3    H252406   3.825   6.281  13.090 -2.4390 -0.1839 -0.5957
10331TIP3   OH252407   5.216   0.434   2.995 -0.2912 -0.2646  0.0002
10331TIP3    H152408   5.214   0.530   3.004 -0.5647 -0.1821 -0.8761
10331TIP3    H252409   5.194   0.419   2.903  1.0139 -1.1091 -0.1864
10332TIP3   OH252410   1.443   2.110  11.219 -0.4654 -0.3496  0.8592
10332TIP3    H152411   1.423   2.017  11.221 -0.1734 -0.4054  1.2181
10332TIP3    H252412   1.462   2.129  11.127 -1.0640 -0.5293  0.7034
10333TIP3   OH252413   1.923   4.461  15.319  0.2114  0.4354 -0.3637
10333TIP3    H152414   1.941   4.380  15.272  0.9366  0.6021 -0.3650
10333TIP3    H252415   1.983   4.525  15.282  1.3132  0.3887  1.2982
10334TIP3   OH252416   1.154   1.378   6.783  0.7289  0.3834  0.2529
10334TIP3    H152417   1.142   1.454   6.725  2.5855  0.7186  0.2964
10334TIP3    H252418   1.217   1.323   6.738 -0.0062 -0.7740  0.6077
10335TIP3   OH252419   3.116   3.874   0.682 -0.0953  0.7263  0.2813
10335TIP3    H152420   3.150   3.786   0.696  0.6128  1.1611  1.4154
10335TIP3    H252421   3.192   3.926   0.656 -0.1811  1.3621  1.2663
10336TIP3   OH252422   1.445   1.708   4.309  0.3350  1.0684  0.2444
10336TIP3    H152423   1.407   1.758   4.238 -0.6839  1.2052  0.8811
10336TIP3    H252424   1.483   1.774   4.368 -1.8796  1.1758  1.5909
10337TIP3   OH252425   5.374   2.876   0.737  0.3737 -0.3020 -0.0722
10337TIP3    H152426   5.371   2.971   0.750 -3.0078 -0.1148 -1.6601
10337TIP3    H252427   5.410   2.866   0.649  0.1646 -0.4899 -0.1344
10338TIP3   OH252428   4.338   0.009  12.378  0.3844  0.1477 -0.5963
10338TIP3    H152429   4.316  -0.059  12.441 -0.1484 -0.1964 -1.1488
10338TIP3    H252430   4.429  -0.009  12.352  0.2020 -0.4272 -0.8353
10339TIP3   OH252431   4.784   4.232  11.189  0.7859  0.2531 -0.3347
10339TIP3    H152432   4.695   4.264  11.206  0.8398  1.0681 -1.5322
10339TIP3    H252433   4.784   4.208  11.096  2.4342  2.3875 -0.9420
10340TIP3   OH252434   5.322   0.509  12.099 -0.0355  0.0024  0.5604
10340TIP3    H152435   5.348   0.595  12.066  0.3489 -0.9302 -1.7020
10340TIP3    H252436   5.378   0.448  12.052 -2.8076 -1.7320 -0.6346
10341TIP3   OH252437   0.123   2.812  13.792  0.0643 -0.2020  0.1240
10341TIP3    H152438   0.152   2.894  13.752 -1.2200  0.4984  0.6113
10341TIP3    H252439   0.109   2.833  13.884  0.4950 -1.1740  0.4244
10342TIP3   OH252440   3.757   5.177   2.429  0.5624  0.1391  0.5247
10342TIP3    H152441   3.665   5.190   2.408  1.2531 -0.0571 -3.0118
10342TIP3    H252442   3.759   5.101   2.487 -1.3980 -0.5254 -0.2596
10343TIP3   OH252443   5.153   4.529   1.899  0.3525  0.5668 -0.2631
10343TIP3    H152444   5.156   4.435   1.914  0.2459  0.1120 -2.9779
10343TIP3    H252445   5.245   4.555   1.890  0.2909  0.4138 -1.3408
10344TIP3   OH252446   1.107   1.019  10.967  0.2604  0.0590  0.0835
10344TIP3    H152447   1.037   0.959  10.994 -0.8458  1.5793  0.6879
10344TIP3    H252448   1.142   1.053  11.050 -0.3599  1.6212 -0.2893
10345TIP3   OH252449   2.079   0.072   4.034 -0.3868  0.7504  1.0149
10345TIP3    H152450   2.117  -0.015   4.028  1.5616  1.6521 -0.3785
10345TIP3    H252451   2.085   0.095   4.127 -0.8970 -0.5678  1.3794
10346TIP3   OH252452   2.023   2.065   5.903 -0.6333  0.2614 -0.1738
10346TIP3    H152453   1.956   2.105   5.848  0.0670  1.3986 -0.2383
10346TIP3    H252454   2.069   2.140   5.942 -0.2823 -0.5181  0.9289
10347TIP3   OH252455   4.264   0.910  14.303 -0.2169  0.1748 -0.2573
10347TIP3    H152456   4.279   0.890  14.211  0.9613 -1.5466  0.2749
10347TIP3    H252457   4.226   0.997  14.303  1.0104  0.7446 -2.3070
10348TIP3   OH252458   2.109   2.577   5.858 -0.1818  0.8364 -0.5257
10348TIP3    H152459   2.191   2.625   5.869 -0.2048  0.6015  0.6385
10348TIP3    H252460   2.080   2.557   5.946 -1.4885  0.8909 -0.9254
10349TIP3   OH252461   1.082   3.243  14.326 -0.5270  0.1264  0.1057
10349TIP3    H152462   1.029   3.218  14.402 -1.8296 -2.2250 -1.5146
10349TIP3    H252463   1.034   3.316  14.286 -1.0515 -0.1363  0.2527
10350TIP3   OH252464   1.233   6.097   3.901  0.3121  0.0257  0.2181
10350TIP3    H152465   1.274   6.167   3.849 -2.0534  0.5763 -0.9633
10350TIP3    H252466   1.151   6.135   3.930  0.0081 -1.5380  1.4071
10351TIP3   OH252467   3.169   4.408  16.302  0.3319  0.0333 -0.2276
10351TIP3    H152468   3.105   4.424  16.371  0.1001 -2.0683  0.0981
10351TIP3    H252469   3.120   4.414  16.221  0.0144 -0.1526 -0.0512
10352TIP3   OH252470   2.998   6.481  12.095 -0.3125 -0.3180 -0.4157
10352TIP3    H152471   2.963   6.443  12.014 -0.5616  0.1488 -0.5262
10352TIP3    H252472   2.981   6.575  12.087 -2.2793 -0.5118  1.1320
10353TIP3   OH252473   4.587   0.624   1.063 -0.1109 -0.0664 -0.0832
10353TIP3    H152474   4.548   0.579   1.139 -0.5549 -0.6888 -0.6724
10353TIP3    H252475   4.666   0.574   1.043  1.4049  1.6155  1.5496
10354TIP3   OH252476   0.600   2.044  13.852  0.7097 -0.4252  0.8416
10354TIP3    H152477   0.564   2.001  13.775  1.2484  0.4233  0.1108
10354TIP3    H252478   0.586   2.137  13.836 -0.1206 -0.2904  2.2434
10355TIP3   OH252479   0.802   6.385  13.095  0.2708  0.1167 -0.0318
10355TIP3    H152480   0.860   6.454  13.064 -0.8604  2.1894  2.2844
10355TIP3    H252481   0.860   6.321  13.136  1.0378  1.7489  1.5102
10356TIP3   OH252482   1.392   1.965   0.870  0.0832 -0.1605  0.2543
10356TIP3    H152483   1.401   2.060   0.862  0.5721 -0.2842 -0.6684
10356TIP3    H252484   1.327   1.942   0.805 -0.9320 -0.3167  1.3041
10357TIP3   OH252485   4.609   0.468   5.492 -0.2033 -0.5449  0.0784
10357TIP3    H152486   4.650   0.551   5.469 -0.9820 -0.4568 -1.0150
10357TIP3    H252487   4.561   0.487   5.573 -1.5095  0.4353 -0.9134
10358TIP3   OH252488   1.795   2.606   5.724 -0.5282 -0.1564  0.3402
10358TIP3    H152489   1.870   2.624   5.780 -1.0701 -0.9647  1.3483
10358TIP3    H252490   1.771   2.691   5.687 -0.6269  0.5097  1.9247
10359TIP3   OH252491   1.129   5.343  11.421 -0.4344  0.2197  0.2577
10359TIP3    H152492   1.212   5.357  11.467 -0.6485  0.2455  0.6411
10359TIP3    H252493   1.132   5.252  11.394  0.5136  0.6949 -1.3302
10360TIP3   OH252494   1.158   3.587  17.176 -0.1742  0.1014  0.2721
10360TIP3    H152495   1.099   3.595  17.101  1.5843  0.8740 -1.0520
10360TIP3    H252496   1.184   3.495  17.176 -0.7434 -0.0599  0.3660
10361TIP3   OH252497   2.455   3.517  12.247  0.0238 -0.0908 -0.4587
10361TIP3    H152498   2.438   3.452  12.315 -0.7108  0.8474  0.2575
10361TIP3    H252499   2.523   3.477  12.192 -0.3086 -1.3873  0.0683
10362TIP3   OH252500   2.081   6.725  14.402 -0.0573  0.4907  0.0313
10362TIP3    H152501   2.112   6.811  14.429 -0.0682  0.2590  0.8017
10362TIP3    H252502   2.143   6.697  14.334  1.4049  0.0507  1.5281
10363TIP3   OH252503   4.717   0.566  15.116  0.1228  0.6432  0.5770
10363TIP3    H152504   4.776   0.583  15.043 -0.9368 -2.1717 -1.0033
10363TIP3    H252505   4.750   0.485  15.155 -1.1292  0.4813  1.3341
10364TIP3   OH252506   3.583   2.045  12.568 -0.4390  0.0041  0.0972
10364TIP3    H152507   3.552   1.960  12.596 -0.4487 -0.3758 -1.0350
10364TIP3    H252508   3.679   2.038  12.570 -0.4402 -0.0628 -0.0848
10365TIP3   OH252509   5.883   1.394  13.475  0.4316  0.1327  0.2209
10365TIP3    H152510   5.971   1.399  13.438  0.9690 -0.3311  1.4382
10365TIP3    H252511   5.861   1.484  13.498  0.4682  0.2865 -0.3272
10366TIP3   OH252512   0.619   2.056  12.038 -0.2340  0.1099 -0.1406
10366TIP3    H152513   0.640   2.083  11.949 -0.4362 -1.6546 -0.7466
10366TIP3    H252514   0.685   1.990  12.059 -1.4516 -1.0009  0.2341
10367TIP3   OH252515   4.291   5.645  15.512 -0.1582 -0.4405  0.4822
10367TIP3    H152516   4.205   5.663  15.475 -0.7613  0.4096  2.2464
10367TIP3    H252517   4.351   5.700  15.461 -0.0374 -3.7752 -3.2732
10368TIP3   OH252518   3.401   3.464  13.775 -0.4390  0.0503  0.2090
10368TIP3    H152519   3.348   3.417  13.839  0.1962 -0.9106  0.0429
10368TIP3    H252520   3.453   3.525  13.827 -0.4159 -0.2521  0.5415
10369TIP3   OH252521   2.358   5.427   6.274 -0.0315 -0.3348  0.3868
10369TIP3    H152522   2.394   5.340   6.294 -0.4926 -0.9344 -1.3423
10369TIP3    H252523   2.377   5.441   6.182 -0.0003  1.4066  0.6395
10370TIP3   OH252524   4.921   2.092  15.069  0.2374 -0.8442  0.2513
10370TIP3    H152525   4.959   2.005  15.077 -1.3768 -1.6473 -0.6366
10370TIP3    H252526   4.942   2.119  14.979 -0.8169 -1.0669 -0.0644
10371TIP3   OH252527   4.084   2.518  12.835  0.2896  0.7172 -0.5364
10371TIP3    H152528   4.143   2.568  12.778  0.7215 -2.3650 -2.8971
10371TIP3    H252529   4.141   2.481  12.902  0.3811  1.1392 -0.3788
10372TIP3   OH252530   6.307   0.497  16.699  0.2048 -0.1367 -0.3238
10372TIP3    H152531   6.273   0.483  16.610 -2.8420  1.7540  0.4687
10372TIP3    H252532   6.369   0.569  16.689 -1.8756  1.6766 -0.6093
10373TIP3   OH252533   5.450   5.146   2.118  0.1424  0.7091 -0.2819
10373TIP3    H152534   5.417   5.071   2.070  0.8064  0.8603 -0.9784
10373TIP3    H252535   5.389   5.156   2.192  0.8250 -1.3126  0.5748
10374TIP3   OH252536   3.558   0.246   2.670 -0.1125 -0.1424 -0.4224
10374TIP3    H152537   3.492   0.188   2.631  1.3100 -0.1535 -2.9203
10374TIP3    H252538   3.527   0.334   2.652 -0.2657 -0.1367 -0.1365
10375TIP3   OH252539   0.624   3.810  11.863  0.2677 -0.3205  0.4154
10375TIP3    H152540   0.610   3.726  11.909  1.3174 -0.9034 -0.2970
10375TIP3    H252541   0.570   3.804  11.785  1.4070 -0.9460 -0.3525
10376TIP3   OH252542   0.641   0.114   2.243  0.1043 -0.0994  0.2264
10376TIP3    H152543   0.625   0.041   2.184 -0.1367  0.0639  0.0910
10376TIP3    H252544   0.729   0.144   2.220  0.6993 -1.1336  1.1206
10377TIP3   OH252545   0.502   3.018   5.873 -0.1554  0.0576  0.3488
10377TIP3    H152546   0.533   3.107   5.889  0.5312 -0.1731  0.3251
10377TIP3    H252547   0.539   2.967   5.945  0.7523 -0.5012 -0.5010
10378TIP3   OH252548   4.131   2.373   1.349 -0.4379  0.2353 -0.2377
10378TIP3    H152549   4.075   2.379   1.426 -1.5847  2.1774 -1.2055
10378TIP3    H252550   4.218   2.354   1.385 -1.2222 -0.3013  1.4320
10379TIP3   OH252551   6.255   1.757   2.715  0.1658 -0.3302 -0.3379
10379TIP3    H152552   6.274   1.787   2.804  0.2481  0.2612 -0.5533
10379TIP3    H252553   6.173   1.709   2.724  1.5062 -2.5512  0.5183
10380TIP3   OH252554   4.195   5.491   2.676 -1.0472 -0.2394 -0.4865
10380TIP3    H152555   4.255   5.430   2.719  1.6348  3.2715  0.9512
10380TIP3    H252556   4.203   5.470   2.583  2.6409  0.2009 -0.3637
10381TIP3   OH252557   4.412   6.673  14.961  0.3898 -0.5818 -0.0345
10381TIP3    H152558   4.432   6.612  14.889  2.3048  1.4312 -1.2600
10381TIP3    H252559   4.414   6.759  14.921  2.1256  0.6467  2.5675
10382TIP3   OH252560   2.419   3.655   4.283 -0.1816 -0.5963  0.7989
10382TIP3    H152561   2.328   3.647   4.311 -0.2779 -1.0137  0.3730
10382TIP3    H252562   2.447   3.740   4.316 -1.3715  0.4718 -0.8706
10383TIP3   OH252563   0.168   3.312  14.138  0.0107 -0.3425  0.5469
10383TIP3    H152564   0.095   3.373  14.135  0.1953  0.2555  5.2319
10383TIP3    H252565   0.132   3.229  14.105 -1.9758  0.6535  0.1582
10384TIP3   OH252566   4.065   1.575  10.806  0.0742  0.2101  0.0678
10384TIP3    H152567   4.101   1.577  10.717  0.2037  0.1307  0.1182
10384TIP3    H252568   3.972   1.556  10.793  0.0154  0.5681 -0.0730
10385TIP3   OH252569   0.447   0.412  11.945 -0.5987 -0.0569  0.3346
10385TIP3    H152570   0.415   0.326  11.918  1.1993 -1.2504  1.8986
10385TIP3    H252571   0.507   0.439  11.876 -0.6862 -0.3450  0.1470
10386TIP3   OH252572   3.612   0.495   2.434  0.1987 -0.2804 -0.0272
10386TIP3    H152573   3.632   0.582   2.469  0.3646  0.2328 -1.3658
10386TIP3    H252574   3.691   0.469   2.388 -0.1483 -0.7950 -0.3311
10387TIP3   OH252575   3.556   1.743  16.235 -0.0692  0.4171  0.1697
10387TIP3    H152576   3.537   1.767  16.144  1.3447  0.8384 -0.0227
10387TIP3    H252577   3.573   1.649  16.232 -3.0007 -0.1974  0.5102
10388TIP3   OH252578   4.355   5.982  17.084  0.4823  0.0165  0.4707
10388TIP3    H152579   4.375   5.946  17.170 -1.4696 -1.0995  0.4865
10388TIP3    H252580   4.305   6.062  17.102  1.3741  0.6046  0.3771
10389TIP3   OH252581   3.893   4.393   1.327 -0.3182  0.3756 -0.1780
10389TIP3    H152582   3.814   4.428   1.367 -0.8865 -1.1151  0.0274
10389TIP3    H252583   3.931   4.336   1.394  0.7951  0.8584 -0.3720
10390TIP3   OH252584   0.052   0.306   5.016  0.0049  0.4119 -0.4331
10390TIP3    H152585  -0.013   0.241   4.990  0.1758  0.3320 -0.6579
10390TIP3    H252586   0.001   0.384   5.035 -0.4039 -0.3530  1.7447
10391TIP3   OH252587   5.377   3.097   5.799  0.3963 -0.3825 -0.1215
10391TIP3    H152588   5.320   3.098   5.876  1.0081  3.8016  0.3978
10391TIP3    H252589   5.317   3.091   5.725 -0.4696  0.1028  0.5303
10392TIP3   OH252590   4.585   2.928  16.741  0.3136 -0.4039  0.2395
10392TIP3    H152591   4.573   2.936  16.835 -1.2705 -1.7546  0.1927
10392TIP3    H252592   4.550   3.009  16.705  2.8467  1.0384  0.9098
10393TIP3   OH252593   4.989   3.466   1.251  0.7314 -0.5787  0.1625
10393TIP3    H152594   4.988   3.376   1.219  1.0824 -0.1255 -1.1533
10393TIP3    H252595   4.897   3.486   1.269  0.7809 -1.5973  1.6500
10394TIP3   OH252596   1.572   5.203  12.551  0.5251 -0.6749  0.5613
10394TIP3    H152597   1.502   5.138  12.541  1.4835 -1.4899 -0.9908
10394TIP3    H252598   1.611   5.184  12.636 -2.1646  0.8244  2.2112
10395TIP3   OH252599   1.986   1.699  12.487  0.5869  0.5352  0.1155
10395TIP3    H152600   1.918   1.636  12.512 -0.1595  2.0134  1.9198
10395TIP3    H252601   1.969   1.717  12.395 -1.4001  0.7668  0.5081
10396TIP3   OH252602   0.846   4.549  13.745 -1.5962  0.3527 -0.6469
10396TIP3    H152603   0.918   4.611  13.747 -2.0801  0.8886  1.5945
10396TIP3    H252604   0.768   4.601  13.765 -2.0789 -0.8306  0.7352
10397TIP3   OH252605   4.289   0.131  14.007 -0.4480 -0.6165  0.1201
10397TIP3    H152606   4.194   0.122  14.019 -0.5857  1.1590  0.4018
10397TIP3    H252607   4.302   0.115  13.913 -0.5614 -4.4547  0.6785
10398TIP3   OH252608   1.515   4.986  17.033  0.1045 -0.1650  0.2217
10398TIP3    H152609   1.546   5.062  17.083 -0.0153 -0.8203  1.3009
10398TIP3    H252610   1.421   5.000  17.023  0.3252  0.5765 -0.8913
10399TIP3   OH252611   0.171   3.146   4.516  0.4865 -0.7986  0.6107
10399TIP3    H152612   0.180   3.110   4.604 -1.7666 -1.3504  0.6446
10399TIP3    H252613   0.152   3.071   4.461  1.5341 -0.4071 -0.3000
10400TIP3   OH252614   4.192   3.095   3.487  0.5626 -0.0102 -0.0414
10400TIP3    H152615   4.099   3.109   3.466  0.2717 -0.6940  0.7521
10400TIP3    H252616   4.208   3.152   3.562  1.2617  1.4499 -1.2701
10401TIP3   OH252617   2.078   2.579  14.512  0.4845 -0.9586  0.6793
10401TIP3    H152618   2.101   2.518  14.443 -0.5149 -1.1656  0.5162
10401TIP3    H252619   2.113   2.539  14.592 -1.6184 -2.6144  0.8170
10402TIP3   OH252620   5.448   5.827   1.617 -0.3713  0.2068 -0.5071
10402TIP3    H152621   5.417   5.864   1.700 -1.2816  0.2502 -0.8571
10402TIP3    H252622   5.419   5.736   1.619 -0.4009  0.2099 -0.7776
10403TIP3   OH252623   1.212   4.489   5.947 -0.0966  0.2143  0.2699
10403TIP3    H152624   1.131   4.471   5.899  0.1508 -0.9999  0.2875
10403TIP3    H252625   1.187   4.555   6.012 -1.4027 -1.1207  1.1511
10404TIP3   OH252626   2.712   1.838   4.020  0.3857 -0.7029 -0.8678
10404TIP3    H152627   2.696   1.772   3.953 -1.6914 -1.6961  0.5360
10404TIP3    H252628   2.704   1.789   4.103 -0.5299  1.1651  0.1770
10405TIP3   OH252629   4.492   0.195  13.016 -0.0943 -0.1231 -0.2846
10405TIP3    H152630   4.557   0.196  12.946  0.2234  0.4202  0.0156
10405TIP3    H252631   4.543   0.208  13.096 -0.5216 -0.1409 -0.0074
10406TIP3   OH252632   3.958   5.995  14.144 -0.1806 -0.0354  0.8158
10406TIP3    H152633   3.911   6.062  14.094 -1.1482  0.0491  1.8137
10406TIP3    H252634   3.948   6.022  14.236  0.2639 -1.0194  1.1595
10407TIP3   OH252635   3.341   0.129   1.323 -0.3382  0.1964 -0.3706
10407TIP3    H152636   3.364   0.119   1.231 -0.0279 -0.5020 -0.2246
10407TIP3    H252637   3.425   0.135   1.368 -0.4362 -1.4998  0.0767
10408TIP3   OH252638   1.140   6.385  13.060  0.4930  0.4781 -0.4091
10408TIP3    H152639   1.106   6.374  12.971  0.1967 -0.8600 -0.1441
10408TIP3    H252640   1.206   6.453  13.052  0.6690  0.1727 -1.7167
10409TIP3   OH252641   6.629   3.410   6.451 -0.1233 -0.1404 -1.4423
10409TIP3    H152642   6.707   3.434   6.402 -0.2689  0.8709 -1.1808
10409TIP3    H252643   6.632   3.314   6.455  1.9044 -0.0532 -0.1196
10410TIP3   OH252644   2.884   5.750  17.085  0.4461 -0.0864 -0.8388
10410TIP3    H152645   2.963   5.697  17.073  0.0145 -0.4424 -2.2081
10410TIP3    H252646   2.916   5.832  17.124  1.1314 -1.2634  1.1168
10411TIP3   OH252647   2.495   6.572  16.202  0.0559  0.1362 -0.2201
10411TIP3    H152648   2.496   6.660  16.240  0.4085 -0.9347  2.4019
10411TIP3    H252649   2.587   6.553  16.183  0.0048  0.2379 -0.5743
10412TIP3   OH252650   0.367   6.283  12.783  0.1638  0.0151  0.0050
10412TIP3    H152651   0.370   6.364  12.834 -1.1552 -0.1754  0.4215
10412TIP3    H252652   0.289   6.237  12.816  1.2698 -1.7464  0.2463
10413TIP3   OH252653   4.421   4.151  11.796  0.1507 -0.1144 -0.0769
10413TIP3    H152654   4.387   4.067  11.826  2.5930 -0.5906  1.4904
10413TIP3    H252655   4.513   4.133  11.777  0.0911  1.6277 -2.1652
10414TIP3   OH252656   2.911   3.922  15.207  0.4625 -0.1844 -0.3910
10414TIP3    H152657   2.862   3.840  15.194  1.3157 -1.0539  1.6407
10414TIP3    H252658   2.923   3.957  15.119  0.2883 -2.3809 -1.3261
10415TIP3   OH252659   5.622   4.092  13.605  0.0664 -0.1291 -0.1594
10415TIP3    H152660   5.596   4.184  13.612 -1.4825 -0.5111 -0.7049
10415TIP3    H252661   5.603   4.055  13.691  1.7919  0.3186  0.4341
10416TIP3   OH252662   6.758   4.500  12.692 -0.0490  0.5207  0.9931
10416TIP3    H152663   6.710   4.581  12.678 -0.7940  0.0470  0.7995
10416TIP3    H252664   6.705   4.450  12.754  0.4103  0.1778  1.1201
10417TIP3   OH252665   3.098   4.726  16.143 -0.5009  0.6754  0.0959
10417TIP3    H152666   3.126   4.779  16.069 -1.5847  2.1465  0.7266
10417TIP3    H252667   3.073   4.642  16.104 -0.1391  1.1033 -1.0765
10418TIP3   OH252668   1.893   0.363  11.651 -0.3042 -0.5406 -0.0269
10418TIP3    H152669   1.820   0.369  11.589  0.8024 -2.6465 -1.6103
10418TIP3    H252670   1.942   0.444  11.637 -1.2045 -0.0541 -0.4210
10419TIP3   OH252671   0.559   6.109  16.233  0.2545 -1.0425 -0.8811
10419TIP3    H152672   0.509   6.028  16.236  0.3325 -1.0927 -0.9169
10419TIP3    H252673   0.557   6.143  16.322 -1.6133  0.0419 -1.3136
10420TIP3   OH252674   6.105   6.751  17.115 -0.0664  0.1720  0.2254
10420TIP3    H152675   6.167   6.679  17.106  1.5487  1.5789 -0.0393
10420TIP3    H252676   6.069   6.740  17.203  0.0152 -1.0692  0.1137
10421TIP3   OH252677   0.940   4.775  13.266  0.1541  0.0143  0.1780
10421TIP3    H152678   1.007   4.761  13.333 -0.7176  0.3772  1.1315
10421TIP3    H252679   0.988   4.770  13.183  1.3176  0.0238  0.8414
10422TIP3   OH252680   0.574   2.828  15.608  0.1324 -0.6137  0.0086
10422TIP3    H152681   0.629   2.905  15.625 -0.4522  0.4307 -2.5542
10422TIP3    H252682   0.612   2.759  15.662  1.9347  0.9343  0.7937
10423TIP3   OH252683   1.843   5.441   2.634 -0.3258  0.5739 -0.3188
10423TIP3    H152684   1.935   5.431   2.607 -0.3110  0.9046 -0.3960
10423TIP3    H252685   1.793   5.416   2.557 -0.3012  0.1429 -0.1914
10424TIP3   OH252686   6.248   1.540   1.611  0.0484 -0.1028 -0.0301
10424TIP3    H152687   6.170   1.574   1.654  0.3336  1.6225 -0.8432
10424TIP3    H252688   6.305   1.511   1.682 -1.1387 -0.9447  0.5785
10425TIP3   OH252689   0.342   0.541   2.143 -0.0260 -0.3345  0.2408
10425TIP3    H152690   0.419   0.484   2.138 -0.5517 -1.0255 -0.0360
10425TIP3    H252691   0.335   0.578   2.055 -0.6150 -1.0715 -0.0239
10426TIP3   OH252692   4.016   4.216  13.875 -0.4119  0.1907 -0.0085
10426TIP3    H152693   4.033   4.286  13.812 -1.5001 -0.1573 -0.7290
10426TIP3    H252694   4.096   4.208  13.926  0.8869 -0.1901 -2.0423
10427TIP3   OH252695   4.506   3.675   5.850 -0.0581  0.1692 -0.2145
10427TIP3    H152696   4.482   3.762   5.883 -0.0165 -0.0261  0.3409
10427TIP3    H252697   4.600   3.668   5.867 -0.4507 -0.8253  1.7541
10428TIP3   OH252698   3.406   5.260  11.923  0.0262  0.3889  0.0358
10428TIP3    H152699   3.426   5.271  12.016  1.2004  1.2538 -0.3161
10428TIP3    H252700   3.491   5.240  11.883 -0.2405  1.4370 -1.0658
10429TIP3   OH252701   1.517   0.688  11.563  0.5285  0.7058 -0.7051
10429TIP3    H152702   1.495   0.683  11.470  0.6114 -2.6638 -0.5858
10429TIP3    H252703   1.612   0.682  11.566  0.5298  0.8554 -0.4132
10430TIP3   OH252704   5.466   6.691   4.094  0.2959 -0.7563  0.2517
10430TIP3    H152705   5.509   6.750   4.032  1.0153 -1.2817  0.2522
10430TIP3    H252706   5.423   6.750   4.156 -0.1675 -0.2283 -0.5605
10431TIP3   OH252707   2.400   1.144   6.785  0.4798 -0.3898 -0.4276
10431TIP3    H152708   2.438   1.068   6.829  0.2794  0.1089  0.6452
10431TIP3    H252709   2.471   1.180   6.732  1.1215 -0.2491  0.5059
10432TIP3   OH252710   5.257   4.994  13.089 -0.0956 -0.4736  0.0275
10432TIP3    H152711   5.298   5.042  13.017 -0.2803 -0.5572 -0.1374
10432TIP3    H252712   5.330   4.965  13.144  0.0917 -0.9431 -0.4650
10433TIP3   OH252713   2.828   0.720  12.102 -0.2653 -0.0583  0.0116
10433TIP3    H152714   2.755   0.769  12.064 -0.9534 -1.4087 -0.4558
10433TIP3    H252715   2.878   0.691  12.026 -1.5860 -2.6861  0.0784
10434TIP3   OH252716   5.106   1.175  15.808  0.0610  0.2291  0.3190
10434TIP3    H152717   5.031   1.201  15.755 -0.4250  0.6533  1.2043
10434TIP3    H252718   5.106   1.079  15.805 -0.6609  0.2195  0.5114
10435TIP3   OH252719   6.600   4.819  15.689 -0.5141  0.0407  0.9514
10435TIP3    H152720   6.504   4.813  15.691 -0.6299  2.0516  2.6463
10435TIP3    H252721   6.628   4.775  15.769 -0.1148  0.8654  1.2658
10436TIP3   OH252722   1.361   4.377  13.736  0.0635  0.0424  0.1223
10436TIP3    H152723   1.351   4.443  13.667  1.9804  1.5005  1.1742
10436TIP3    H252724   1.433   4.410  13.790 -1.2372 -1.1767  2.6932
10437TIP3   OH252725   6.648   5.041   2.689  0.2628 -0.1298  0.6718
10437TIP3    H152726   6.572   5.049   2.746 -0.3123  1.1785 -0.2612
10437TIP3    H252727   6.614   5.003   2.608  0.7503 -0.3550  0.5722
10438TIP3   OH252728   1.871   2.255   4.612  0.1229 -0.1664 -0.9383
10438TIP3    H152729   1.859   2.183   4.673  2.0948  1.4676  1.4766
10438TIP3    H252730   1.959   2.242   4.576  0.0351  0.3857 -1.3639
10439TIP3   OH252731   1.512   3.844   3.736  0.1714 -0.5402 -0.3401
10439TIP3    H152732   1.478   3.932   3.720 -1.0937 -1.1643 -1.1937
10439TIP3    H252733   1.604   3.857   3.758  0.0076  0.9883 -0.5018
10440TIP3   OH252734   5.511   3.598   1.046 -0.8080 -0.4237 -0.6673
10440TIP3    H152735   5.418   3.604   1.023 -1.0968 -1.1648  0.2781
10440TIP3    H252736   5.512   3.599   1.142  0.1499 -0.4965 -0.6750
10441TIP3   OH252737   4.010   4.402   1.026  0.6562  0.5572  0.1485
10441TIP3    H152738   3.980   4.459   1.097  1.8896  2.2296 -0.6409
10441TIP3    H252739   3.951   4.423   0.953  0.0370 -0.4300  0.3459
10442TIP3   OH252740   5.983   1.811   1.580 -0.1006  0.2082 -0.0220
10442TIP3    H152741   5.961   1.903   1.568 -1.7512 -0.2370 -0.6927
10442TIP3    H252742   5.927   1.765   1.517  1.4996 -1.1658 -0.4812
10443TIP3   OH252743   6.530   3.849   5.224 -0.2366 -0.4211 -0.3869
10443TIP3    H152744   6.458   3.800   5.264  1.3527 -4.2398 -1.9098
10443TIP3    H252745   6.597   3.852   5.292 -0.0306 -1.1119 -0.5548
10444TIP3   OH252746   5.078   0.175  10.890  0.7027 -0.3314  0.3366
10444TIP3    H152747   4.989   0.203  10.911  0.4751 -0.2702 -0.6503
10444TIP3    H252748   5.133   0.217  10.956 -0.1135 -1.3034  1.6588
10445TIP3   OH252749   6.016   2.733  12.478  0.4652 -0.2787 -0.0267
10445TIP3    H152750   5.989   2.781  12.400 -2.9501 -1.1943  0.5311
10445TIP3    H252751   6.050   2.650  12.445  0.5508 -0.0102 -0.6261
10446TIP3   OH252752   1.366   1.018  11.821  0.1242 -0.3175 -0.3269
10446TIP3    H152753   1.317   0.980  11.748  1.2937 -3.8206  0.5953
10446TIP3    H252754   1.308   1.085  11.857 -1.5470 -0.3701 -2.8149
10447TIP3   OH252755   2.877   5.990  14.763 -0.7221  0.2251 -0.2785
10447TIP3    H152756   2.867   6.009  14.856  2.0551 -0.4497  0.2270
10447TIP3    H252757   2.891   5.896  14.759 -1.0196  0.2178 -1.3999
10448TIP3   OH252758   5.441   3.156   4.122 -0.0578 -0.3079 -0.4083
10448TIP3    H152759   5.347   3.144   4.105 -0.5522  2.8474 -0.1841
10448TIP3    H252760   5.480   3.070   4.104 -3.3530 -2.4917  2.2565
10449TIP3   OH252761   1.359   6.682  16.910 -0.0727  1.3567 -0.2035
10449TIP3    H152762   1.291   6.615  16.910  0.0999  1.1715 -1.5572
10449TIP3    H252763   1.325   6.752  16.856  0.9199  1.1354 -1.1402
10450TIP3   OH252764   3.305   2.936  14.504  0.0616 -0.2231  0.3278
10450TIP3    H152765   3.325   2.935  14.410 -1.1260  0.7496  0.0579
10450TIP3    H252766   3.381   2.979  14.544  1.1781 -1.8042 -0.0147
10451TIP3   OH252767   2.364   5.909  12.090  0.1282  0.5396  0.4215
10451TIP3    H152768   2.394   5.942  12.005 -0.1647 -1.1047 -0.3366
10451TIP3    H252769   2.421   5.835  12.109  0.9960  1.6641  2.2658
10452TIP3   OH252770   0.315   4.840  14.086  0.6969 -0.4175  0.1274
10452TIP3    H152771   0.404   4.848  14.119  1.0697  2.4120 -1.4493
10452TIP3    H252772   0.301   4.918  14.033 -2.7006 -0.8511  0.2388
10453TIP3   OH252773   0.208   0.497  14.457  0.1889 -0.1530  0.0703
10453TIP3    H152774   0.297   0.532  14.460  1.1223 -2.3064 -1.1005
10453TIP3    H252775   0.165   0.547  14.388  0.1789  1.4946  1.2247
10454TIP3   OH252776   4.131   2.200  13.296  0.4099 -0.2855 -0.3189
10454TIP3    H152777   4.047   2.213  13.341  0.7635 -0.0521  0.2937
10454TIP3    H252778   4.114   2.227  13.206 -0.3436 -0.8525 -0.3578
10455TIP3   OH252779   1.859   1.163  10.734  0.1824 -0.5422 -0.4614
10455TIP3    H152780   1.779   1.202  10.767  0.5943 -0.0580 -0.0348
10455TIP3    H252781   1.898   1.231  10.679  0.1482 -0.8859 -0.9166
10456TIP3   OH252782   5.263   1.018  14.683 -0.6257 -0.0879 -0.4609
10456TIP3    H152783   5.271   1.008  14.588 -1.4550 -0.4953 -0.4896
10456TIP3    H252784   5.236   1.109  14.695  0.1691  0.1645 -0.5754
10457TIP3   OH252785   3.135   2.110   2.485  0.5808  0.1978  0.0082
10457TIP3    H152786   3.114   2.021   2.458 -0.5478  0.7850 -1.1451
10457TIP3    H252787   3.117   2.112   2.579  1.1794 -0.9357  0.1518
10458TIP3   OH252788   4.353   4.152  14.979 -0.3034  0.5978  0.0381
10458TIP3    H152789   4.269   4.139  15.024 -1.1762  0.7058 -1.5300
10458TIP3    H252790   4.330   4.201  14.900  1.0537 -0.4814 -1.0385
10459TIP3   OH252791   4.413   0.842  13.778 -0.6502  0.2083  0.2065
10459TIP3    H152792   4.505   0.868  13.789 -0.3260 -0.5064 -0.8373
10459TIP3    H252793   4.364   0.920  13.804  0.2156  0.2846  1.7072
10460TIP3   OH252794   2.778   0.198  14.499 -0.6572 -0.3156 -0.4498
10460TIP3    H152795   2.723   0.277  14.507 -2.1777 -1.3740 -0.2084
10460TIP3    H252796   2.866   0.232  14.484 -1.1874  1.4400  0.2636
10461TIP3   OH252797   4.050   5.056   1.168 -0.5890 -0.0702  0.6267
10461TIP3    H152798   4.091   4.969   1.176  0.2554  0.1398 -1.0344
10461TIP3    H252799   4.036   5.066   1.074  0.9781  2.3262  0.6065
10462TIP3   OH252800   3.876   4.492   4.642  0.3961 -0.4203 -0.0254
10462TIP3    H152801   3.969   4.508   4.658  0.2544  1.0016 -0.5331
10462TIP3    H252802   3.865   4.398   4.658  1.3314 -0.1036  2.7999
10463TIP3   OH252803   3.385   5.119   3.486 -0.2706  0.3833 -0.2174
10463TIP3    H152804   3.460   5.069   3.454  0.1728  1.1206 -0.3292
10463TIP3    H252805   3.350   5.161   3.408 -0.1860  0.8591  0.0039
10464TIP3   OH252806   1.676   4.123   1.688 -0.7573 -0.6358  0.0434
10464TIP3    H152807   1.650   4.114   1.780 -0.7547 -2.3615 -0.0983
10464TIP3    H252808   1.643   4.209   1.662 -1.4175 -0.4443  1.4563
10465TIP3   OH252809   2.455   5.161   4.096  0.2125  0.5326  0.0596
10465TIP3    H152810   2.408   5.174   4.179  2.9761 -0.3355  1.8494
10465TIP3    H252811   2.510   5.084   4.112  1.1816  0.6597 -2.4355
10466TIP3   OH252812   1.544   1.857  11.536  0.3830  0.7761  0.6449
10466TIP3    H152813   1.598   1.796  11.485  1.0143  3.6297 -2.2992
10466TIP3    H252814   1.603   1.929  11.557 -0.7777  1.1920  2.5474
10467TIP3   OH252815   6.315   0.854   1.661 -0.3862  0.4241  0.0847
10467TIP3    H152816   6.255   0.856   1.587  1.2145  0.3668 -1.2405
10467TIP3    H252817   6.392   0.901   1.631  0.8541 -0.8242  1.2119
10468TIP3   OH252818   1.917   1.518   2.630  0.3358 -0.5679  0.1007
10468TIP3    H152819   1.910   1.425   2.606 -0.6305 -1.3739  3.2927
10468TIP3    H252820   1.831   1.555   2.609  0.3003 -0.6908  0.0312
10469TIP3   OH252821   4.002   2.181  13.938  0.3163  0.3575 -0.5029
10469TIP3    H152822   4.058   2.207  13.865 -1.0736  0.7611 -1.4282
10469TIP3    H252823   3.918   2.161  13.898 -0.1468 -0.4849  0.8568
10470TIP3   OH252824   1.595   6.069   5.063  0.2127 -0.2982  0.6852
10470TIP3    H152825   1.564   5.979   5.072  0.2729 -0.4657 -0.6796
10470TIP3    H252826   1.680   6.062   5.021 -0.2223  0.4274 -0.3646
10471TIP3   OH252827   6.287   3.972   3.099  0.1432 -1.0844  0.5883
10471TIP3    H152828   6.235   3.980   3.019 -0.9512  1.2876  1.5154
10471TIP3    H252829   6.223   3.967   3.169  1.1308 -1.4723  1.4793
10472TIP3   OH252830   6.590   4.163   5.213 -0.0125  0.0394  0.1741
10472TIP3    H152831   6.526   4.166   5.283 -1.1927 -0.5033 -0.8562
10472TIP3    H252832   6.544   4.119   5.140  1.0575  0.8824 -1.0351
10473TIP3   OH252833   2.958   1.682   5.199  0.7912 -0.4085 -0.0097
10473TIP3    H152834   2.904   1.677   5.278 -0.3329  0.0116 -0.7239
10473TIP3    H252835   2.952   1.774   5.172  1.5905 -0.4362 -0.2921
10474TIP3   OH252836   1.849   0.397   2.421 -0.1547  0.4603  0.8054
10474TIP3    H152837   1.927   0.450   2.434 -0.8772  1.6913  0.2582
10474TIP3    H252838   1.829   0.406   2.327 -0.5481 -0.4063  0.8007
10475TIP3   OH252839   2.779   2.647  13.540  0.2346  0.4026 -0.5380
10475TIP3    H152840   2.817   2.577  13.593  2.0605  0.4218 -1.7606
10475TIP3    H252841   2.723   2.696  13.600  1.7140  0.0082  1.2062
10476TIP3   OH252842   6.623   6.067  14.038  0.4222  0.5836 -0.2163
10476TIP3    H152843   6.536   6.055  14.000  0.1419  0.4386  0.4638
10476TIP3    H252844   6.607   6.114  14.120  0.6465 -2.4193  1.6056
10477TIP3   OH252845   4.425   1.611   4.476  0.0373 -0.0868  0.3802
10477TIP3    H152846   4.476   1.530   4.473  1.8023  0.9746  1.0616
10477TIP3    H252847   4.458   1.658   4.552 -0.5811  1.5302 -0.3205
10478TIP3   OH252848   0.554   0.942   3.087  0.8711  0.0758  0.1788
10478TIP3    H152849   0.503   0.861   3.084  0.1590  0.5315 -0.0782
10478TIP3    H252850   0.555   0.973   2.996  2.0341 -0.1901  0.0878
10479TIP3   OH252851   3.925   6.725   1.737  0.3541 -0.4654  0.0015
10479TIP3    H152852   3.966   6.742   1.653  0.7823  0.5220  0.4111
10479TIP3    H252853   3.835   6.757   1.727 -0.2200 -2.1999 -0.7364
10480TIP3   OH252854   4.918   4.258   1.252 -0.5469 -0.0480  0.1022
10480TIP3    H152855   4.864   4.337   1.250 -2.1361 -1.1012 -0.0005
10480TIP3    H252856   4.914   4.223   1.163 -0.4266 -0.5972  0.3086
10481TIP3   OH252857   0.188   6.759  11.943  0.4843 -0.3650 -0.6477
10481TIP3    H152858   0.147   6.673  11.945 -0.3582  0.0698  2.1532
10481TIP3    H252859   0.120   6.816  11.906  0.3197 -0.5465 -0.6272
10482TIP3   OH252860   5.544   6.402   6.255 -0.4600 -0.2508  0.0609
10482TIP3    H152861   5.461   6.358   6.235  0.0998 -0.8077 -1.1060
10482TIP3    H252862   5.608   6.358   6.199  0.5607  0.4140  0.6952
10483TIP3   OH252863   6.018   6.523   1.299 -0.6665  0.1423 -0.0564
10483TIP3    H152864   6.112   6.538   1.286 -0.9006  0.7599 -1.1026
10483TIP3    H252865   6.013   6.440   1.346  0.4680  0.9243  1.4986
10484TIP3   OH252866   3.552   4.476   4.122 -0.0145 -0.0640 -0.6024
10484TIP3    H152867   3.615   4.519   4.064 -0.7234 -0.1843 -1.4721
10484TIP3    H252868   3.485   4.440   4.063 -0.5773 -0.4629  0.2646
10485TIP3   OH252869   5.676   5.923  12.331  0.3771 -0.2373  0.7391
10485TIP3    H152870   5.629   5.920  12.248  0.8100 -1.1244  0.5176
10485TIP3    H252871   5.637   5.854  12.383 -1.0007  1.3801  1.8884
10486TIP3   OH252872   3.517   3.544   6.577 -0.1452  0.2549  0.1560
10486TIP3    H152873   3.603   3.505   6.563  0.3497  1.2162  0.4694
10486TIP3    H252874   3.459   3.498   6.516  0.3958 -1.0547  0.6124
10487TIP3   OH252875   1.936   0.906  11.267 -0.1806 -0.7119  0.1548
10487TIP3    H152876   1.939   0.869  11.178 -1.0164  1.0838 -0.6370
10487TIP3    H252877   2.014   0.871  11.309  1.1581 -0.2269 -1.8429
10488TIP3   OH252878   6.517   2.716  16.703 -0.0107  0.4121 -0.0154
10488TIP3    H152879   6.508   2.623  16.684  0.2098  0.2907  0.4620
10488TIP3    H252880   6.541   2.719  16.795 -0.6923  0.9730  0.1458
10489TIP3   OH252881   5.635   4.323   4.622  0.0987  0.4209 -0.3125
10489TIP3    H152882   5.569   4.330   4.690  2.4690  0.6519  2.0664
10489TIP3    H252883   5.676   4.237   4.637  0.0422  0.0736 -2.0299
10490TIP3   OH252884   3.819   0.821   0.779 -0.3536 -0.4878 -0.5226
10490TIP3    H152885   3.787   0.906   0.747  0.3122  0.6009  1.5898
10490TIP3    H252886   3.908   0.815   0.746 -0.2822 -0.1971 -0.3877
10491TIP3   OH252887   6.665   3.400  10.537  0.0379 -0.4742  0.2327
10491TIP3    H152888   6.604   3.381  10.466 -0.3260 -1.0784  0.7070
10491TIP3    H252889   6.674   3.495  10.536 -0.6169 -0.4144 -0.0772
10492TIP3   OH252890   6.730   5.387  11.828 -0.3575 -0.6081 -0.3857
10492TIP3    H152891   6.698   5.455  11.888  0.3299 -0.6306 -0.0003
10492TIP3    H252892   6.756   5.436  11.749  0.8824 -0.3311  0.1858
10493TIP3   OH252893   6.753   6.385  14.731  0.2736 -0.2035 -0.5072
10493TIP3    H152894   6.683   6.344  14.681  1.2210 -2.0590 -0.3744
10493TIP3    H252895   6.788   6.314  14.785  2.0866  0.7419 -0.3882
10494TIP3   OH252896   6.083   2.105  14.784 -0.3208  0.0654  0.0957
10494TIP3    H152897   6.115   2.036  14.842  1.3656  1.1205  0.4602
10494TIP3    H252898   6.107   2.187  14.828 -1.7360  0.9053 -0.6295
10495TIP3   OH252899   2.757   1.071  15.012 -0.1530 -0.4826  0.1192
10495TIP3    H152900   2.852   1.061  15.010 -0.1001 -0.0092  0.1372
10495TIP3    H252901   2.742   1.163  14.990 -0.5767 -0.4243  0.6283
10496TIP3   OH252902   6.264   5.734   6.554  0.0244  0.3246  0.2908
10496TIP3    H152903   6.245   5.801   6.620  0.3441  0.6472  0.0519
10496TIP3    H252904   6.334   5.771   6.501  0.8334 -0.5635  0.7193
10497TIP3   OH252905   3.243   6.047   6.258 -0.6184  0.2277 -0.0302
10497TIP3    H152906   3.327   6.002   6.272 -0.6756 -0.3981 -1.5375
10497TIP3    H252907   3.185   5.979   6.225 -0.7668  1.3458 -2.1502
10498TIP3   OH252908   2.259   0.861  12.502  0.4329  0.1775  0.0043
10498TIP3    H152909   2.297   0.829  12.584  1.5056 -0.6855 -0.8270
10498TIP3    H252910   2.182   0.806  12.489 -0.3184  0.9773  0.9357
10499TIP3   OH252911   6.771   4.154   2.316  0.8245  0.0175 -0.4077
10499TIP3    H152912   6.812   4.067   2.321 -0.1820 -0.4327  0.3298
10499TIP3    H252913   6.735   4.158   2.228 -0.1439 -0.7938 -0.0570
10500TIP3   OH252914   3.034   1.642  16.287  0.1647  0.4428 -0.5662
10500TIP3    H152915   3.113   1.680  16.250  1.6719 -2.1275 -0.1363
10500TIP3    H252916   2.991   1.599  16.213  0.2395  0.1137 -0.4189
10501TIP3   OH252917   5.355   5.810   2.610 -0.1334  0.1176  0.1799
10501TIP3    H152918   5.330   5.720   2.634  1.1388 -0.0938  0.7523
10501TIP3    H252919   5.414   5.837   2.679  1.0819  0.6773 -1.0638
10502TIP3   OH252920   0.343   5.600   3.726  0.3954  0.4561  0.2710
10502TIP3    H152921   0.424   5.650   3.737  0.2568  0.9140 -0.6957
10502TIP3    H252922   0.293   5.616   3.806  0.5420  1.5184  0.1501
10503TIP3   OH252923   2.674   5.477  15.374  0.5304 -0.2948 -0.1287
10503TIP3    H152924   2.605   5.502  15.314 -0.3977 -0.6576  0.7793
10503TIP3    H252925   2.736   5.428  15.320 -0.5339 -1.0379 -0.6872
10504TIP3   OH252926   2.224   2.110   1.645 -0.0591  0.0790 -0.0640
10504TIP3    H152927   2.142   2.140   1.684 -0.7927 -2.0425  0.1265
10504TIP3    H252928   2.205   2.021   1.616  2.1612 -0.4162 -0.0915
10505TIP3   OH252929   4.442   4.561   5.224  0.2047  0.1355  0.4276
10505TIP3    H152930   4.508   4.504   5.187  1.5000  1.9662 -0.1468
10505TIP3    H252931   4.373   4.565   5.157  0.2091 -0.5465  0.3763
10506TIP3   OH252932   2.430   1.401   4.181 -0.5976  0.5436  0.5116
10506TIP3    H152933   2.473   1.410   4.096 -1.5764 -2.0865 -0.3305
10506TIP3    H252934   2.343   1.437   4.168 -0.8127 -0.0331  0.3177
10507TIP3   OH252935   4.908   6.116   3.428  0.0313  0.1322 -0.2708
10507TIP3    H152936   4.923   6.182   3.360  0.1572 -1.1241 -1.5018
10507TIP3    H252937   4.819   6.084   3.412 -0.0471  0.0471  0.3383
10508TIP3   OH252938   2.236   2.769   4.329 -0.0699  0.0674 -0.4834
10508TIP3    H152939   2.248   2.760   4.234  1.3978  0.4783 -0.3538
10508TIP3    H252940   2.146   2.798   4.339 -1.3435 -3.3551 -1.5344
10509TIP3   OH252941   4.980   4.378  16.560  0.0591 -0.3390 -0.2476
10509TIP3    H152942   4.970   4.385  16.465  0.4708 -2.5940 -0.4881
10509TIP3    H252943   4.936   4.296  16.583  1.1335 -0.4980  1.3244
10510TIP3   OH252944   3.877   2.329   0.676  0.4278  0.3685  0.4171
10510TIP3    H152945   3.908   2.238   0.678  0.9369  0.4836 -1.4421
10510TIP3    H252946   3.829   2.339   0.758  0.3988 -1.5739  0.6730
10511TIP3   OH252947   2.665   1.129   2.896 -0.2010 -0.0792 -0.0746
10511TIP3    H152948   2.599   1.078   2.849 -0.3291 -0.1740  0.2093
10511TIP3    H252949   2.695   1.193   2.832 -1.8052  1.1018  0.3286
10512TIP3   OH252950   5.782   1.133  16.158 -0.4749 -0.5686  0.0174
10512TIP3    H152951   5.837   1.058  16.181  0.6545  0.5297  0.9309
10512TIP3    H252952   5.794   1.144  16.064  1.7248  0.3371  0.3912
10513TIP3   OH252953   5.760   1.740  12.347 -0.2326  0.0227 -0.7957
10513TIP3    H152954   5.725   1.651  12.353  0.7536 -0.4055 -1.1611
10513TIP3    H252955   5.711   1.780  12.275  0.0340 -0.5737 -1.3174
10514TIP3   OH252956   4.775   6.531  12.732 -0.3759 -0.0775  0.0207
10514TIP3    H152957   4.743   6.441  12.728 -0.2765 -0.1575  0.9746
10514TIP3    H252958   4.811   6.541  12.820 -0.9550  1.0879  0.1432
10515TIP3   OH252959   4.321   5.150  13.267 -0.3290  0.0375 -0.1001
10515TIP3    H152960   4.268   5.080  13.228  0.3397 -1.5189  1.7024
10515TIP3    H252961   4.404   5.146  13.220 -0.3085 -0.3278 -0.0319
10516TIP3   OH252962   5.842   4.865   4.251 -0.4997  0.2062  0.1324
10516TIP3    H152963   5.758   4.862   4.205 -0.4123 -0.3465 -0.0010
10516TIP3    H252964   5.887   4.784   4.224 -0.2363  0.1303  0.7881
10517TIP3   OH252965   5.388   4.875   4.942  0.6016  0.1006 -0.1065
10517TIP3    H152966   5.393   4.881   5.037  0.6984  2.7392 -0.2345
10517TIP3    H252967   5.382   4.781   4.924  0.5745 -0.4349  2.4846
10518TIP3   OH252968   3.723   3.715   4.018  0.8622  0.3245  0.0584
10518TIP3    H152969   3.682   3.629   4.016 -1.5276  1.4133  0.6653
10518TIP3    H252970   3.774   3.716   4.098 -0.3989  0.0224  0.8795
10519TIP3   OH252971   4.281   1.846   0.281  0.4475 -0.0676 -0.2159
10519TIP3    H152972   4.366   1.805   0.293  0.5940  0.4759  0.5929
10519TIP3    H252973   4.242   1.848   0.368  0.2584  1.1029 -0.3121
10520TIP3   OH252974   3.358   1.901  12.239  0.8000  0.1172  0.3256
10520TIP3    H152975   3.263   1.897  12.229  0.8756  0.8502 -0.7602
10520TIP3    H252976   3.371   1.914  12.333 -0.2842  2.8568  0.1458
10521TIP3   OH252977   5.676   0.439  16.798  0.0913  0.4129 -0.3042
10521TIP3    H152978   5.746   0.414  16.737  0.9780 -1.6379  1.4920
10521TIP3    H252979   5.693   0.531  16.818  2.4609 -0.1527  0.3528
10522TIP3   OH252980   1.882   1.558  15.544 -0.3459  0.1182 -0.0542
10522TIP3    H152981   1.958   1.506  15.569 -1.3298 -1.0871  0.4836
10522TIP3    H252982   1.878   1.549  15.449  0.4415  0.5583 -0.1344
10523TIP3   OH252983   1.280   6.061   2.259 -0.8823  0.2174 -0.4178
10523TIP3    H152984   1.203   6.039   2.207 -1.8180  3.1693 -0.3523
10523TIP3    H252985   1.256   6.036   2.348 -1.7670  1.1064 -0.4015
10524TIP3   OH252986   0.524   0.245   5.477  0.2900 -0.2107  0.2539
10524TIP3    H152987   0.548   0.336   5.496  1.8496 -0.2587 -1.3723
10524TIP3    H252988   0.606   0.204   5.449 -0.5519 -1.9266  0.2416
10525TIP3   OH252989   0.435   5.604  16.617  0.0331  0.2970  0.7162
10525TIP3    H152990   0.459   5.571  16.531 -2.0855  1.2569 -0.2935
10525TIP3    H252991   0.444   5.529  16.675  0.3286 -0.6753 -0.5615
10526TIP3   OH252992   2.128   1.795   1.856 -0.3497 -0.1377  0.1473
10526TIP3    H152993   2.187   1.748   1.798  0.3940  1.0386 -0.0766
10526TIP3    H252994   2.186   1.850   1.910 -1.0416 -1.0510  1.8479
10527TIP3   OH252995   0.481   1.418   4.102 -0.2463 -0.3407  0.1431
10527TIP3    H152996   0.476   1.322   4.098  0.9083 -0.4342  0.7178
10527TIP3    H252997   0.437   1.441   4.184 -1.3508 -0.3088 -0.4573
10528TIP3   OH252998   5.519   4.241  14.399 -0.0633 -0.0970  1.3354
10528TIP3    H152999   5.482   4.324  14.370 -2.2356 -1.2228  0.7415
10528TIP3    H253000   5.602   4.233  14.352 -0.9597  0.6363 -0.4137
10529TIP3   OH253001   5.753   0.458  13.734  0.1704 -0.0682 -0.0368
10529TIP3    H153002   5.720   0.393  13.672 -0.0468  0.3004 -0.3069
10529TIP3    H253003   5.703   0.442  13.814 -0.3867  0.2198 -0.3188
10530TIP3   OH253004   0.318   5.476  13.157  0.0252  0.0665  0.3236
10530TIP3    H153005   0.355   5.486  13.069  1.5493  1.3819  1.0794
10530TIP3    H253006   0.393   5.461  13.214 -0.7765  0.8713  1.6359
10531TIP3   OH253007   3.771   4.413   5.397  0.3507 -0.3387 -0.0852
10531TIP3    H153008   3.691   4.365   5.420 -1.5951  2.8832  0.0487
10531TIP3    H253009   3.841   4.348   5.409 -1.9162 -2.4811  2.4330
10532TIP3   OH253010   3.883   6.511  12.997  0.0921  0.0979  0.7786
10532TIP3    H153011   3.821   6.502  13.069 -0.4864 -0.0193  0.2752
10532TIP3    H253012   3.828   6.536  12.922  0.4978 -1.1289  0.0616
10533TIP3   OH253013   5.384   0.468  13.014  0.6872  0.2779  0.1099
10533TIP3    H153014   5.297   0.431  13.000  1.1458 -0.9352  0.3620
10533TIP3    H253015   5.368   0.560  13.035 -0.4848  0.2271 -0.5133
10534TIP3   OH253016   1.501   6.142  15.926  1.0436  0.1244  0.4770
10534TIP3    H153017   1.460   6.197  15.859 -0.8562 -2.6215 -0.6833
10534TIP3    H253018   1.452   6.162  16.006 -0.0823 -0.3478 -0.0849
10535TIP3   OH253019   4.473   2.709   5.746  0.0497  0.1311  0.2814
10535TIP3    H153020   4.494   2.629   5.698  1.8879  1.0085 -0.4481
10535TIP3    H253021   4.430   2.765   5.681 -2.1829 -0.6131  1.0580
10536TIP3   OH253022   1.221   0.629  12.744 -0.0835  0.4546 -0.0404
10536TIP3    H153023   1.183   0.703  12.792 -2.6575  0.3052 -1.7957
10536TIP3    H253024   1.181   0.552  12.783  0.7011  0.1087  0.0950
10537TIP3   OH253025   2.902   4.885   2.431  0.1889  0.0506  0.1187
10537TIP3    H153026   2.937   4.855   2.514 -0.5732  2.0581  1.2176
10537TIP3    H253027   2.960   4.957   2.405 -0.0509 -0.0353 -0.6588
10538TIP3   OH253028   5.278   5.653   1.372 -0.0146 -0.5217 -0.2095
10538TIP3    H153029   5.357   5.706   1.379  0.2921 -1.0911  0.6288
10538TIP3    H253030   5.269   5.611   1.457 -1.4275 -0.1629 -0.1589
10539TIP3   OH253031   2.417   6.761  11.785 -0.4869 -0.4126 -0.0904
10539TIP3    H153032   2.415   6.675  11.828  0.9838  0.0370  0.9131
10539TIP3    H253033   2.414   6.824  11.857 -1.4688  0.4044 -0.8168
10540TIP3   OH253034   3.933   1.395  15.627 -0.0536 -0.4296  0.4211
10540TIP3    H153035   3.910   1.319  15.681 -0.0938  0.0913  1.1394
10540TIP3    H253036   3.969   1.357  15.547 -1.2545 -1.2269  0.2430
10541TIP3   OH253037   2.670   0.159   1.422  0.2040  0.2130 -0.0746
10541TIP3    H153038   2.648   0.118   1.506  1.8230  0.3008  0.4223
10541TIP3    H253039   2.763   0.141   1.411  0.3878  1.6652 -1.0255
10542TIP3   OH253040   4.222   0.550  12.006  0.0357 -0.2696 -0.1294
10542TIP3    H153041   4.211   0.495  11.928 -0.7910 -1.6838  0.9533
10542TIP3    H253042   4.219   0.488  12.079 -1.1459  1.2440  1.1351
10543TIP3   OH253043   1.726   1.228  12.344 -0.3398  0.3224 -0.5909
10543TIP3    H153044   1.664   1.158  12.324 -1.7987  1.3356  0.3132
10543TIP3    H253045   1.808   1.199  12.305 -1.1178 -1.5321 -0.8975
10544TIP3   OH253046   6.249   3.649  14.369 -0.1755 -0.0076  0.0659
10544TIP3    H153047   6.161   3.622  14.396  1.0576 -2.8274  1.4439
10544TIP3    H253048   6.289   3.569  14.335  2.2318  0.9905  0.4505
10545TIP3   OH253049   3.489   4.878  13.660 -0.4656 -0.0232 -0.3161
10545TIP3    H153050   3.479   4.871  13.755  0.8964 -0.9024 -0.2135
10545TIP3    H253051   3.549   4.951  13.647  0.8638 -1.0803 -0.3673
10546TIP3   OH253052   0.460   3.864   3.864  0.3576  0.0355 -0.1784
10546TIP3    H153053   0.436   3.774   3.886 -1.4872  1.2992  3.4295
10546TIP3    H253054   0.469   3.908   3.949  1.0065  3.3163 -1.8418
10547TIP3   OH253055   6.468   6.413  11.447 -0.0867  0.2707 -0.4736
10547TIP3    H153056   6.468   6.326  11.406  0.4713 -0.0016  0.0769
10547TIP3    H253057   6.376   6.438  11.452 -0.2688 -0.4023 -0.4188
10548TIP3   OH253058   2.879   1.926  13.608  0.1094 -0.0451 -0.3929
10548TIP3    H153059   2.960   1.972  13.632 -0.2589  0.3220  0.1450
10548TIP3    H253060   2.903   1.877  13.529  1.3652 -1.3675  0.7721
10549TIP3   OH253061   4.578   0.442   4.565 -0.3021  1.0823 -0.0416
10549TIP3    H153062   4.597   0.375   4.499  1.2072 -0.2871  1.7343
10549TIP3    H253063   4.493   0.416   4.601  0.0649  0.3377  0.3157
10550TIP3   OH253064   5.140   0.094   2.158 -0.1956  0.1270  0.1010
10550TIP3    H153065   5.145  -0.001   2.161  0.7893  0.2010  1.5238
10550TIP3    H253066   5.048   0.113   2.141 -0.2504 -1.0776 -0.9859
10551TIP3   OH253067   0.667   3.906  13.246  0.5328  0.3382 -0.1568
10551TIP3    H153068   0.690   3.844  13.315 -3.0594  1.2180  1.9930
10551TIP3    H253069   0.638   3.851  13.173 -1.3215 -0.5831  1.2347
10552TIP3   OH253070   0.898   6.360  16.408 -0.4084  0.2980  0.0521
10552TIP3    H153071   0.919   6.335  16.318  0.0320 -0.9688  0.5041
10552TIP3    H253072   0.983   6.381  16.447 -0.4975 -0.0920  0.4555
10553TIP3   OH253073   4.020   3.967   3.743 -0.0913 -0.2293  0.0214
10553TIP3    H153074   3.972   4.048   3.760  0.9881  0.6103 -0.8712
10553TIP3    H253075   4.049   3.938   3.830  0.8029  1.1515  0.1929
10554TIP3   OH253076   1.420   4.178  12.626 -0.2594 -0.3737  0.2347
10554TIP3    H153077   1.414   4.217  12.713  0.2291 -1.8030  0.9121
10554TIP3    H253078   1.376   4.094  12.633  3.8976 -2.6664  0.4100
10555TIP3   OH253079   0.795   1.804   1.793 -0.5452  0.0193  0.1317
10555TIP3    H153080   0.874   1.752   1.778 -1.0307 -0.6919  0.0436
10555TIP3    H253081   0.825   1.877   1.848  0.4659  0.5716 -1.1233
10556TIP3   OH253082   3.779   1.059   2.419  0.6792  0.2036  0.0022
10556TIP3    H153083   3.750   1.111   2.495  1.3658  0.2731  0.2170
10556TIP3    H253084   3.820   0.982   2.457  1.9445  0.7285 -0.2846
10557TIP3   OH253085   0.248   1.192  13.498 -0.0523  0.0481  0.3246
10557TIP3    H153086   0.299   1.261  13.455 -0.0165  0.1931  0.5990
10557TIP3    H253087   0.227   1.228  13.584 -0.9944  0.1684  0.0518
10558TIP3   OH253088   5.405   6.679   2.650 -0.0738  0.0917 -0.2395
10558TIP3    H153089   5.383   6.640   2.566 -0.4714  1.2013 -0.6547
10558TIP3    H253090   5.325   6.724   2.678  0.4025  0.6862  0.1843
10559TIP3   OH253091   3.236   6.618   2.328  0.1880  0.2225  0.2866
10559TIP3    H153092   3.239   6.711   2.351  1.7027 -0.1750  1.8115
10559TIP3    H253093   3.295   6.610   2.254  0.0349  0.4775  0.1346
10560TIP3   OH253094   6.705   3.328   3.703 -0.2321  0.4313  0.6706
10560TIP3    H153095   6.748   3.378   3.633 -0.2054 -1.2332 -0.5264
10560TIP3    H253096   6.617   3.310   3.669  0.1448 -1.3262  0.5925
10561TIP3   OH253097   1.217   4.277   3.424 -0.0435  0.2582 -0.0740
10561TIP3    H153098   1.245   4.210   3.487  1.8086  0.9931 -0.0835
10561TIP3    H253099   1.190   4.228   3.347  3.6118 -0.4274 -0.9910
10562TIP3   OH253100   6.147   4.430   4.974  0.3967 -0.1396 -0.2488
10562TIP3    H153101   6.065   4.441   4.926  1.1915 -1.5962 -1.9785
10562TIP3    H253102   6.119   4.414   5.064 -1.2259 -0.6097 -0.8082
10563TIP3   OH253103   2.059   6.446   4.730 -0.4132  0.5771 -0.2232
10563TIP3    H153104   1.991   6.496   4.684 -0.3897 -0.0290 -0.9396
10563TIP3    H253105   2.030   6.445   4.821  0.3935  3.1967  0.0960
10564TIP3   OH253106   2.195   4.536  13.066  0.5627  0.3455 -0.5048
10564TIP3    H153107   2.257   4.564  12.999  0.5457  1.8763  0.1004
10564TIP3    H253108   2.123   4.496  13.017  2.5648 -2.6790 -1.1505
10565TIP3   OH253109   1.190   1.037  12.534  0.1092 -0.8401  0.2046
10565TIP3    H153110   1.175   1.033  12.628  2.6690  0.1110  0.6992
10565TIP3    H253111   1.169   1.127  12.510  0.9642 -0.6499  0.1574
10566TIP3   OH253112   1.986   3.859   1.724 -0.0749  0.1812 -0.2303
10566TIP3    H153113   1.945   3.909   1.653 -0.4058  0.7474  0.3526
10566TIP3    H253114   1.998   3.771   1.688  0.4260  0.6554 -1.2295
10567TIP3   OH253115   0.388   2.900   1.609  0.4415  0.0292 -0.0143
10567TIP3    H153116   0.323   2.844   1.566  0.2738 -0.6194  1.0551
10567TIP3    H253117   0.337   2.951   1.672  0.7218  0.8017 -0.4030
10568TIP3   OH253118   4.707   2.293   1.248 -0.2949  0.1504  0.4713
10568TIP3    H153119   4.748   2.259   1.168 -0.7709  1.7188 -0.4666
10568TIP3    H253120   4.640   2.228   1.269 -1.4549  0.6417 -1.5131
10569TIP3   OH253121   0.536   4.982   3.726  0.1447  0.1597  0.1409
10569TIP3    H153122   0.479   4.964   3.801 -0.4253  0.5346 -0.1927
10569TIP3    H253123   0.610   5.029   3.763  1.0875 -1.8191  0.8420
10570TIP3   OH253124   3.679   4.150  13.467  0.2138  0.5898  0.6969
10570TIP3    H153125   3.634   4.076  13.428 -0.6542  0.7338  1.4010
10570TIP3    H253126   3.696   4.210  13.394 -2.6515  1.5128  0.7262
10571TIP3   OH253127   1.204   6.381   4.099  0.2107 -0.0030  0.1326
10571TIP3    H153128   1.298   6.374   4.080 -0.2478  0.9660 -2.7058
10571TIP3    H253129   1.162   6.373   4.013 -2.3974 -1.8670  1.5324
10572TIP3   OH253130   0.686   0.586  15.786  0.3014  0.0684  0.0463
10572TIP3    H153131   0.738   0.663  15.811 -1.0057  1.0514 -0.2128
10572TIP3    H253132   0.604   0.596  15.834 -0.8024  0.0702 -1.7958
10573TIP3   OH253133   5.635   6.524   5.945  0.7292  0.4148  0.4985
10573TIP3    H153134   5.718   6.505   5.989  1.0161  2.0406  0.6984
10573TIP3    H253135   5.652   6.503   5.853  1.4999  1.1429  0.4662
10574TIP3   OH253136   0.488   4.508  14.625  0.2617  0.3765 -0.9045
10574TIP3    H153137   0.411   4.535  14.675  0.0176 -0.8376 -0.6139
10574TIP3    H253138   0.533   4.590  14.605  0.9083  0.8527  2.2157
10575TIP3   OH253139   4.953   3.601  15.379  0.0935 -0.2106  0.3947
10575TIP3    H153140   5.023   3.637  15.324 -0.4573  1.1741  0.5817
10575TIP3    H253141   4.992   3.596  15.467  0.1510  0.0004  0.3810
10576TIP3   OH253142   0.792   6.087  15.057  0.0070  0.0963 -0.2548
10576TIP3    H153143   0.800   6.179  15.032  0.3073  0.1049 -0.1325
10576TIP3    H253144   0.755   6.045  14.980 -4.0335  1.0047  1.0738
10577TIP3   OH253145   3.040   5.448   1.247 -0.3444  0.4195  0.1099
10577TIP3    H153146   3.103   5.455   1.319 -1.5339 -1.9289  1.4189
10577TIP3    H253147   2.964   5.497   1.276 -0.2394  0.7970 -0.2383
10578TIP3   OH253148   5.875   3.438   1.140  0.6011  0.1497 -0.3537
10578TIP3    H153149   5.929   3.366   1.174  0.5746  0.9138  1.3538
10578TIP3    H253150   5.852   3.489   1.217 -0.6479  1.1493 -1.3663
10579TIP3   OH253151   5.540   4.737   4.108  0.1673 -0.2944 -0.4170
10579TIP3    H153152   5.520   4.660   4.162  2.2217 -0.8885 -0.4584
10579TIP3    H253153   5.513   4.712   4.020 -0.6435 -0.3647 -0.1505
10580TIP3   OH253154   0.792   0.523  12.970 -0.6832 -0.3314 -0.2117
10580TIP3    H153155   0.810   0.597  13.029  2.6911 -1.4347  0.2678
10580TIP3    H253156   0.787   0.563  12.883 -1.4279  0.7610  0.3189
10581TIP3   OH253157   6.505   5.169  10.442  0.1641  0.2102  0.0359
10581TIP3    H153158   6.431   5.125  10.485 -0.3051  0.0974 -0.8619
10581TIP3    H253159   6.467   5.247  10.403  0.5636  0.2629 -0.2499
10582TIP3   OH253160   0.117   2.579   2.466  0.3391 -0.1727  0.5552
10582TIP3    H153161   0.078   2.623   2.391  1.9789  1.8828  0.8546
10582TIP3    H253162   0.095   2.635   2.540 -0.9763 -2.0044  1.5881
10583TIP3   OH253163   4.583   1.121  13.159  0.3611 -0.4687  0.2742
10583TIP3    H153164   4.637   1.127  13.238  0.7946 -0.6226 -0.0051
10583TIP3    H253165   4.646   1.103  13.089  0.0365  0.1612 -0.1821
10584TIP3   OH253166   6.173   3.217  15.630  0.8465 -0.4658 -0.0725
10584TIP3    H153167   6.176   3.256  15.542  1.6460 -0.0118  0.1506
10584TIP3    H253168   6.089   3.245  15.666  1.6166  1.5135  0.2848
10585TIP3   OH253169   4.684   5.633  11.366 -0.5201  0.2530  0.4688
10585TIP3    H153170   4.591   5.630  11.345 -0.4991 -1.4804  0.5424
10585TIP3    H253171   4.729   5.625  11.281 -0.4465 -1.1029  0.6252
10586TIP3   OH253172   4.159   2.868   0.856 -0.0709 -0.0786  0.2711
10586TIP3    H153173   4.096   2.853   0.785  1.1235  0.7164 -0.9880
10586TIP3    H253174   4.237   2.901   0.812  0.3833  1.3133  2.0688
10587TIP3   OH253175   6.536   4.117   1.342 -0.3581 -0.1619  0.1274
10587TIP3    H153176   6.492   4.099   1.259 -1.3293  0.8207  0.4065
10587TIP3    H253177   6.604   4.181   1.320 -1.4893  1.1260  0.2908
10588TIP3   OH253178   0.540   5.784   0.321 -0.0015 -0.3683 -0.4253
10588TIP3    H153179   0.633   5.767   0.337 -0.3806 -1.0007  1.1363
10588TIP3    H253180   0.494   5.723   0.378 -1.3825  0.0581 -1.0707
10589TIP3   OH253181   6.647   4.002  17.073 -0.4944  0.2061 -0.5312
10589TIP3    H153182   6.738   3.996  17.046 -0.2547 -0.1159  0.3273
10589TIP3    H253183   6.603   3.934  17.022 -0.3865  0.8172 -1.4495
10590TIP3   OH253184   2.973   2.562  12.058  0.1926 -0.2583 -0.5008
10590TIP3    H153185   2.959   2.467  12.054 -1.1521 -0.0467 -0.9657
10590TIP3    H253186   2.896   2.596  12.103  1.6844  0.4104  1.6487
10591TIP3   OH253187   1.191   2.271   2.114  0.5613 -0.1357 -0.6357
10591TIP3    H153188   1.111   2.297   2.067  1.1572  1.6909 -0.6652
10591TIP3    H253189   1.186   2.175   2.117 -1.7722 -0.0523 -0.3816
10592TIP3   OH253190   1.777   2.630  12.269  0.2732  1.3774 -0.0859
10592TIP3    H153191   1.712   2.561  12.274  0.5384  1.1534  0.2524
10592TIP3    H253192   1.854   2.589  12.229  0.4662  1.4508  0.2089
10593TIP3   OH253193   5.300   4.828  14.656  0.0252  0.6427  0.3671
10593TIP3    H153194   5.228   4.891  14.645 -1.5860 -0.7594  2.4190
10593TIP3    H253195   5.256   4.745  14.670  2.1192 -1.1329 -2.9548
10594TIP3   OH253196   1.026   1.407   2.879 -0.4483  0.2944 -0.2669
10594TIP3    H153197   0.934   1.380   2.884 -0.6061  0.8286 -0.3093
10594TIP3    H253198   1.044   1.414   2.786  0.2416 -1.8688 -0.3329
10595TIP3   OH253199   1.129   5.703   4.344  0.2353  0.0379  0.2739
10595TIP3    H153200   1.065   5.771   4.327  0.2117  0.3033  1.3806
10595TIP3    H253201   1.205   5.727   4.290 -0.6702 -0.4025 -1.2004
10596TIP3   OH253202   6.462   4.140  12.123  0.3788 -0.5115 -0.6500
10596TIP3    H153203   6.439   4.086  12.198 -0.2472  0.4105 -0.1784
10596TIP3    H253204   6.451   4.082  12.048  0.9633 -1.4234 -0.0525
10597TIP3   OH253205   3.053   1.624   4.342 -0.3459 -0.0056  0.1394
10597TIP3    H153206   3.067   1.700   4.285 -0.5378  0.9755  1.3931
10597TIP3    H253207   3.141   1.593   4.363 -0.2489  0.6470  0.6754
10598TIP3   OH253208   3.309   2.657  13.847  0.1568 -0.3281  0.0749
10598TIP3    H153209   3.230   2.652  13.794  0.2477 -1.1181 -0.0032
10598TIP3    H253210   3.377   2.688  13.788 -0.1257  0.4854  0.1775
10599TIP3   OH253211   6.696   2.829  15.240 -0.5197  0.9901 -0.5952
10599TIP3    H153212   6.697   2.874  15.155 -0.4251 -0.4960 -1.3972
10599TIP3    H253213   6.621   2.770  15.234  1.3084 -1.3611 -0.8538
10600TIP3   OH253214   1.557   0.318   2.690 -0.6989  0.4111  0.2793
10600TIP3    H153215   1.584   0.294   2.778  0.9988  0.3914 -0.2357
10600TIP3    H253216   1.583   0.410   2.681 -1.8360  0.7317  0.1666
10601TIP3   OH253217   5.838   3.595  11.353  0.4287 -0.1606 -0.6740
10601TIP3    H153218   5.919   3.567  11.396  0.3145  0.6143  0.0709
10601TIP3    H253219   5.814   3.522  11.296  1.4941 -0.5144 -0.6768
10602TIP3   OH253220   5.787   1.813  11.403  0.1309  0.4543  0.3758
10602TIP3    H153221   5.798   1.718  11.401 -2.3395  0.1615 -0.9152
10602TIP3    H253222   5.809   1.842  11.315 -0.5351  0.9100  0.3588
10603TIP3   OH253223   3.725   4.791  16.155 -0.0204  0.4483  0.0248
10603TIP3    H153224   3.696   4.872  16.114  0.7948  0.5229 -0.4098
10603TIP3    H253225   3.648   4.733  16.151 -0.2300  0.7818 -0.7515
10604TIP3   OH253226   2.746   2.610   6.621  0.3445  0.2286  0.2333
10604TIP3    H153227   2.678   2.548   6.646 -0.2445 -0.7623 -3.4259
10604TIP3    H253228   2.708   2.696   6.638 -1.4171 -0.3301 -0.6973
10605TIP3   OH253229   4.979   3.743   1.272 -0.0681 -0.0312  0.4616
10605TIP3    H153230   5.067   3.770   1.297  0.0891  0.9736 -1.1659
10605TIP3    H253231   4.984   3.647   1.269  1.2582  0.0586 -0.6619
10606TIP3   OH253232   0.344   5.684  13.859  0.0102  0.5665 -0.1619
10606TIP3    H153233   0.277   5.679  13.928 -1.1723  3.1219 -1.0662
10606TIP3    H253234   0.295   5.685  13.777  1.2409  0.7943 -0.9087
10607TIP3   OH253235   3.064   2.680  13.752 -0.1238  0.3975  0.1549
10607TIP3    H153236   3.048   2.773  13.734 -0.6486  0.3692  0.4862
10607TIP3    H253237   3.027   2.665  13.839  1.1444  0.1953  0.6755
10608TIP3   OH253238   1.464   4.343  11.699  0.4224  0.0296 -0.1868
10608TIP3    H153239   1.428   4.285  11.632  1.1031  0.7687 -1.2074
10608TIP3    H253240   1.487   4.285  11.771 -0.0114 -0.8207 -0.7261
10609TIP3   OH253241   4.800   0.838  15.765  0.6062 -0.3218 -0.7468
10609TIP3    H153242   4.827   0.899  15.696  0.6719  0.3605 -0.1274
10609TIP3    H253243   4.732   0.785  15.724  0.6575  0.0615 -1.3437
10610TIP3   OH253244   6.579   5.574   3.144 -0.1417  0.0427  0.1342
10610TIP3    H153245   6.636   5.570   3.067 -1.2245 -0.4519 -0.6541
10610TIP3    H253246   6.526   5.495   3.139 -0.6260  0.2950  1.0873
10611TIP3   OH253247   4.272   2.155   0.504  0.2489  0.0556  0.2211
10611TIP3    H153248   4.191   2.118   0.470  0.3656 -0.7039  0.7628
10611TIP3    H253249   4.341   2.104   0.462  0.4494  0.7404 -0.2854
10612TIP3   OH253250   6.033   5.369   3.700  0.5716 -0.2980  0.3421
10612TIP3    H153251   5.946   5.346   3.669  0.4531 -0.8422  1.0675
10612TIP3    H253252   6.018   5.438   3.765  0.7190 -0.1005  0.1708
10613TIP3   OH253253   2.554   4.561   4.715  0.3012 -0.3385  0.5523
10613TIP3    H153254   2.544   4.479   4.764  1.5107  0.2660  1.8550
10613TIP3    H253255   2.464   4.590   4.698 -0.1337 -1.5737  0.6866
10614TIP3   OH253256   5.080   4.284   6.230 -0.0557 -0.2595  0.0850
10614TIP3    H153257   5.136   4.359   6.248 -0.5244 -0.0852  0.8454
10614TIP3    H253258   5.109   4.252   6.144  0.6606  0.3138  0.1095
10615TIP3   OH253259   1.132   6.060   0.718 -0.8126  0.7256 -0.0068
10615TIP3    H153260   1.201   6.126   0.712 -0.5686  0.4930  0.2431
10615TIP3    H253261   1.090   6.076   0.802 -1.9007  1.6867 -0.7286
10616TIP3   OH253262   2.574   4.400  13.862  0.1835 -0.1438 -0.3136
10616TIP3    H153263   2.644   4.426  13.923 -0.3054  1.2908 -0.3311
10616TIP3    H253264   2.614   4.408  13.775 -0.1423  1.2490 -0.3591
10617TIP3   OH253265   3.287   6.324   3.763 -0.6825 -0.0076  0.0346
10617TIP3    H153266   3.371   6.370   3.762 -0.6864  0.0202 -2.2085
10617TIP3    H253267   3.223   6.393   3.779 -0.4488  0.3186 -0.4012
10618TIP3   OH253268   5.468   6.437   0.247  0.2287  0.5621 -0.1431
10618TIP3    H153269   5.419   6.434   0.165 -0.3257  0.7671  0.1798
10618TIP3    H253270   5.444   6.520   0.286  1.2226  0.8855 -0.2193
10619TIP3   OH253271   5.419   1.257   1.679 -0.4762 -0.3728 -0.3775
10619TIP3    H153272   5.470   1.308   1.742 -0.5534 -3.1428  2.0207
10619TIP3    H253273   5.328   1.281   1.697 -0.3064  1.4770 -1.8667
10620TIP3   OH253274   0.936   4.718   5.640 -0.4803  0.6547 -0.4020
10620TIP3    H153275   0.992   4.753   5.571  1.4633 -2.1801 -0.3800
10620TIP3    H253276   0.848   4.725   5.605  0.2362  1.6151 -2.0944
10621TIP3   OH253277   0.490   1.252   3.301  0.4119 -0.7602  0.2109
10621TIP3    H153278   0.447   1.317   3.245  0.4765 -0.3587  0.6236
10621TIP3    H253279   0.456   1.270   3.389 -1.5221 -2.9072 -0.0340
10622TIP3   OH253280   6.696   3.187   2.086 -0.2016  0.0365 -0.0623
10622TIP3    H153281   6.749   3.183   2.007  0.9402  1.2369  0.6304
10622TIP3    H253282   6.759   3.182   2.158 -1.0617  1.0458  0.7730
10623TIP3   OH253283   4.880   1.844  14.269 -0.1316 -0.8584 -0.3561
10623TIP3    H153284   4.970   1.875  14.258 -0.7973  1.1340 -0.4360
10623TIP3    H253285   4.857   1.870  14.358 -0.5962 -1.4631 -0.2996
10624TIP3   OH253286   5.355   6.002   4.383  0.4306  0.2885 -0.6165
10624TIP3    H153287   5.393   5.926   4.427 -3.5401 -1.8794 -0.7269
10624TIP3    H253288   5.276   6.023   4.433 -1.0792  1.3719 -3.3094
10625TIP3   OH253289   5.508   1.445  10.842 -0.3697 -0.0361 -0.3540
10625TIP3    H153290   5.452   1.512  10.883 -3.4482 -1.0439 -2.6906
10625TIP3    H253291   5.572   1.495  10.791  0.0643  1.1485  1.3303
10626TIP3   OH253292   5.682   4.055   4.708 -0.5737 -0.1904  0.1507
10626TIP3    H153293   5.773   4.036   4.686 -0.8644 -2.0384  0.4583
10626TIP3    H253294   5.631   4.007   4.643 -1.3469 -0.1314  0.7034
10627TIP3   OH253295   3.919   3.749  14.307 -0.0378  0.5174  0.0513
10627TIP3    H153296   4.002   3.766  14.262  1.0838 -0.2886  1.7726
10627TIP3    H253297   3.899   3.658  14.287  1.9780 -0.7703  3.4640
10628TIP3   OH253298   3.383   4.451   4.774  0.5685 -0.1271  0.5041
10628TIP3    H153299   3.465   4.494   4.748  0.3937  0.1220  0.3702
10628TIP3    H253300   3.400   4.357   4.761 -0.6049  0.1473 -3.5718
10629TIP3   OH253301   3.089   3.553   1.190  0.1512 -0.0153  0.0775
10629TIP3    H153302   3.000   3.560   1.226  0.9400  3.1968  1.5397
10629TIP3    H253303   3.140   3.514   1.261  0.5637  1.1591  0.4317
10630TIP3   OH253304   2.885   0.823   4.585 -0.3550  0.1830 -0.2889
10630TIP3    H153305   2.946   0.853   4.653 -0.3138  0.3667 -0.4040
10630TIP3    H253306   2.807   0.796   4.632 -0.5187  0.7895 -0.2013
10631TIP3   OH253307   6.344   0.430  11.235 -0.0010  0.2193 -0.6400
10631TIP3    H153308   6.322   0.360  11.173 -0.5803  0.1346 -0.3474
10631TIP3    H253309   6.333   0.511  11.186  0.9711  0.0942 -1.0709
10632TIP3   OH253310   1.506   2.539   6.302 -0.0219 -0.0256 -0.1689
10632TIP3    H153311   1.554   2.618   6.328 -1.8126  1.2474 -0.6121
10632TIP3    H253312   1.466   2.508   6.383  2.4034 -1.7248  0.4154
10633TIP3   OH253313   6.268   4.278   1.053  0.4964 -0.3123  0.1820
10633TIP3    H153314   6.348   4.329   1.068  0.5986  0.4630 -2.7491
10633TIP3    H253315   6.198   4.343   1.048  0.2971 -0.6414 -1.3914
10634TIP3   OH253316   1.891   3.150  13.786 -0.1559 -0.2561  0.1810
10634TIP3    H153317   1.807   3.166  13.828  0.6279 -1.8774  2.4754
10634TIP3    H253318   1.942   3.229  13.801 -1.4772  1.0213 -1.8454
10635TIP3   OH253319   2.558   3.750   0.566  0.0950 -0.3164 -0.7868
10635TIP3    H153320   2.541   3.670   0.517 -0.0762  0.2785 -1.7095
10635TIP3    H253321   2.526   3.821   0.510  0.0356  0.3917  0.1079
10636TIP3   OH253322   0.653   6.075  14.819  0.0490 -0.4436  0.1284
10636TIP3    H153323   0.600   6.154  14.815  0.0893 -0.4510 -0.6542
10636TIP3    H253324   0.728   6.093  14.762  1.0118 -0.3526  1.3948
10637TIP3   OH253325   0.013   1.743  12.659  0.2952 -0.0687  0.4309
10637TIP3    H153326   0.037   1.810  12.595  0.2462 -0.4152  0.0499
10637TIP3    H253327   0.015   1.661  12.610  3.7098 -0.8195  1.6630
10638TIP3   OH253328   2.085   6.577   3.015  0.0338 -0.4800  0.4941
10638TIP3    H153329   2.144   6.576   3.090 -0.9783 -1.5896  1.3017
10638TIP3    H253330   2.068   6.484   2.997 -0.2569 -0.1990 -0.6775
10639TIP3   OH253331   5.647   1.797   3.651 -0.0699 -0.3072  0.0174
10639TIP3    H153332   5.700   1.815   3.728 -1.0223 -1.5171  0.9756
10639TIP3    H253333   5.558   1.822   3.676 -0.7075 -2.4377 -0.0164
10640TIP3   OH253334   1.388   0.420   0.436  0.3203 -0.5926 -0.2083
10640TIP3    H153335   1.431   0.442   0.353  0.5417  2.3148  0.6413
10640TIP3    H253336   1.295   0.437   0.419  0.5261  1.4094  0.5392
10641TIP3   OH253337   4.964   2.533   1.172 -0.0563 -0.0573 -0.4108
10641TIP3    H153338   4.988   2.625   1.185 -1.3203  0.3043 -0.5299
10641TIP3    H253339   4.880   2.524   1.218  2.1912 -2.2955  3.5565
10642TIP3   OH253340   2.075   3.009  13.611  0.1165 -0.2580  0.2078
10642TIP3    H153341   2.158   2.998  13.658  0.8301  2.3241 -0.3607
10642TIP3    H253342   2.021   3.062  13.669  1.3747  3.8310 -2.1245
10643TIP3   OH253343   5.867   1.825   0.062 -0.7995  0.1619 -0.1692
10643TIP3    H153344   5.888   1.794   0.150  1.9762  0.9400 -0.5131
10643TIP3    H253345   5.885   1.751   0.005 -0.9212  0.2056 -0.2651
10644TIP3   OH253346   0.038   4.628   3.299 -0.1385 -0.3201 -0.0632
10644TIP3    H153347   0.090   4.555   3.264  0.8925  0.7011 -0.7038
10644TIP3    H253348   0.095   4.669   3.363 -0.5746  0.1623  0.0162
10645TIP3   OH253349   4.726   2.866   2.941  0.3327  0.4372 -0.0631
10645TIP3    H153350   4.661   2.796   2.941  1.0430 -0.2352  1.5873
10645TIP3    H253351   4.806   2.824   2.909  0.9052  0.3399  1.4598
10646TIP3   OH253352   3.008   2.982  12.573 -0.5857  0.1535  0.0422
10646TIP3    H153353   3.013   3.064  12.524  0.1347  0.1898  0.1704
10646TIP3    H253354   3.022   2.914  12.508  3.6230  0.2966  0.6184
10647TIP3   OH253355   1.038   1.959  15.245 -0.1649 -0.2341  0.1332
10647TIP3    H153356   1.098   2.025  15.210  0.8538 -1.0527  0.3099
10647TIP3    H253357   1.081   1.875  15.226 -1.8821 -0.9109 -0.9585
10648TIP3   OH253358   1.243   2.306   0.501  0.1970  0.1343  0.2596
10648TIP3    H153359   1.218   2.333   0.413 -0.2711  1.3296  0.7424
10648TIP3    H253360   1.276   2.387   0.542  0.4375 -0.4164  1.1626
10649TIP3   OH253361   1.281   3.791   0.072 -0.2869  0.7392  0.3490
10649TIP3    H153362   1.249   3.708   0.036  1.9436 -0.9531  2.1302
10649TIP3    H253363   1.202   3.844   0.081 -1.7211 -1.0223 -1.1996
10650TIP3   OH253364   3.898   1.537   1.932  0.5312 -0.7818 -0.1707
10650TIP3    H153365   3.844   1.496   1.864  0.3683  1.9694 -1.7778
10650TIP3    H253366   3.984   1.548   1.891  1.1688 -1.4097  0.9707
10651TIP3   OH253367   0.785   4.062   4.302  0.6063 -0.7960  0.3556
10651TIP3    H153368   0.776   4.057   4.207 -0.7091  0.9487  0.3708
10651TIP3    H253369   0.727   3.993   4.335 -0.5938  0.0069 -0.0506
10652TIP3   OH253370   4.708   3.954   5.166 -0.1442  0.1042 -0.2062
10652TIP3    H153371   4.700   4.049   5.154  0.4324  0.2403  0.4376
10652TIP3    H253372   4.801   3.941   5.187 -0.7853 -0.2971  2.4739
10653TIP3   OH253373   0.695   2.979  16.413  0.5343 -0.3455  0.9776
10653TIP3    H153374   0.759   2.995  16.482  0.2219 -0.3751  1.2765
10653TIP3    H253375   0.615   2.953  16.459 -0.2339  1.4650  0.6997
10654TIP3   OH253376   5.636   3.631  15.030 -0.2255  0.5229  0.2582
10654TIP3    H153377   5.673   3.660  14.947 -1.4903 -0.6777 -0.7538
10654TIP3    H253378   5.543   3.654  15.025 -0.1248  1.3649  1.7798
10655TIP3   OH253379   2.949   1.625  10.974  0.3931 -0.0752 -0.5998
10655TIP3    H153380   2.970   1.621  10.881 -0.5342  1.1245 -0.8776
10655TIP3    H253381   3.008   1.692  11.009  0.4692 -0.2453 -0.4002
10656TIP3   OH253382   1.423   5.113   1.074  0.0972 -0.8207 -0.2682
10656TIP3    H153383   1.364   5.173   1.120 -1.2889 -2.5051  0.2616
10656TIP3    H253384   1.490   5.168   1.036 -0.6266  0.9561  0.9761
10657TIP3   OH253385   3.132   3.497   0.362  0.2681 -0.4832  0.5073
10657TIP3    H153386   3.064   3.446   0.405  0.6702 -0.1992  1.4937
10657TIP3    H253387   3.207   3.493   0.422  0.8340 -0.0794 -0.1600
10658TIP3   OH253388   1.039   5.263   2.022 -0.2660  0.5873  0.4515
10658TIP3    H153389   0.996   5.237   1.941  1.1687  0.3996 -0.2465
10658TIP3    H253390   0.975   5.320   2.065 -0.9477  0.8601 -0.9081
10659TIP3   OH253391   6.119   0.888   1.004 -0.1774  0.1383 -0.7811
10659TIP3    H153392   6.091   0.812   0.954 -0.6414 -0.1299 -0.1277
10659TIP3    H253393   6.039   0.918   1.048 -0.2268  1.6174 -1.8263
10660TIP3   OH253394   3.102   2.220   5.135 -0.0176 -0.2319 -0.0189
10660TIP3    H153395   3.091   2.136   5.090 -1.4541  0.5509 -1.1193
10660TIP3    H253396   3.197   2.225   5.151  0.3148 -1.2327 -1.5291
10661TIP3   OH253397   3.045   6.264   5.550  0.2316 -0.5115 -0.3620
10661TIP3    H153398   3.125   6.231   5.510 -0.1328  0.5164 -1.9954
10661TIP3    H253399   3.067   6.352   5.579 -0.1552 -0.4247 -0.3258
10662TIP3   OH253400   0.763   1.855   3.555 -0.5351 -0.2017  0.0805
10662TIP3    H153401   0.734   1.813   3.636 -1.5869 -2.1338 -1.2489
10662TIP3    H253402   0.768   1.948   3.576 -0.8160 -0.6830  2.3503
10663TIP3   OH253403   4.108   1.310  13.504  0.4635  1.1199 -0.4757
10663TIP3    H153404   4.202   1.290  13.511  0.1745 -0.0584  0.1326
10663TIP3    H253405   4.065   1.225  13.514 -0.6166  1.4069 -2.4782
10664TIP3   OH253406   0.231   3.847   4.035 -0.3508 -0.4391  0.2238
10664TIP3    H153407   0.219   3.865   4.129 -0.8239 -0.8640  0.2443
10664TIP3    H253408   0.239   3.934   3.995 -1.0203 -0.2255  0.5418
10665TIP3   OH253409   0.149   1.986   0.627  0.0282 -0.2183 -0.0732
10665TIP3    H153410   0.069   1.985   0.575 -0.4433 -2.5834  0.6093
10665TIP3    H253411   0.128   2.042   0.702 -1.1868 -1.2474  0.3728
10666TIP3   OH253412   4.340   4.195   5.094  0.3639  0.3070  0.0263
10666TIP3    H153413   4.307   4.243   5.170  3.7181  1.1529  1.0131
10666TIP3    H253414   4.300   4.108   5.102 -1.7793  1.3430  1.0093
10667TIP3   OH253415   2.334   0.928  14.060 -0.2335 -0.1678 -0.0372
10667TIP3    H153416   2.408   0.898  14.007 -0.2425  1.0933 -0.7712
10667TIP3    H253417   2.374   0.963  14.140 -0.0399  0.3609 -0.3623
10668TIP3   OH253418   3.643   3.132  16.099 -0.4490 -0.4621 -0.6776
10668TIP3    H153419   3.583   3.084  16.042 -0.9923  0.1477 -0.6391
10668TIP3    H253420   3.691   3.065  16.146 -1.1230 -0.9636 -0.6952
10669TIP3   OH253421   4.160   6.630  15.348  0.4436  0.2242  0.0420
10669TIP3    H153422   4.228   6.564  15.333  0.6063  0.2264  0.7378
10669TIP3    H253423   4.179   6.664  15.436 -2.9901 -2.7794  2.0611
10670TIP3   OH253424   4.937   6.760   3.969  0.0494 -0.0008 -0.1457
10670TIP3    H153425   4.946   6.680   3.916  1.2651  1.3138 -2.0064
10670TIP3    H253426   4.857   6.801   3.936 -1.0514 -0.8483  1.4073
10671TIP3   OH253427   3.149   3.162   6.165  0.6395  0.1422 -0.2611
10671TIP3    H153428   3.116   3.244   6.203  1.6870  0.9974 -1.1437
10671TIP3    H253429   3.080   3.098   6.182 -1.3283  1.7736 -1.6943
10672TIP3   OH253430   2.995   3.285  17.055  0.0914 -0.2262  0.5147
10672TIP3    H153431   2.931   3.269  16.985  1.1113 -1.0355 -0.2403
10672TIP3    H253432   2.950   3.256  17.134 -0.4340 -0.9225 -0.0255
10673TIP3   OH253433   1.818   6.199  15.186  0.2953 -0.0853 -0.0731
10673TIP3    H153434   1.820   6.252  15.266  1.3390 -0.2542  0.0211
10673TIP3    H253435   1.768   6.252  15.124  2.2685  1.5676 -0.3472
10674TIP3   OH253436   3.989   3.014   4.730 -0.5806 -0.2823  0.1119
10674TIP3    H153437   3.900   3.033   4.699 -0.0996 -0.0314 -1.1706
10674TIP3    H253438   3.993   2.918   4.735 -0.7080 -0.3217 -0.5038
10675TIP3   OH253439   0.541   1.705  13.339  0.0698  0.1067 -0.1887
10675TIP3    H153440   0.559   1.673  13.427  0.6574  0.5624 -0.1398
10675TIP3    H253441   0.446   1.702  13.331  0.0408 -0.4214  0.2746
10676TIP3   OH253442   1.193   1.430   5.689  0.0132  0.3591  0.3264
10676TIP3    H153443   1.230   1.365   5.629  0.6099  0.4496  0.5927
10676TIP3    H253444   1.143   1.489   5.632 -1.6468 -1.0876  0.2364
10677TIP3   OH253445   1.425   4.129  13.827 -0.3854 -0.2889  0.3168
10677TIP3    H153446   1.389   4.199  13.772  0.3579 -0.2936 -0.1832
10677TIP3    H253447   1.520   4.139  13.819 -0.2458 -2.2542 -0.9397
10678TIP3   OH253448   3.459   4.869   2.923  1.0320 -0.4776  0.1208
10678TIP3    H153449   3.416   4.852   2.839  1.2807  0.1656 -0.1354
10678TIP3    H253450   3.489   4.782   2.953  0.8879 -0.7124 -0.4235
10679TIP3   OH253451   4.901   4.025   5.555  0.6812 -0.1301 -0.6093
10679TIP3    H153452   4.940   4.011   5.641  1.2938 -0.5877 -0.9615
10679TIP3    H253453   4.838   4.096   5.569 -0.9243 -1.7610  0.7282
10680TIP3   OH253454   4.337   4.425   0.135 -0.3972  0.5391 -0.7250
10680TIP3    H153455   4.290   4.355   0.089  0.6728 -0.8285  0.2484
10680TIP3    H253456   4.429   4.410   0.114  0.0804  0.0224  1.6933
10681TIP3   OH253457   5.327   3.886  10.494 -0.3886  0.0097 -0.8472
10681TIP3    H153458   5.370   3.900  10.578  0.5969  0.1013 -1.3640
10681TIP3    H253459   5.278   3.967  10.479 -2.1115 -0.7370  0.5215
10682TIP3   OH253460   3.068   0.160  13.638 -0.7372  0.4198 -0.4544
10682TIP3    H153461   3.061   0.249  13.673 -0.3999  0.7971 -1.3373
10682TIP3    H253462   2.979   0.124  13.647 -0.6820  0.5486  0.6712
10683TIP3   OH253463   3.341   3.596   3.973  0.1871  0.2557  0.2164
10683TIP3    H153464   3.435   3.577   3.970 -0.0555 -0.9731  0.1117
10683TIP3    H253465   3.309   3.571   3.887 -0.4254 -0.3823  0.6240
10684TIP3   OH253466   6.711   4.210   2.049 -0.4923  0.4593 -0.2772
10684TIP3    H153467   6.629   4.188   2.004 -0.0488  0.7567 -1.2260
10684TIP3    H253468   6.777   4.155   2.007 -0.2350  0.0517  0.6414
10685TIP3   OH253469   3.037   2.706   2.992 -0.5766 -0.2941  0.3475
10685TIP3    H153470   3.014   2.621   3.029  0.1763 -1.1322 -1.0804
10685TIP3    H253471   3.124   2.725   3.026 -0.3241 -0.5721 -0.1387
10686TIP3   OH253472   2.577   4.765   4.349  0.1342  0.2230 -0.2133
10686TIP3    H153473   2.538   4.698   4.294 -0.3077 -0.3207  0.7550
10686TIP3    H253474   2.660   4.727   4.378 -0.8495 -0.5699  1.6354
10687TIP3   OH253475   1.466   3.691   4.915  0.3581 -0.1548  0.4270
10687TIP3    H153476   1.513   3.766   4.880 -1.3938  0.2876 -1.0879
10687TIP3    H253477   1.391   3.680   4.855 -0.2909 -2.1011  1.5508
10688TIP3   OH253478   2.077   3.589   3.469  0.3159 -0.0871 -0.3058
10688TIP3    H153479   1.989   3.614   3.441  0.2662 -0.9324 -0.9247
10688TIP3    H253480   2.097   3.650   3.540 -1.1966 -0.5816  0.5677
10689TIP3   OH253481   2.890   1.830   5.540 -0.1832 -0.4808 -0.3312
10689TIP3    H153482   2.981   1.800   5.545 -0.9412 -2.7083  1.2584
10689TIP3    H253483   2.842   1.755   5.504 -1.6938 -0.1151  0.8409
10690TIP3   OH253484   5.499   1.777  14.540 -0.2173 -0.2356 -0.3405
10690TIP3    H153485   5.458   1.842  14.598  1.0450 -1.1062  1.5874
10690TIP3    H253486   5.537   1.830  14.469 -0.1370  1.0643  0.6376
10691TIP3   OH253487   4.711   4.660   4.640  0.4638 -0.3549  0.1707
10691TIP3    H153488   4.685   4.679   4.730 -1.2856 -0.6997 -0.2381
10691TIP3    H253489   4.783   4.598   4.648 -1.1339 -2.0987  1.3162
10692TIP3   OH253490   5.724   5.519  11.194  0.1726  0.4959  0.2858
10692TIP3    H153491   5.717   5.578  11.119 -0.3073 -0.1339 -0.1709
10692TIP3    H253492   5.680   5.439  11.166  0.9688 -0.1455  0.8397
10693TIP3   OH253493   0.519   4.362  11.832 -0.0356 -0.5291 -0.7888
10693TIP3    H153494   0.482   4.305  11.764 -1.1993  1.3657 -1.7902
10693TIP3    H253495   0.534   4.446  11.787  0.3602  0.3732  0.9911
10694TIP3   OH253496   1.203   0.942   2.414 -0.5265 -0.4325  0.3629
10694TIP3    H153497   1.252   0.860   2.427 -0.9144 -0.3546  2.3817
10694TIP3    H253498   1.239   0.978   2.333 -1.0585 -3.1152 -1.1631
10695TIP3   OH253499   6.592   3.009  13.370  0.9115 -0.0387 -0.1269
10695TIP3    H153500   6.519   2.976  13.317  0.1291  1.5705 -0.1133
10695TIP3    H253501   6.662   2.946  13.357 -0.1425 -1.0536 -1.0086
10696TIP3   OH253502   5.922   1.909   0.621  0.6393 -0.3910 -0.2210
10696TIP3    H153503   6.016   1.893   0.623  0.8957  1.1036  0.0751
10696TIP3    H253504   5.885   1.840   0.676  1.6592 -0.2950  0.6008
10697TIP3   OH253505   6.220   0.614  11.060  0.4598  0.2395 -0.0654
10697TIP3    H153506   6.159   0.546  11.033 -0.5293  1.5961 -1.3156
10697TIP3    H253507   6.232   0.668  10.982  1.0821  1.6143  0.9608
10698TIP3   OH253508   1.005   3.987  14.653  0.5764 -0.5324  0.0094
10698TIP3    H153509   1.039   3.948  14.573 -1.1242 -0.5594 -0.7160
10698TIP3    H253510   0.986   4.078  14.630 -0.7752 -0.7762  0.1045
10699TIP3   OH253511   1.478   3.207   6.543 -0.5180  0.4033  0.5113
10699TIP3    H153512   1.450   3.133   6.489 -2.2191  1.3526  0.0539
10699TIP3    H253513   1.567   3.184   6.572 -1.1365 -1.9464  0.6327
10700TIP3   OH253514   2.070   0.349  16.764  0.0679 -0.1500  0.6117
10700TIP3    H153515   2.088   0.439  16.737 -1.4639 -0.2171 -0.6930
10700TIP3    H253516   2.140   0.328  16.827 -0.2784  2.3576  1.8755
10701TIP3   OH253517   0.294   0.979  14.093  0.8877  0.2067 -0.1231
10701TIP3    H153518   0.275   1.054  14.149  0.9154  0.7476 -0.8408
10701TIP3    H253519   0.339   1.016  14.017 -0.4289 -0.3335 -1.1891
10702TIP3   OH253520   3.555   2.797   3.381 -0.4499 -0.2957  0.0464
10702TIP3    H153521   3.508   2.719   3.350  1.2022 -1.1981 -0.2264
10702TIP3    H253522   3.600   2.830   3.303 -0.4236  0.4276  0.3647
10703TIP3   OH253523   5.844   5.507  13.305  0.1347  0.0601 -0.5435
10703TIP3    H153524   5.912   5.491  13.370  1.3890  1.3472 -1.4937
10703TIP3    H253525   5.865   5.448  13.233 -0.4635 -0.3948 -0.3522
10704TIP3   OH253526   3.807   5.541   4.577 -0.6155 -0.1100  0.0669
10704TIP3    H153527   3.770   5.453   4.590 -0.8298  0.0041  0.2345
10704TIP3    H253528   3.747   5.599   4.624  0.7231 -0.0928  1.7750
10705TIP3   OH253529   4.598   3.579  16.393 -0.4993 -0.0602  0.2271
10705TIP3    H153530   4.551   3.650  16.350 -1.7228 -1.7911 -1.3471
10705TIP3    H253531   4.653   3.623  16.458 -1.3615  2.2998 -0.5904
10706TIP3   OH253532   6.444   4.724   2.715 -0.2711 -0.7440  0.4313
10706TIP3    H153533   6.529   4.735   2.758 -0.4572 -0.6942  0.7810
10706TIP3    H253534   6.449   4.637   2.675  0.0718 -0.6049  0.1616
10707TIP3   OH253535   2.069   0.618   4.850  0.2342  0.0151  0.4676
10707TIP3    H153536   2.084   0.547   4.788  1.9079 -0.5375  1.4779
10707TIP3    H253537   2.012   0.579   4.917  1.7494 -0.6325  1.4136
10708TIP3   OH253538   3.730   3.217  11.833  0.8119 -0.1017 -0.0380
10708TIP3    H153539   3.688   3.143  11.789  0.4829 -0.5502  0.9898
10708TIP3    H253540   3.787   3.256  11.768 -0.8959  0.2583 -1.3560
10709TIP3   OH253541   5.731   1.277  12.383 -0.4767 -0.3735  0.0119
10709TIP3    H153542   5.804   1.258  12.324 -0.8894  1.2214 -1.0433
10709TIP3    H253543   5.772   1.281  12.470  1.2369  3.1804 -0.8548
10710TIP3   OH253544   5.644   4.229  16.764 -0.7084 -0.1813  0.0134
10710TIP3    H153545   5.588   4.306  16.755 -1.9732 -1.1461 -0.4645
10710TIP3    H253546   5.668   4.227  16.857  1.2461  2.0819 -0.3777
10711TIP3   OH253547   3.339   0.746   2.028 -0.3965 -0.0955  0.3177
10711TIP3    H153548   3.410   0.734   2.090  0.4975 -0.1673 -0.7062
10711TIP3    H253549   3.278   0.674   2.047 -0.1548 -0.0818  1.1359
10712TIP3   OH253550   1.969   0.649   1.687  0.0262  0.3659  0.5038
10712TIP3    H153551   1.960   0.557   1.712  1.3329  0.4563  1.3548
10712TIP3    H253552   2.024   0.687   1.755  0.1642  1.5973 -0.2808
10713TIP3   OH253553   0.416   3.801   0.421 -0.0037 -0.3743 -0.5176
10713TIP3    H153554   0.460   3.828   0.341 -1.2166  0.3687 -0.9458
10713TIP3    H253555   0.323   3.819   0.405 -0.3624 -1.0301  0.7234
10714TIP3   OH253556   3.786   6.051  13.317  0.5159  0.0236  0.3739
10714TIP3    H153557   3.821   6.074  13.231  1.2745 -1.9924  0.1179
10714TIP3    H253558   3.846   6.093  13.379 -0.5361  2.2152 -0.0611
10715TIP3   OH253559   2.344   1.772   0.847 -0.6652  0.1740  0.3718
10715TIP3    H153560   2.436   1.795   0.834 -0.8351  1.0132  0.6500
10715TIP3    H253561   2.304   1.851   0.883 -1.6057 -0.0284 -0.2107
10716TIP3   OH253562   2.286   5.581   1.274  0.3425 -0.0564 -0.3051
10716TIP3    H153563   2.250   5.581   1.185 -0.5402 -0.3440  0.0442
10716TIP3    H253564   2.212   5.558   1.330  1.2130 -1.2322  0.3793
10717TIP3   OH253565   2.841   1.907   0.985  0.0104 -0.0799  0.6815
10717TIP3    H153566   2.821   1.858   1.065 -1.5900 -1.1707 -0.3487
10717TIP3    H253567   2.758   1.947   0.960  0.3184 -0.3441 -0.8127
10718TIP3   OH253568   4.978   0.653  13.826 -0.0970 -0.0159 -0.0307
10718TIP3    H153569   4.965   0.747  13.816  0.4252  0.1234  0.5367
10718TIP3    H253570   4.999   0.622  13.738  1.5229  0.7045  0.0833
10719TIP3   OH253571   6.075   4.064  12.590 -0.4738  0.0600  0.3085
10719TIP3    H153572   6.022   4.062  12.511  0.1451  0.9749 -0.1395
10719TIP3    H253573   6.054   3.982  12.636 -0.9639 -0.3832 -0.7050
10720TIP3   OH253574   0.461   6.257  13.078  0.6682  0.6935 -0.0227
10720TIP3    H153575   0.452   6.221  12.989 -0.7710  0.6880  0.1055
10720TIP3    H253576   0.496   6.345  13.064  1.0874  0.4510 -0.5459
10721TIP3   OH253577   2.609   5.585   3.078 -0.4928  0.4210  0.2540
10721TIP3    H153578   2.614   5.654   3.012  0.0832 -0.5884 -0.7633
10721TIP3    H253579   2.694   5.542   3.075 -1.9319 -2.4835 -1.4780
10722TIP3   OH253580   5.146   4.412  11.528  0.6739  0.0269  0.4151
10722TIP3    H153581   5.076   4.363  11.486  1.6273 -1.2436  0.2718
10722TIP3    H253582   5.198   4.346  11.575  0.9916  1.1132  1.6486
10723TIP3   OH253583   4.524   5.390   1.179 -0.3841 -0.0820 -0.1237
10723TIP3    H153584   4.544   5.476   1.216 -0.9758  0.7370 -1.6346
10723TIP3    H253585   4.453   5.356   1.233 -0.8817  0.8587 -0.1747
10724TIP3   OH253586   3.061   4.305  11.730  0.1888 -1.0777  0.3660
10724TIP3    H153587   3.150   4.334  11.710 -0.1497  1.2465  2.0590
10724TIP3    H253588   3.071   4.247  11.805  0.1025  0.9156  1.9661
10725TIP3   OH253589   2.105   0.831   4.009  0.0709 -0.1798 -0.3745
10725TIP3    H153590   2.114   0.918   3.970 -0.5773  0.2207  0.3652
10725TIP3    H253591   2.012   0.822   4.025  0.4771  0.2302  2.3670
10726TIP3   OH253592   2.872   5.663   1.853 -0.2850  0.0656 -0.0026
10726TIP3    H153593   2.792   5.714   1.844  0.3988  1.0637 -0.6476
10726TIP3    H253594   2.845   5.572   1.842 -1.2108  0.4473 -0.9783
10727TIP3   OH253595   3.853   0.011  15.878 -0.1352 -0.9042  0.1679
10727TIP3    H153596   3.789   0.066  15.922 -1.1168 -2.0342  0.1930
10727TIP3    H253597   3.816  -0.003  15.790  0.0973 -1.5098  0.1608
10728TIP3   OH253598   4.466   5.948   3.004  0.1392 -0.2505  0.4771
10728TIP3    H153599   4.458   5.896   3.084  1.5432 -0.5300  0.4542
10728TIP3    H253600   4.482   5.883   2.935  0.3859  0.0961  0.2033
10729TIP3   OH253601   1.016   6.466  11.691 -0.9875 -0.0794  0.3636
10729TIP3    H153602   0.962   6.529  11.643 -1.0967 -1.7830 -1.8389
10729TIP3    H253603   1.088   6.445  11.631 -0.6552 -1.6212  1.2597
10730TIP3   OH253604   2.113   0.408  12.416  0.0390  0.4909  0.0014
10730TIP3    H153605   2.111   0.377  12.506  0.3044  0.5490  0.0283
10730TIP3    H253606   2.176   0.350  12.372  1.2707  1.5783  0.2832
10731TIP3   OH253607   3.129   5.952  13.917  0.4922 -0.3559 -0.3699
10731TIP3    H153608   3.118   5.871  13.965  1.3266 -0.8168 -0.9463
10731TIP3    H253609   3.153   5.925  13.828 -0.7380  0.4835 -0.9844
10732TIP3   OH253610   2.673   4.217   3.644  0.1947  0.3783  0.0970
10732TIP3    H153611   2.681   4.141   3.702  0.3674 -0.1582 -0.6226
10732TIP3    H253612   2.631   4.182   3.565  1.0341  0.8533 -0.5698
10733TIP3   OH253613   5.123   5.193  12.887  0.1036 -0.3934  0.0675
10733TIP3    H153614   5.037   5.215  12.923  0.1214 -1.1959  0.5966
10733TIP3    H253615   5.174   5.274  12.897 -0.9704  0.4846 -1.4247
10734TIP3   OH253616   6.509   2.157   4.707  0.3424  0.2703  0.0308
10734TIP3    H153617   6.570   2.227   4.685  0.5676  0.1874  0.3719
10734TIP3    H253618   6.559   2.101   4.768 -0.6113  1.1068  1.6207
10735TIP3   OH253619   1.086   0.218  16.290 -0.5073  0.2553 -0.2289
10735TIP3    H153620   1.093   0.225  16.195 -0.7345  0.3612 -0.2375
10735TIP3    H253621   0.992   0.221  16.308 -0.5600 -1.6314 -0.1364
10736TIP3   OH253622   0.257   1.694   5.602 -0.1570  0.4774 -0.4025
10736TIP3    H153623   0.251   1.689   5.507  1.8571 -0.6451 -0.5076
10736TIP3    H253624   0.279   1.605   5.629  1.0762  1.1600  0.9434
10737TIP3   OH253625   0.427   6.627   3.191  0.0191  0.1911 -0.3316
10737TIP3    H153626   0.407   6.613   3.099 -0.7767 -2.5273  0.2235
10737TIP3    H253627   0.508   6.679   3.190 -0.6771  1.3091 -2.5354
10738TIP3   OH253628   0.924   6.089   3.736  0.1120 -0.2559 -0.5025
10738TIP3    H153629   0.911   6.003   3.696  2.1635 -1.0590  0.4898
10738TIP3    H253630   0.861   6.146   3.692 -0.4490 -2.0003 -2.0075
10739TIP3   OH253631   1.110   5.374   4.473  0.2651 -0.0427 -0.1056
10739TIP3    H153632   1.071   5.462   4.471  1.7843  0.6304 -0.9367
10739TIP3    H253633   1.103   5.348   4.565  0.7721  1.4053  0.3556
10740TIP3   OH253634   3.820   1.100  14.750 -0.2667  0.3416 -0.4486
10740TIP3    H153635   3.900   1.092  14.803 -0.5263 -0.3408 -0.1507
10740TIP3    H253636   3.851   1.133  14.666  0.2470  0.7185 -0.1170
10741TIP3   OH253637   4.313   6.059  13.779  0.7494 -0.1051 -0.3283
10741TIP3    H153638   4.266   6.126  13.729  1.3248 -0.7115 -1.7151
10741TIP3    H253639   4.315   5.983  13.720  1.0327 -0.9815  0.8117
10742TIP3   OH253640   3.752   1.274   5.243 -0.1833  0.5128  0.0890
10742TIP3    H153641   3.687   1.204   5.246 -0.4705  0.6714 -1.7993
10742TIP3    H253642   3.830   1.235   5.283 -0.5277 -0.6967 -0.3773
10743TIP3   OH253643   5.002   5.462  13.799 -0.2773  0.4219  0.2204
10743TIP3    H153644   5.013   5.372  13.828  1.7038  0.6594  0.2571
10743TIP3    H253645   5.076   5.509  13.837  0.1269  1.5425 -1.8538
10744TIP3   OH253646   6.718   1.848   2.383 -0.3014  0.1082  0.1091
10744TIP3    H153647   6.663   1.791   2.437  0.4386 -0.5246  0.1925
10744TIP3    H253648   6.760   1.789   2.321  2.6827  0.1392  2.0029
10745TIP3   OH253649   1.077   3.761  12.247 -0.0980 -0.1331  0.2370
10745TIP3    H153650   1.044   3.832  12.302 -1.8310 -1.5965  1.1357
10745TIP3    H253651   1.172   3.764  12.259 -0.1469  1.8624  0.4374
10746TIP3   OH253652   6.318   1.861  16.789 -0.5762  0.0765 -0.4615
10746TIP3    H153653   6.406   1.859  16.752  0.4531 -1.5674  1.9838
10746TIP3    H253654   6.309   1.950  16.824 -0.6097  0.8279 -2.2982
10747TIP3   OH253655   2.999   3.540  11.178  0.2387  0.2946  0.0885
10747TIP3    H153656   3.035   3.565  11.093  2.8287  1.4987  1.4865
10747TIP3    H253657   3.047   3.460  11.201 -2.2312 -1.4510 -0.6734
10748TIP3   OH253658   6.099   5.266   0.946  0.4403  0.3490  0.6901
10748TIP3    H153659   6.192   5.255   0.969  0.3905 -0.1080  0.6705
10748TIP3    H253660   6.053   5.267   1.030  0.5296  1.2386  0.7365
10749TIP3   OH253661   5.135   4.077  16.838 -0.2347 -0.5624  0.1054
10749TIP3    H153662   5.054   4.047  16.796 -0.1852  1.2300 -1.3069
10749TIP3    H253663   5.111   4.090  16.930 -2.0823  1.7813 -0.6594
10750TIP3   OH253664   4.053   5.306  12.151  0.0255 -0.5397  0.0840
10750TIP3    H153665   4.072   5.382  12.205 -3.8954 -0.0642  0.9050
10750TIP3    H253666   4.035   5.342  12.064  0.1084 -0.7044 -0.0025
10751TIP3   OH253667   0.799   2.059   5.081 -0.0162  0.6441  0.6338
10751TIP3    H153668   0.709   2.034   5.058  0.0759 -0.1044  1.0578
10751TIP3    H253669   0.812   2.145   5.040 -0.8552  0.6621  0.4026
10752TIP3   OH253670   0.176   1.638   0.755 -0.2453 -0.0464 -0.1440
10752TIP3    H153671   0.156   1.649   0.848 -1.1928 -1.6245 -0.1565
10752TIP3    H253672   0.235   1.563   0.752  0.8090  0.7841 -0.7144
10753TIP3   OH253673   3.497   2.526   4.467 -0.3274 -0.1321 -0.2764
10753TIP3    H153674   3.543   2.465   4.526 -0.5004 -0.6007 -0.6188
10753TIP3    H253675   3.546   2.608   4.474 -2.0430  0.7144  2.7426
10754TIP3   OH253676   3.041   0.947   3.318  0.0900 -0.6363 -0.1369
10754TIP3    H153677   3.109   0.934   3.252 -2.2383 -1.4405 -2.4573
10754TIP3    H253678   3.037   0.864   3.366  1.1905 -0.3393  0.5058
10755TIP3   OH253679   4.036   6.102  12.234 -0.0793 -0.1949  0.9045
10755TIP3    H153680   4.114   6.141  12.194  0.0023  1.1131  2.2799
10755TIP3    H253681   3.975   6.091  12.161  0.9654 -0.1510  0.0092
10756TIP3   OH253682   1.186   1.915   3.850  0.1310 -0.4647 -0.4478
10756TIP3    H153683   1.256   1.957   3.800  0.3146 -0.2628 -0.0138
10756TIP3    H253684   1.148   1.852   3.788 -0.3977  0.6031 -1.2369
10757TIP3   OH253685   0.804   5.668  11.952  0.3699 -0.1184 -0.0582
10757TIP3    H153686   0.718   5.698  11.981  0.3446 -0.5078  0.2712
10757TIP3    H253687   0.846   5.746  11.915  1.0325  0.7569  2.4731
10758TIP3   OH253688   1.743   0.229  11.104 -0.2670  0.5487 -0.4977
10758TIP3    H153689   1.683   0.302  11.088 -2.0319 -0.7001  0.2964
10758TIP3    H253690   1.704   0.156  11.057  0.3957 -0.4064  0.4202
10759TIP3   OH253691   1.299   1.871   4.110 -0.0979 -0.3240 -0.0807
10759TIP3    H153692   1.222   1.898   4.160 -0.1603 -1.2156  0.3313
10759TIP3    H253693   1.275   1.885   4.019 -0.6000 -0.2094  0.0671
10760TIP3   OH253694   3.492   4.975  12.047 -0.3669  0.2640  0.4180
10760TIP3    H153695   3.500   4.932  12.133 -1.5556  1.9540  1.3880
10760TIP3    H253696   3.398   4.989  12.036 -0.0693  1.6164 -0.4067
10761TIP3   OH253697   4.492   6.537   2.693  0.2834 -0.7140 -0.2151
10761TIP3    H153698   4.422   6.494   2.742 -0.4133  0.9234  0.2611
10761TIP3    H253699   4.547   6.465   2.661 -1.1704 -1.9690  0.0733
10762TIP3   OH253700   2.818   1.507  17.140  0.0278  0.4218  0.1278
10762TIP3    H153701   2.878   1.447  17.184  1.3897  0.1608 -1.9800
10762TIP3    H253702   2.864   1.591  17.141 -0.0203  0.4630 -0.5520
10763TIP3   OH253703   1.076   6.428  13.833 -0.0800  0.4226 -0.1222
10763TIP3    H153704   1.147   6.486  13.860 -0.6612  0.3930  1.5242
10763TIP3    H253705   1.072   6.362  13.902 -1.0933 -0.1047 -0.6816
10764TIP3   OH253706   1.333   2.386   5.674  0.8862  0.1547 -0.0942
10764TIP3    H153707   1.388   2.411   5.600  0.3844 -0.9011 -0.8205
10764TIP3    H253708   1.342   2.291   5.680  2.3986  0.3920  2.3511
10765TIP3   OH253709   5.814   1.029  10.719 -0.1643  0.6789 -0.0528
10765TIP3    H153710   5.823   0.967  10.648  1.4829 -0.5610  1.1957
10765TIP3    H253711   5.903   1.060  10.736 -0.6067  1.4102  1.0646
10766TIP3   OH253712   3.460   6.264   0.859 -0.6826 -0.0809  0.4908
10766TIP3    H153713   3.512   6.288   0.935  0.2591 -0.0216 -0.1571
10766TIP3    H253714   3.370   6.267   0.889 -0.5586  3.0832  0.7743
10767TIP3   OH253715   6.546   6.075  11.267  0.2200  0.7862 -0.0158
10767TIP3    H153716   6.547   5.993  11.219  0.2854  0.3684  0.7037
10767TIP3    H253717   6.555   6.142  11.199 -0.7030  0.2430 -0.6791
10768TIP3   OH253718   1.515   3.777  12.061  0.1620  0.4058  0.3653
10768TIP3    H153719   1.552   3.862  12.037  1.8505 -0.6881 -1.0268
10768TIP3    H253720   1.443   3.764  11.998  0.5854  0.3296 -0.1045
10769TIP3   OH253721   5.531   6.290  10.842 -0.3286  0.5744  0.7567
10769TIP3    H153722   5.547   6.377  10.804  0.9940 -0.5192 -1.3073
10769TIP3    H253723   5.445   6.265  10.811  0.9417 -0.5195 -2.0775
10770TIP3   OH253724   3.289   1.319  15.379  0.0226  0.0704  0.1846
10770TIP3    H153725   3.369   1.284  15.341 -0.8966  0.0442 -1.7680
10770TIP3    H253726   3.219   1.292  15.319 -1.4061  0.5055  1.5912
10771TIP3   OH253727   2.180   6.131   2.305 -0.1489  0.3071 -0.3140
10771TIP3    H153728   2.120   6.059   2.289 -0.7274  0.6394  0.3469
10771TIP3    H253729   2.133   6.209   2.275 -0.7231  0.7701  1.7194
10772TIP3   OH253730   5.333   5.563   1.649  0.1781  0.2741  0.2655
10772TIP3    H153731   5.252   5.526   1.683  0.2085  0.5684  0.6684
10772TIP3    H253732   5.400   5.498   1.670  0.7392  1.8160  3.6294
10773TIP3   OH253733   1.102   0.794  11.808  0.3361  0.2363 -0.4565
10773TIP3    H153734   1.021   0.844  11.797  0.4362 -0.0488 -2.6441
10773TIP3    H253735   1.148   0.803  11.725  1.0094 -2.3383 -0.4200
10774TIP3   OH253736   4.621   1.272  15.514 -0.1910 -0.0933 -0.0178
10774TIP3    H153737   4.644   1.267  15.606 -1.4444  0.5993  0.3351
10774TIP3    H253738   4.651   1.358  15.486  0.5523 -0.4614 -0.3589
10775TIP3   OH253739   6.602   0.495  14.356  0.3136 -0.2871  0.4855
10775TIP3    H153740   6.577   0.408  14.386  0.0594 -0.2296  0.4369
10775TIP3    H253741   6.662   0.479  14.283  0.3040 -0.4206  0.5068
10776TIP3   OH253742   5.579   3.295  16.402 -0.1029  0.4037  0.3475
10776TIP3    H153743   5.539   3.215  16.437 -0.7116  0.1724 -0.8539
10776TIP3    H253744   5.610   3.342  16.479  2.2129 -2.0099  0.9815
10777TIP3   OH253745   6.197   6.397   4.832 -0.1636 -0.3787  0.5806
10777TIP3    H153746   6.101   6.404   4.827 -0.2390 -0.0538  2.1617
10777TIP3    H253747   6.224   6.473   4.883  1.0221 -0.0766 -0.4778
10778TIP3   OH253748   3.425   2.762  13.388  0.2062 -0.8226 -0.4734
10778TIP3    H153749   3.415   2.799  13.300 -1.1903 -0.7438 -0.3029
10778TIP3    H253750   3.371   2.818  13.444  0.4756 -1.3271  0.2997
10779TIP3   OH253751   6.303   6.489   4.592 -0.5680 -0.5451 -0.0106
10779TIP3    H153752   6.256   6.433   4.529 -0.0449 -0.9424 -0.0495
10779TIP3    H253753   6.290   6.446   4.676  0.3053 -1.0349 -0.1207
10780TIP3   OH253754   2.162   1.831  16.063 -0.0315  0.7918  0.0110
10780TIP3    H153755   2.155   1.888  16.139  1.2203  0.8558  0.0972
10780TIP3    H253756   2.077   1.788  16.056 -0.6657  1.9364  0.5283
10781TIP3   OH253757   3.387   1.262   2.040  0.5161  0.0618 -0.1316
10781TIP3    H153758   3.375   1.200   1.968 -1.2232  1.6065 -1.2067
10781TIP3    H253759   3.362   1.213   2.118 -1.1748 -0.4825 -1.0095
10782TIP3   OH253760   3.393   1.927  14.773 -0.7914  0.3790 -0.3833
10782TIP3    H153761   3.429   1.909  14.686 -1.6989  2.3572 -1.2043
10782TIP3    H253762   3.439   1.866  14.831  0.7883 -0.0699 -2.0469
10783TIP3   OH253763   4.102   0.386  11.646  0.1978  0.1924 -0.2273
10783TIP3    H153764   4.195   0.393  11.666  0.5783 -1.0057 -1.4914
10783TIP3    H253765   4.081   0.467  11.600  0.1374  1.3476  1.7855
10784TIP3   OH253766   6.727   2.411  14.834  0.3846  0.5041  0.0112
10784TIP3    H153767   6.756   2.336  14.886  0.7093  0.2913 -0.4782
10784TIP3    H253768   6.790   2.480  14.856  0.1768  0.5925  0.3445
10785TIP3   OH253769   2.630   2.536  11.319 -0.0265 -0.8080  0.2149
10785TIP3    H153770   2.611   2.511  11.410  0.3452 -0.5009  0.3770
10785TIP3    H253771   2.551   2.583  11.291  0.9398  1.5190  1.2842
10786TIP3   OH253772   1.861   1.349   1.304 -0.7790 -0.2998  0.2019
10786TIP3    H153773   1.931   1.284   1.304  0.0168  0.5430  0.7943
10786TIP3    H253774   1.883   1.408   1.376 -2.4288 -0.3702  0.7919
10787TIP3   OH253775   6.559   3.548   2.371  0.2411 -0.1216 -0.1354
10787TIP3    H153776   6.540   3.642   2.365  0.9675  0.0483  0.1736
10787TIP3    H253777   6.578   3.521   2.281  0.6695  0.1707 -0.1364
10788TIP3   OH253778   2.766   5.188  14.432  0.1307 -0.5849  0.4859
10788TIP3    H153779   2.705   5.124  14.468  0.8030 -1.1409  0.6562
10788TIP3    H253780   2.810   5.225  14.509 -2.1436  2.0385  0.5790
10789TIP3   OH253781   2.903   6.452  12.802  0.2156  0.5755 -0.0712
10789TIP3    H153782   2.984   6.491  12.768 -0.2232  0.6123 -1.0994
10789TIP3    H253783   2.914   6.358  12.787  0.6554  0.4343  1.0774
10790TIP3   OH253784   0.329   4.923   0.990  0.0184 -0.4575  0.9667
10790TIP3    H153785   0.286   4.844   0.958  0.0932 -1.2548  2.7386
10790TIP3    H253786   0.279   4.995   0.952 -0.5698 -1.3638 -0.0030
10791TIP3   OH253787   5.352   0.618   0.321 -0.1063  0.4494 -0.0186
10791TIP3    H153788   5.401   0.694   0.291 -0.7628  1.8877  2.4502
10791TIP3    H253789   5.273   0.654   0.362 -1.2898 -1.6384 -0.3819
10792TIP3   OH253790   4.335   5.797   5.186 -0.1015 -0.0355 -0.4405
10792TIP3    H153791   4.277   5.775   5.259  1.7050 -0.2269  1.0114
10792TIP3    H253792   4.317   5.732   5.119  0.2812 -1.7283  1.0480
10793TIP3   OH253793   4.363   4.970  13.586  0.4689 -0.3566  0.4779
10793TIP3    H153794   4.401   4.913  13.652 -0.2966 -2.9920 -1.2589
10793TIP3    H253795   4.295   4.916  13.545  0.4369  1.4485 -1.9303
10794TIP3   OH253796   0.758   5.192  15.787  0.6845 -0.2581  0.2731
10794TIP3    H153797   0.822   5.204  15.858 -1.2800  0.0600  2.0587
10794TIP3    H253798   0.723   5.279  15.771  0.9022 -0.3809 -0.8910
10795TIP3   OH253799   5.612   6.231  16.468 -0.0378  0.1474 -0.1469
10795TIP3    H153800   5.523   6.217  16.501 -1.1966  3.3635 -1.6907
10795TIP3    H253801   5.614   6.323  16.443  3.6533  0.0390 -0.4955
10796TIP3   OH253802   3.672   2.810  11.627  0.5431  0.0108  1.1180
10796TIP3    H153803   3.582   2.795  11.657 -0.2253 -0.1665 -1.1732
10796TIP3    H253804   3.720   2.733  11.656 -0.3694 -0.5911  1.0655
10797TIP3   OH253805   0.904   0.346   2.973 -0.2611  0.1318  0.3966
10797TIP3    H153806   0.899   0.374   3.065 -1.3181 -1.5362  0.8814
10797TIP3    H253807   0.903   0.250   2.978  0.1611  0.0299 -1.3426
10798TIP3   OH253808   5.102   0.206  13.701  0.3938  0.3607  0.4146
10798TIP3    H153809   5.152   0.284  13.724  3.1107 -0.2301 -3.1002
10798TIP3    H253810   5.132   0.139  13.763  0.1427  1.3387  1.6148
10799TIP3   OH253811   6.224   0.486   3.577  0.2599 -0.1904  0.3367
10799TIP3    H153812   6.241   0.506   3.669 -0.4749 -1.1003  0.6819
10799TIP3    H253813   6.141   0.438   3.578  0.8753 -1.3189 -0.6593
10800TIP3   OH253814   0.550   0.091  12.674  0.2391 -0.6326 -0.3057
10800TIP3    H153815   0.558  -0.002  12.654 -1.4665 -0.9488  0.4565
10800TIP3    H253816   0.562   0.135  12.590  0.4227 -1.5659 -0.7670
10801TIP3   OH253817   3.785   0.632  12.976 -0.2913  0.0103  0.0922
10801TIP3    H153818   3.833   0.683  13.041  0.5316 -0.4524 -0.1377
10801TIP3    H253819   3.764   0.550  13.021  0.5951 -0.4571 -0.3229
10802TIP3   OH253820   4.640   3.877  12.092 -1.0158  0.3667 -1.0405
10802TIP3    H153821   4.561   3.863  12.144 -1.9452  1.0357 -2.2367
10802TIP3    H253822   4.642   3.802  12.032  0.3867 -0.7342  0.3260
10803TIP3   OH253823   6.497   1.502  12.094  0.0541  0.3745 -0.5944
10803TIP3    H153824   6.422   1.561  12.094 -0.1071  0.1753  0.0586
10803TIP3    H253825   6.488   1.452  12.013  0.2730  1.3360 -1.2246
10804TIP3   OH253826   5.728   2.507  11.621  0.0881  0.0712 -0.4962
10804TIP3    H153827   5.733   2.580  11.682 -0.6915 -0.6291  0.4200
10804TIP3    H253828   5.798   2.524  11.558 -0.0374  1.5622 -0.2607
10805TIP3   OH253829   5.505   1.382   3.158  0.8312  0.2419  0.5961
10805TIP3    H153830   5.443   1.367   3.087 -0.0854  1.6433  1.0844
10805TIP3    H253831   5.580   1.326   3.136 -0.4133 -1.1433 -0.2065
10806TIP3   OH253832   5.111   6.275   1.456  0.7744  0.1518  0.2779
10806TIP3    H153833   5.030   6.230   1.480  0.3980  1.8324  2.3715
10806TIP3    H253834   5.148   6.223   1.386 -2.0649 -0.7337 -0.6277
10807TIP3   OH253835   5.682   4.557  12.407 -0.5537 -0.7788  0.6941
10807TIP3    H153836   5.632   4.633  12.380 -0.5331 -0.5719  1.2386
10807TIP3    H253837   5.774   4.581  12.391 -0.5908 -0.9995  0.0990
10808TIP3   OH253838   6.771   5.816  14.225 -0.4189  0.1563  0.1887
10808TIP3    H153839   6.739   5.876  14.292  1.0800 -0.7641  1.7702
10808TIP3    H253840   6.776   5.870  14.146 -0.5369  1.7389  1.2336
10809TIP3   OH253841   2.964   2.303  12.434  0.0038  0.4442  0.6960
10809TIP3    H153842   3.012   2.270  12.358 -0.9889  0.3630  0.0941
10809TIP3    H253843   2.952   2.396  12.416  0.4035  0.5744  1.1018
10810TIP3   OH253844   2.868   4.731   4.395 -0.4831  0.1814  0.3792
10810TIP3    H153845   2.960   4.717   4.416 -0.1417  1.1174 -0.4704
10810TIP3    H253846   2.855   4.825   4.408 -0.9600  0.2975 -0.9125
10811TIP3   OH253847   2.537   2.224  11.323 -0.3676  0.8017 -0.1315
10811TIP3    H153848   2.476   2.294  11.347 -1.1226  0.0094  0.3370
10811TIP3    H253849   2.493   2.179  11.251  0.3971  1.1920 -0.8367
10812TIP3   OH253850   3.858   0.883  15.137 -0.1150  0.2756 -0.2113
10812TIP3    H153851   3.922   0.848  15.076  0.5048  1.3190 -0.1752
10812TIP3    H253852   3.881   0.843  15.221 -0.7573 -0.8939 -0.5900
10813TIP3   OH253853   2.268   1.149   2.507 -0.5351 -0.5506 -1.3873
10813TIP3    H153854   2.225   1.150   2.593  1.2677 -0.3469 -0.4577
10813TIP3    H253855   2.338   1.084   2.517  1.5607  1.6117 -1.7436
10814TIP3   OH253856   1.943   1.560  15.255 -0.4572  0.0478  0.6138
10814TIP3    H153857   1.993   1.642  15.249 -3.1137  1.7267  0.3464
10814TIP3    H253858   1.986   1.501  15.194  1.0230  1.5333  0.1783
10815TIP3   OH253859   6.447   4.041   1.842 -0.3816 -0.7977  0.1392
10815TIP3    H153860   6.384   3.971   1.853  0.0749 -1.2240  0.0551
10815TIP3    H253861   6.514   4.004   1.784 -0.5188 -0.0550 -0.5098
10816TIP3   OH253862   2.989   5.766   4.550 -0.1296 -0.4197 -0.1095
10816TIP3    H153863   2.954   5.853   4.529 -0.7913 -1.1123 -1.9834
10816TIP3    H253864   3.071   5.784   4.596 -2.0143  1.2081  2.7770
10817TIP3   OH253865   0.095   5.982  15.715  0.1736  0.0358  0.3065
10817TIP3    H153866   0.002   5.974  15.737  0.4825 -2.5137  0.8172
10817TIP3    H253867   0.141   5.953  15.793  1.4269  1.4748  0.1289
10818TIP3   OH253868   2.382   3.559   4.633 -0.0495 -0.4578 -0.3544
10818TIP3    H153869   2.405   3.651   4.646  0.5069 -0.7529  0.8692
10818TIP3    H253870   2.286   3.558   4.629 -0.0933  0.1009  0.3463
10819TIP3   OH253871   2.127   3.457   0.446  0.1717  0.7330  0.0871
10819TIP3    H153872   2.105   3.471   0.538  0.1382 -0.7490  0.3152
10819TIP3    H253873   2.059   3.398   0.413  0.2186  1.2013 -0.8652
10820TIP3   OH253874   1.698   1.344   3.798  0.4729  0.3116  0.5074
10820TIP3    H153875   1.719   1.372   3.709 -0.3222 -1.0480 -0.1259
10820TIP3    H253876   1.613   1.385   3.817 -0.0964 -0.6208  0.0434
10821TIP3   OH253877   5.690   0.743   1.750  0.0760  0.1901  0.6045
10821TIP3    H153878   5.611   0.732   1.803 -0.1488  0.1156  0.2549
10821TIP3    H253879   5.699   0.838   1.741 -0.1281  0.1904  0.4110
10822TIP3   OH253880   1.842   1.068  15.442 -0.0960 -0.6556 -0.0394
10822TIP3    H153881   1.822   0.981  15.478 -1.5643 -0.6709 -0.8385
10822TIP3    H253882   1.757   1.107  15.426  0.5659  0.9540  0.3252
10823TIP3   OH253883   1.601   3.028  16.806 -0.2031  0.3012 -0.7715
10823TIP3    H153884   1.672   3.085  16.778 -0.9218  0.2951 -2.6394
10823TIP3    H253885   1.544   3.085  16.858  0.1870  0.7460 -0.8283
10824TIP3   OH253886   6.391   4.244  11.412 -0.4927  0.2114 -0.2020
10824TIP3    H153887   6.368   4.237  11.505  1.7993 -0.3339  0.3664
10824TIP3    H253888   6.390   4.155  11.379  2.1255 -0.0364  0.2268
10825TIP3   OH253889   1.382   6.423   2.283  0.3115 -0.0503  0.0028
10825TIP3    H153890   1.408   6.351   2.225  1.1036  0.3453 -0.1380
10825TIP3    H253891   1.331   6.481   2.226  0.0719 -0.2639 -0.0010
10826TIP3   OH253892   6.367   5.236  14.456 -0.5664  0.1287 -0.4817
10826TIP3    H153893   6.305   5.173  14.420 -0.1030  0.1181 -1.2828
10826TIP3    H253894   6.394   5.288  14.381  0.8580 -0.2674 -0.2719
10827TIP3   OH253895   3.015   4.501  13.245 -0.7660  0.8819 -0.1056
10827TIP3    H153896   3.043   4.449  13.321 -0.1485 -0.6635 -1.3754
10827TIP3    H253897   3.091   4.553  13.222 -0.3054 -0.1106 -0.8680
10828TIP3   OH253898   1.260   0.537  11.572  0.2702 -0.1428 -0.4646
10828TIP3    H153899   1.323   0.475  11.608 -1.6257 -1.4624  0.7031
10828TIP3    H253900   1.258   0.518  11.478 -0.7936 -2.3881 -0.0269
10829TIP3   OH253901   3.587   2.129  12.220  0.4333  0.0478  0.2865
10829TIP3    H153902   3.648   2.055  12.226 -0.4374 -0.8161 -1.4402
10829TIP3    H253903   3.502   2.090  12.204 -0.4592  1.3153  1.7011
10830TIP3   OH253904   4.475   4.893   1.366  0.3414  0.4922  0.0722
10830TIP3    H153905   4.483   4.985   1.341  1.9243  0.4637  0.4145
10830TIP3    H253906   4.398   4.890   1.423 -0.4264  1.3837 -0.8875
10831TIP3   OH253907   2.470   1.152   0.492 -0.4399 -0.1418  0.5056
10831TIP3    H153908   2.508   1.122   0.409 -0.9499  0.3227  0.0994
10831TIP3    H253909   2.407   1.219   0.466 -1.3200 -0.6984  1.2000
10832TIP3   OH253910   6.517   4.739   0.498 -0.0243 -0.2380  0.3031
10832TIP3    H153911   6.519   4.829   0.529  1.8015 -0.4496  0.8689
10832TIP3    H253912   6.601   4.728   0.452  0.6449 -2.2338  1.9448
10833TIP3   OH253913   6.029   0.856   4.481  0.3878 -0.5250 -0.6759
10833TIP3    H153914   5.963   0.900   4.535 -0.3691  0.5236 -2.4137
10833TIP3    H253915   6.089   0.817   4.544 -0.5062  0.6198  0.9249
10834TIP3   OH253916   4.922   5.474   5.584  0.3550  0.2658 -0.3519
10834TIP3    H153917   4.856   5.527   5.539  0.2308  1.5423  1.2783
10834TIP3    H253918   4.888   5.465   5.673  2.8431  1.7949  0.8151
10835TIP3   OH253919   1.035   0.512  14.915  0.3066  0.4057  0.0697
10835TIP3    H153920   1.080   0.544  14.837  1.7159 -2.6237 -0.4451
10835TIP3    H253921   1.071   0.564  14.987  1.4869  0.9290 -0.8849
10836TIP3   OH253922   2.539   0.065   1.634  0.4987  0.5153  0.0375
10836TIP3    H153923   2.592   0.001   1.682  0.5871  0.9094  0.4695
10836TIP3    H253924   2.469   0.088   1.696 -0.5196 -0.4487 -0.7424
10837TIP3   OH253925   1.223   4.384  11.763  0.4235 -0.6865  0.0156
10837TIP3    H153926   1.204   4.457  11.703 -0.8027 -1.8610 -1.0755
10837TIP3    H253927   1.313   4.358  11.741 -0.5860 -2.2008 -2.5610
10838TIP3   OH253928   2.278   5.086   0.570 -0.4148 -0.1498 -0.8361
10838TIP3    H153929   2.220   5.071   0.645  0.9074  2.2713  0.7378
10838TIP3    H253930   2.361   5.114   0.609  0.7076 -0.1152 -3.1729
10839TIP3   OH253931   5.604   3.910  17.104  0.1417  0.0134  0.3327
10839TIP3    H153932   5.691   3.930  17.068  0.5376  0.7299  1.6537
10839TIP3    H253933   5.543   3.951  17.042  0.7645  0.1494 -0.2016
10840TIP3   OH253934   5.263   6.616   3.538  0.0046 -0.3511  0.4329
10840TIP3    H153935   5.309   6.543   3.496  0.7226 -0.0526  0.6966
10840TIP3    H253936   5.281   6.606   3.631  0.2701  0.2771  0.4524
10841TIP3   OH253937   5.657   1.833  16.116  0.1546 -0.0707 -0.3960
10841TIP3    H153938   5.619   1.746  16.125 -0.6054  0.2977 -0.0287
10841TIP3    H253939   5.738   1.829  16.167  1.4131 -1.3274 -2.4471
10842TIP3   OH253940   1.615   1.178   3.421  0.2314 -0.0862  0.4302
10842TIP3    H153941   1.588   1.268   3.443 -0.9842 -0.3151 -0.0511
10842TIP3    H253942   1.634   1.138   3.505 -1.6980 -0.1198  0.8813
10843TIP3   OH253943   2.012   5.151   5.830  0.2172 -0.0230  0.3672
10843TIP3    H153944   1.932   5.127   5.877  0.2432 -2.0435 -0.5367
10843TIP3    H253945   2.082   5.103   5.875  0.9475  1.7715  1.1857
10844TIP3   OH253946   6.563   0.069  14.354  0.3369  0.8916  0.4574
10844TIP3    H153947   6.651   0.035  14.364 -0.1817 -0.1400  1.7312
10844TIP3    H253948   6.507  -0.009  14.348 -0.3743  1.5225 -1.4677
10845TIP3   OH253949   5.899   3.367  16.367 -0.1773  0.1531  0.7385
10845TIP3    H153950   5.897   3.463  16.361 -0.5813  0.0902 -0.2392
10845TIP3    H253951   5.867   3.348  16.455 -0.1404  0.9154  0.9218
10846TIP3   OH253952   0.676   1.562  15.011  0.4831  0.0191 -0.1145
10846TIP3    H153953   0.729   1.620  14.956 -2.0150  0.1609 -2.4317
10846TIP3    H253954   0.737   1.494  15.040  2.0431  0.4349 -2.3290
10847TIP3   OH253955   1.969   3.000   2.238  0.1093  0.2566 -0.1018
10847TIP3    H153956   2.010   3.052   2.168  0.3562  3.2326  2.1419
10847TIP3    H253957   2.005   2.913   2.228  1.1907  0.9679 -2.8332
10848TIP3   OH253958   3.777   1.405   1.697 -0.1548  0.2686  0.8602
10848TIP3    H153959   3.708   1.449   1.647  0.8409 -0.8362 -1.5870
10848TIP3    H253960   3.730   1.343   1.752 -1.1221 -0.8222 -1.1314
10849TIP3   OH253961   3.684   1.016   3.345  0.2296  0.0591  0.2394
10849TIP3    H153962   3.655   1.044   3.431  1.2467  0.1814  0.5410
10849TIP3    H253963   3.603   0.990   3.300 -0.4377  1.1182  0.8066
10850TIP3   OH253964   4.522   4.615   1.887 -0.0446  0.1916 -0.0159
10850TIP3    H153965   4.441   4.565   1.881 -1.1435  1.7091  1.7894
10850TIP3    H253966   4.533   4.632   1.981  2.1044  0.4340 -0.2808
10851TIP3   OH253967   1.271   5.315  16.125 -0.1801 -0.0851  0.8671
10851TIP3    H153968   1.283   5.380  16.194 -0.7599  2.1963 -1.1352
10851TIP3    H253969   1.360   5.296  16.095 -0.0975  0.9352  0.4396
10852TIP3   OH253970   1.312   1.974  13.114 -0.2058 -0.0305  0.5668
10852TIP3    H153971   1.221   1.954  13.137  0.0951 -0.8665  1.0584
10852TIP3    H253972   1.306   2.031  13.038 -1.1231 -2.0629 -0.9447
10853TIP3   OH253973   2.156   1.271  15.616 -0.0094 -0.4133  0.0008
10853TIP3    H153974   2.107   1.341  15.659  0.2231 -0.1589 -0.1462
10853TIP3    H253975   2.247   1.286  15.641  0.2393  0.2505 -1.2840
10854TIP3   OH253976   3.073   6.724  16.981 -0.3222  0.2547 -0.0452
10854TIP3    H153977   3.119   6.766  16.909 -0.2152 -0.4567 -0.3895
10854TIP3    H253978   3.104   6.771  17.059  1.0332 -0.2498 -0.2599
10855TIP3   OH253979   1.977   1.534  13.896 -0.2918  0.0722  0.1709
10855TIP3    H153980   2.031   1.495  13.827  0.8901  2.0564 -0.0658
10855TIP3    H253981   1.889   1.535  13.860 -0.0403 -0.8512 -0.4746
10856TIP3   OH253982   5.735   4.633   2.736 -0.0417  0.1573 -0.1743
10856TIP3    H153983   5.661   4.580   2.708 -0.6120  0.6520  0.3735
10856TIP3    H253984   5.798   4.569   2.770 -0.4120 -0.2281 -0.2037
10857TIP3   OH253985   6.611   0.609   3.347  0.0388 -0.4323  0.1667
10857TIP3    H153986   6.557   0.676   3.391  0.7353 -0.1432  0.5934
10857TIP3    H253987   6.697   0.618   3.388  0.5186 -0.6132 -0.7996
10858TIP3   OH253988   3.404   4.289  14.619  0.5253 -0.4422 -0.1761
10858TIP3    H153989   3.370   4.288  14.709 -1.4919 -1.3022 -0.8973
10858TIP3    H253990   3.484   4.341  14.623 -0.7226  1.3885  1.6969
10859TIP3   OH253991   4.496   2.098  13.323 -0.2838  0.1347 -0.0094
10859TIP3    H153992   4.553   2.028  13.291 -1.4977 -0.8311 -0.1269
10859TIP3    H253993   4.534   2.179  13.289 -0.0321 -0.6545 -1.6338
10860TIP3   OH253994   5.296   4.891   3.928 -0.1796 -0.1571 -0.9779
10860TIP3    H153995   5.284   4.837   4.006  0.1845 -0.1149 -0.8957
10860TIP3    H253996   5.237   4.965   3.942 -0.4392 -0.3654 -0.9433
10861TIP3   OH253997   4.682   2.072  12.114  0.1676 -0.6841 -0.3361
10861TIP3    H153998   4.656   2.008  12.181  1.8772 -1.9797 -0.8767
10861TIP3    H253999   4.731   2.138  12.162 -0.4865 -0.4685  0.0332
10862TIP3   OH254000   6.660   3.716   2.814  0.0152 -0.1978 -0.6078
10862TIP3    H154001   6.725   3.786   2.821  1.1300 -1.0713 -2.0072
10862TIP3    H254002   6.662   3.673   2.900  2.6861 -1.4110 -1.2350
10863TIP3   OH254003   5.465   2.934  13.925  0.0410 -0.1677  0.5370
10863TIP3    H154004   5.480   3.027  13.945 -0.7259 -0.4907  2.7086
10863TIP3    H254005   5.387   2.934  13.870  0.1338  0.4775  0.3916
10864TIP3   OH254006   1.580   4.557   0.242 -0.0349 -0.7819 -0.2864
10864TIP3    H154007   1.556   4.615   0.169 -0.2437 -0.5984 -0.0749
10864TIP3    H254008   1.575   4.469   0.205  0.6388 -0.6409 -0.7051
10865TIP3   OH254009   4.123   6.718  16.449  0.2946 -0.0581  0.1403
10865TIP3    H154010   4.034   6.703  16.481  0.3308  1.3282  0.9424
10865TIP3    H254011   4.111   6.768  16.368  0.2378 -2.7632 -1.5806
10866TIP3   OH254012   6.613   2.937   2.146 -0.0970 -0.2786 -0.7277
10866TIP3    H154013   6.686   2.937   2.083 -1.0034  0.1139 -1.8061
10866TIP3    H254014   6.578   3.026   2.141  0.1323 -0.0952  0.7244
10867TIP3   OH254015   1.651   3.226   0.087 -0.1447  0.1597  0.5339
10867TIP3    H154016   1.691   3.207   0.002 -2.9034  1.4500 -1.0920
10867TIP3    H254017   1.704   3.298   0.123  1.9710 -1.4089  0.6487
10868TIP3   OH254018   3.874   1.884   0.942  0.2992 -0.3099 -0.6247
10868TIP3    H154019   3.962   1.861   0.912  0.7438  0.1802  0.2749
10868TIP3    H254020   3.859   1.971   0.906  1.6181  1.1247  2.1017
10869TIP3   OH254021   2.446   1.000   3.464 -0.2017  0.1377 -0.1684
10869TIP3    H154022   2.412   1.082   3.501  2.5160  0.8761  0.8266
10869TIP3    H254023   2.415   0.932   3.525  0.2681  0.8241  0.8579
10870TIP3   OH254024   5.383   2.718  15.603 -0.6298  0.2167  0.1944
10870TIP3    H154025   5.322   2.782  15.639  0.6421  1.3678  0.3056
10870TIP3    H254026   5.342   2.690  15.521 -0.9033  1.6184 -0.1553
10871TIP3   OH254027   0.178   6.492   0.464 -0.4599 -0.2432  0.1415
10871TIP3    H154028   0.146   6.451   0.384  1.0897  1.7153 -1.5477
10871TIP3    H254029   0.254   6.440   0.490  1.6735  1.6171 -2.1515
10872TIP3   OH254030   2.194   6.678   0.635 -0.5991  0.6447 -0.1975
10872TIP3    H154031   2.191   6.588   0.603 -1.7521  0.4200  0.4997
10872TIP3    H254032   2.262   6.720   0.583 -1.5141 -0.0592 -2.0176
10873TIP3   OH254033   5.478   3.677   6.772 -0.5156  0.1864 -0.1360
10873TIP3    H154034   5.467   3.639   6.684 -0.5957  0.8931 -0.4373
10873TIP3    H254035   5.391   3.672   6.811 -0.3765 -0.5736  0.0925
10874TIP3   OH254036   0.813   4.480  11.310 -0.0001 -0.1232 -0.2357
10874TIP3    H154037   0.799   4.494  11.403 -0.2452  1.3678 -0.4867
10874TIP3    H254038   0.908   4.471  11.302  0.0266 -0.2028  0.1416
10875TIP3   OH254039   2.643   3.220  14.617  0.1171  0.4775  0.2902
10875TIP3    H154040   2.591   3.146  14.584 -0.9584  0.7899  1.2386
10875TIP3    H254041   2.730   3.207  14.579 -0.2437 -0.9073 -0.1041
10876TIP3   OH254042   0.386   6.371   3.272  0.2122  0.2880  0.4249
10876TIP3    H154043   0.416   6.441   3.214  0.0761  0.3194  0.3923
10876TIP3    H254044   0.345   6.417   3.345  1.8862  0.2817  1.3657
10877TIP3   OH254045   1.605   5.324   1.027 -0.4298 -0.7244 -0.3449
10877TIP3    H154046   1.660   5.342   1.103  1.8674 -1.5950 -1.7206
10877TIP3    H254047   1.548   5.400   1.020  1.7490  1.0364  0.1946
10878TIP3   OH254048   2.809   4.680   1.768 -0.2300 -0.0436 -0.6266
10878TIP3    H154049   2.773   4.769   1.776  1.3442  0.4661  0.8647
10878TIP3    H254050   2.876   4.687   1.700  0.5527  0.1334  0.1540
10879TIP3   OH254051   0.035   1.208   1.878 -0.1837 -0.4443  0.3675
10879TIP3    H154052   0.078   1.199   1.963  0.6354 -0.1697 -0.0174
10879TIP3    H254053   0.035   1.119   1.842 -0.0356 -0.4643  0.4153
10880TIP3   OH254054   1.392   3.787   4.084 -0.6664  0.0976 -0.2366
10880TIP3    H154055   1.474   3.805   4.130 -0.2788  0.6374 -1.1209
10880TIP3    H254056   1.412   3.803   3.991 -0.7076 -3.5450 -0.9212
10881TIP3   OH254057   2.678   4.973  16.548  0.5213  0.1012  0.3477
10881TIP3    H154058   2.726   5.042  16.594  0.5503 -1.0530  2.0839
10881TIP3    H254059   2.732   4.895  16.561 -0.2446 -0.5474 -0.3701
10882TIP3   OH254060   5.575   4.405   0.928  0.1512  0.5354  0.1701
10882TIP3    H154061   5.583   4.318   0.887  0.6271  1.0102 -0.7557
10882TIP3    H254062   5.542   4.386   1.016 -1.8560 -0.4304 -0.7469
10883TIP3   OH254063   5.469   5.411  12.438 -0.0256 -0.4537  0.1872
10883TIP3    H154064   5.465   5.390  12.345 -0.0176  0.0793  0.0661
10883TIP3    H254065   5.430   5.335  12.481 -0.0949 -0.6704 -0.2538
10884TIP3   OH254066   4.567   1.892  11.006 -0.4694 -0.7265  0.6030
10884TIP3    H154067   4.641   1.834  11.028  1.5668  2.2046  1.8545
10884TIP3    H254068   4.536   1.861  10.921  1.7799 -2.4525  0.3711
10885TIP3   OH254069   0.340   0.763  12.283  0.2407 -0.1986  0.2759
10885TIP3    H154070   0.345   0.671  12.258  1.8790 -0.0706  0.0388
10885TIP3    H254071   0.361   0.811  12.202  1.3584  0.3126  0.8485
10886TIP3   OH254072   5.958   4.917  13.481  0.4569 -0.1055  0.1733
10886TIP3    H154073   5.994   4.981  13.543  1.4354 -1.4177  1.0094
10886TIP3    H254074   5.914   4.969  13.414 -0.1643  1.3675  1.7020
10887TIP3   OH254075   2.646   3.402  14.331  0.7456 -0.2238 -0.0064
10887TIP3    H154076   2.566   3.350  14.340  2.3737 -2.9880 -0.7009
10887TIP3    H254077   2.716   3.342  14.357  2.8216  1.2008 -2.0967
10888TIP3   OH254078   4.823   1.026   4.882 -0.1050 -0.3684 -0.4697
10888TIP3    H154079   4.842   0.948   4.830  1.5811 -0.3831  0.1298
10888TIP3    H254080   4.800   0.993   4.969 -2.0351 -0.3024 -0.9336
10889TIP3   OH254081   6.327   4.232  15.631 -0.4017  0.3414 -0.5562
10889TIP3    H154082   6.313   4.293  15.704  0.5727 -0.6515  0.4836
10889TIP3    H254083   6.393   4.274  15.576  0.1806  0.2812  0.0925
10890TIP3   OH254084   2.825   4.484   3.607 -0.1563 -0.2382 -1.0412
10890TIP3    H154085   2.805   4.391   3.604  2.0133 -0.7433 -0.5325
10890TIP3    H254086   2.764   4.520   3.671  1.0353 -1.8724  1.0808
10891TIP3   OH254087   1.974   2.998  15.763  0.0460 -0.2938  0.1980
10891TIP3    H154088   1.887   2.993  15.723  0.3227 -0.7174 -0.3633
10891TIP3    H254089   1.963   2.960  15.850 -0.2082 -0.8632 -0.0820
10892TIP3   OH254090   3.719   6.411   5.985 -0.3161 -0.3517  0.1249
10892TIP3    H154091   3.813   6.421   6.001 -0.6207  1.8471  0.6640
10892TIP3    H254092   3.700   6.321   6.011  1.4524 -0.5067  0.9670
10893TIP3   OH254093   2.449   3.197  15.481 -0.0617 -0.5641  0.1057
10893TIP3    H154094   2.390   3.254  15.431  1.0977  0.0377 -0.6048
10893TIP3    H254095   2.511   3.258  15.522  1.2466 -1.3181 -0.7307
10894TIP3   OH254096   5.240   0.041   0.164  0.3143 -0.0381  0.5107
10894TIP3    H154097   5.267  -0.015   0.091 -1.1025  0.3317 -0.3132
10894TIP3    H254098   5.319   0.050   0.217  1.8794  1.1457 -1.8989
10895TIP3   OH254099   1.011   2.725   4.830  0.1338  0.5111  0.2376
10895TIP3    H154100   1.022   2.743   4.923 -0.0654  1.1242  0.1422
10895TIP3    H254101   1.083   2.773   4.788 -1.3625  2.4462 -0.1644
10896TIP3   OH254102   2.803   0.055  12.200 -0.3101 -0.0130 -0.6826
10896TIP3    H154103   2.768   0.071  12.112 -1.0777 -0.4372 -0.4552
10896TIP3    H254104   2.726   0.051  12.256  0.1241 -0.6072 -0.1259
10897TIP3   OH254105   4.940   2.511   3.763  0.0461  0.3607 -0.0546
10897TIP3    H154106   4.957   2.577   3.830 -1.2841  1.3192 -0.6366
10897TIP3    H254107   4.845   2.503   3.760  0.1418 -0.5503 -0.9722
10898TIP3   OH254108   1.995   0.394   1.163 -0.4036  0.4726  0.5922
10898TIP3    H154109   1.973   0.487   1.156  0.6020  0.6857  0.2146
10898TIP3    H254110   2.090   0.392   1.173 -0.2636 -0.5710 -0.7357
10899TIP3   OH254111   1.332   6.042   0.230  0.3250  0.0085 -0.0554
10899TIP3    H154112   1.288   6.116   0.189  0.1012  0.5447  1.1194
10899TIP3    H254113   1.404   6.082   0.280  0.3977 -0.5995  0.3261
10900TIP3   OH254114   2.693   3.734  16.176  0.0406 -0.2152 -0.0953
10900TIP3    H154115   2.702   3.755  16.269  3.8817 -1.1703 -0.1909
10900TIP3    H254116   2.680   3.639  16.174 -0.2257 -0.1722 -0.5211
10901TIP3   OH254117   5.012   0.035   3.496 -0.0681 -0.4519 -0.1437
10901TIP3    H154118   5.044   0.059   3.583 -1.4397 -1.6092  0.7204
10901TIP3    H254119   5.049  -0.052   3.481 -1.4660 -1.1272  0.1923
10902TIP3   OH254120   5.983   4.107  14.554 -0.1582  0.5854  0.1154
10902TIP3    H154121   5.980   4.056  14.473 -1.4812  2.9192 -1.3928
10902TIP3    H254122   6.056   4.070  14.603  1.3225 -0.2797 -2.5934
10903TIP3   OH254123   3.583   3.782  13.487  0.4047  0.1226 -0.1942
10903TIP3    H154124   3.499   3.827  13.491 -0.3029 -1.1329 -0.4819
10903TIP3    H254125   3.614   3.797  13.397 -0.1911 -0.5905 -0.5244
10904TIP3   OH254126   2.905   6.146   5.955 -0.6094  0.2814 -0.3533
10904TIP3    H154127   2.825   6.113   5.914 -0.1746 -2.3290  0.8293
10904TIP3    H254128   2.874   6.204   6.025 -1.3681  2.6172 -2.5351
10905TIP3   OH254129   0.033   0.071   5.240  0.3104  0.8384 -0.2506
10905TIP3    H154130   0.119   0.104   5.266  2.0351 -1.2731 -2.9890
10905TIP3    H254131   0.041  -0.025   5.247 -1.6063  0.5887 -1.1950
10906TIP3   OH254132   3.325   2.517   3.639 -0.4702 -0.1897 -0.7598
10906TIP3    H154133   3.272   2.597   3.644  0.7370  0.7406 -2.3068
10906TIP3    H254134   3.390   2.536   3.571 -0.0348 -2.4269 -0.9938
10907TIP3   OH254135   1.987   4.887  14.188  0.1802 -0.0018  0.5563
10907TIP3    H154136   2.042   4.924  14.119  0.6835  1.7713  1.8660
10907TIP3    H254137   1.936   4.961  14.220 -1.3553 -1.1737  0.9047
10908TIP3   OH254138   3.304   1.053  14.659 -0.0925 -0.7542  0.1478
10908TIP3    H154139   3.375   0.994  14.637  0.9217 -0.0938  1.5636
10908TIP3    H254140   3.325   1.134  14.613 -0.0614 -0.6357  0.3709
10909TIP3   OH254141   5.127   2.806  16.684  0.6404 -0.4526  0.5971
10909TIP3    H154142   5.082   2.721  16.681 -0.2656  0.0248  0.6598
10909TIP3    H254143   5.091   2.849  16.762  1.5588 -0.2639  0.9212
10910TIP3   OH254144   0.727   4.853   4.938  0.6730 -0.0467 -0.5568
10910TIP3    H154145   0.654   4.824   4.993  0.5507  3.0035  0.9608
10910TIP3    H254146   0.764   4.772   4.903 -1.4090 -1.8371  1.2569
10911TIP3   OH254147   2.032   5.910  12.750  0.1438  0.1389  0.2199
10911TIP3    H154148   2.006   6.000  12.729  0.1764 -0.0498 -0.6642
10911TIP3    H254149   2.044   5.910  12.845 -1.0185  0.7632  0.3771
10912TIP3   OH254150   5.802   5.882   6.111 -0.1949 -0.4871  0.6482
10912TIP3    H154151   5.889   5.844   6.125 -0.1894 -0.8166 -0.2394
10912TIP3    H254152   5.745   5.806   6.094 -1.1849 -0.5142  3.6493
10913TIP3   OH254153   3.924   0.413  15.497  0.0202 -0.5273  0.0955
10913TIP3    H154154   3.976   0.481  15.453  0.0455 -0.3174  0.4478
10913TIP3    H254155   3.848   0.460  15.531 -0.7684 -0.9543 -1.0317
10914TIP3   OH254156   3.892   1.578   4.551 -0.2442 -0.6577  0.3334
10914TIP3    H154157   3.843   1.536   4.622 -0.0891  0.1786  0.9450
10914TIP3    H254158   3.975   1.604   4.592  0.5837 -1.7720 -0.6065
10915TIP3   OH254159   3.709   4.358  12.160  0.2557 -0.0080  0.2029
10915TIP3    H154160   3.712   4.416  12.084 -0.0160  0.8714  0.8571
10915TIP3    H254161   3.723   4.271  12.124 -2.2371  0.1133 -1.1621
10916TIP3   OH254162   0.652   1.137   0.567 -0.0268 -0.2673 -0.4884
10916TIP3    H154163   0.572   1.189   0.562 -0.0115 -0.1277  0.6373
10916TIP3    H254164   0.627   1.057   0.611  0.2619 -0.6202 -0.9566
10917TIP3   OH254165   1.759   1.746   5.372 -0.5637 -0.1645 -0.1234
10917TIP3    H154166   1.724   1.834   5.360 -1.7475  0.0326  3.7879
10917TIP3    H254167   1.688   1.688   5.346  0.3173 -0.0059 -2.9718
10918TIP3   OH254168   3.476   4.711   1.695 -0.2227 -0.7647  0.0054
10918TIP3    H154169   3.401   4.698   1.638  0.4810  0.6394 -1.2743
10918TIP3    H254170   3.525   4.783   1.655 -0.8361  1.7916  3.5549
10919TIP3   OH254171   1.651   2.812  16.987  0.1895 -0.3377 -0.1289
10919TIP3    H154172   1.590   2.801  16.913 -0.6664  0.2697  0.4710
10919TIP3    H254173   1.638   2.902  17.015  1.1612 -0.2971  0.2049
10920TIP3   OH254174   2.071   2.881  14.139  0.9363  0.5483  0.6189
10920TIP3    H154175   1.990   2.921  14.108  0.7303 -1.0400 -0.9843
10920TIP3    H254176   2.139   2.944  14.115  0.5624  0.2108 -1.4310
10921TIP3   OH254177   1.694   3.974  12.347  0.7026  0.1531  0.2715
10921TIP3    H154178   1.661   4.061  12.365 -0.0926  0.5332 -2.7762
10921TIP3    H254179   1.622   3.915  12.368  1.1378  0.2274  2.0369
10922TIP3   OH254180   4.545   1.726  12.091  0.3994  0.3521 -0.0217
10922TIP3    H154181   4.602   1.800  12.113  1.4771 -0.5821  0.3368
10922TIP3    H254182   4.546   1.670  12.168 -1.9068  0.8699  0.4271
10923TIP3   OH254183   5.871   2.729   4.401  0.2109  1.5779  0.0285
10923TIP3    H154184   5.872   2.824   4.386  2.0191  1.2941 -2.0228
10923TIP3    H254185   5.961   2.709   4.427 -0.6923  0.6945  2.6264
10924TIP3   OH254186   4.258   6.551   4.893  0.1443  0.0386 -0.2642
10924TIP3    H154187   4.282   6.468   4.852 -0.5515  0.3412 -1.2922
10924TIP3    H254188   4.313   6.555   4.972  0.3596 -1.2748 -0.3330
10925TIP3   OH254189   0.311   4.144   3.757  0.0430 -0.1758 -0.1292
10925TIP3    H154190   0.390   4.126   3.705  0.8058  0.2217  0.8804
10925TIP3    H254191   0.302   4.239   3.754  1.3539  0.0660  2.2599
10926TIP3   OH254192   6.322   2.910   5.689  0.4575  0.0457 -0.3794
10926TIP3    H154193   6.403   2.951   5.719 -1.5245  2.7027  1.5310
10926TIP3    H254194   6.327   2.820   5.722  2.6406  0.1512 -0.3498
10927TIP3   OH254195   6.075   2.041   3.118 -0.2354 -0.5398  0.1566
10927TIP3    H154196   6.086   1.988   3.197  1.5884  2.1304  1.7717
10927TIP3    H254197   6.045   2.126   3.149 -1.8039 -0.1575 -2.2585
10928TIP3   OH254198   5.037   5.708  10.543 -0.0169 -0.4617 -0.0441
10928TIP3    H154199   5.025   5.644  10.613 -0.9428 -0.9011 -0.5961
10928TIP3    H254200   4.982   5.677  10.472  1.3867 -0.3364 -1.2005
10929TIP3   OH254201   4.849   0.540   6.085 -0.0935 -0.2063  0.9573
10929TIP3    H154202   4.796   0.586   6.151 -3.6384 -3.5262  0.5894
10929TIP3    H254203   4.900   0.477   6.136 -1.3991 -1.4573  0.7351
10930TIP3   OH254204   4.611   5.362  16.526 -0.0288 -0.2894  0.4950
10930TIP3    H154205   4.540   5.384  16.466  0.4349 -1.2897 -0.4376
10930TIP3    H254206   4.599   5.422  16.600 -0.9263  0.5928 -0.3415
10931TIP3   OH254207   1.386   2.179   3.115 -0.0345 -0.1882 -0.2370
10931TIP3    H154208   1.385   2.203   3.207 -1.5812 -1.4691  0.0936
10931TIP3    H254209   1.444   2.103   3.110  0.7611  0.4222 -0.4786
10932TIP3   OH254210   3.723   4.910   3.919  0.1312 -0.5350 -0.8024
10932TIP3    H154211   3.735   4.981   3.855 -0.9594  1.6764  1.3450
10932TIP3    H254212   3.808   4.903   3.963  0.6196 -1.4559 -1.8767
10933TIP3   OH254213   0.762   3.623   1.030  0.4531  0.2321  0.9333
10933TIP3    H154214   0.775   3.707   1.075 -0.8241  0.0473  1.7018
10933TIP3    H254215   0.699   3.577   1.086 -1.1554 -0.0276 -1.0329
10934TIP3   OH254216   1.286   2.305  12.438 -1.3514 -0.0412  0.4948
10934TIP3    H154217   1.293   2.312  12.343 -1.4934  0.1244  0.4962
10934TIP3    H254218   1.272   2.212  12.454 -0.7911 -0.1490  0.3865
10935TIP3   OH254219   0.349   3.780  11.392 -0.3684  0.1461 -0.0412
10935TIP3    H154220   0.283   3.837  11.353 -2.2557 -1.5419  0.5429
10935TIP3    H254221   0.420   3.777  11.329 -0.4126  2.7982 -0.2435
10936TIP3   OH254222   3.182   6.291   4.201 -0.0046 -0.1975  0.5716
10936TIP3    H154223   3.093   6.324   4.212  0.8014  1.5342  2.2920
10936TIP3    H254224   3.188   6.217   4.261 -0.8451 -1.5279 -0.9528
10937TIP3   OH254225   6.461   1.241  14.739 -0.4490  0.0168  0.9703
10937TIP3    H154226   6.393   1.231  14.672  1.2120 -0.0608 -0.7390
10937TIP3    H254227   6.501   1.155  14.746  0.4685  0.4329  0.8853
10938TIP3   OH254228   4.116   1.237   1.907  0.0968  0.1319  0.1657
10938TIP3    H154229   4.042   1.180   1.885 -0.3277  0.7341  0.0195
10938TIP3    H254230   4.080   1.325   1.901  0.6310  0.3968  0.8626
10939TIP3   OH254231   0.602   5.882   5.533  0.3549 -0.8940  0.0670
10939TIP3    H154232   0.653   5.961   5.518 -0.3032 -0.2888  0.9488
10939TIP3    H254233   0.664   5.810   5.520  0.6511 -0.2847 -1.9946
10940TIP3   OH254234   4.760   4.660  14.201  0.4170  0.0596 -0.5352
10940TIP3    H154235   4.767   4.651  14.106 -3.0937 -0.2040 -0.8671
10940TIP3    H254236   4.791   4.577  14.235  0.4061 -0.3647 -1.5394
10941TIP3   OH254237   5.301   0.155  14.998  0.5238  0.4463  0.1715
10941TIP3    H154238   5.303   0.104  14.918  1.6513  0.1544  0.3767
10941TIP3    H254239   5.333   0.242  14.972 -1.9148  1.2360 -0.2914
10942TIP3   OH254240   1.624   1.639  13.596  0.1599  0.1592 -0.2297
10942TIP3    H154241   1.574   1.576  13.648 -0.5362  0.9813  0.0978
10942TIP3    H254242   1.590   1.725  13.621 -0.0673  0.5831 -1.8991
10943TIP3   OH254243   1.238   6.734  11.701  0.4038 -0.3012 -0.2674
10943TIP3    H154244   1.290   6.732  11.621 -0.4921  1.0441 -0.9206
10943TIP3    H254245   1.276   6.806  11.752 -1.0303  0.9522 -0.9278
10944TIP3   OH254246   5.251   3.742  12.894  0.1598 -0.4221  0.2830
10944TIP3    H154247   5.201   3.772  12.817 -0.6862 -0.4241  0.8186
10944TIP3    H254248   5.340   3.731  12.862  0.0812  0.8107 -0.3873
10945TIP3   OH254249   3.382   5.170  16.047 -0.4714 -0.1085 -0.2382
10945TIP3    H154250   3.304   5.137  16.090  0.6364  0.0947  1.9731
10945TIP3    H254251   3.356   5.180  15.955 -2.3685 -2.1129  0.0384
10946TIP3   OH254252   1.983   2.372  13.973  0.3277  0.4127 -0.1750
10946TIP3    H154253   2.012   2.461  13.993 -0.1323  0.4793  0.1931
10946TIP3    H254254   1.973   2.371  13.878  1.2266  0.4844 -0.2727
10947TIP3   OH254255   2.189   5.909  12.514  0.5823  0.3308 -0.8320
10947TIP3    H154256   2.123   5.943  12.454  1.3494  1.6078 -0.9823
10947TIP3    H254257   2.201   5.979  12.578  1.9989  0.2559 -0.9937
10948TIP3   OH254258   0.413   0.780   1.086  0.1461 -0.2728 -0.8576
10948TIP3    H154259   0.494   0.731   1.102 -0.1603 -0.8854 -1.1826
10948TIP3    H254260   0.412   0.847   1.154  1.4216  0.3570 -1.4462
10949TIP3   OH254261   4.786   1.802  10.671 -0.0788 -0.4872  0.4602
10949TIP3    H154262   4.824   1.839  10.591  2.0746 -0.2149  1.5499
10949TIP3    H254263   4.738   1.725  10.642  2.0541 -1.3568 -0.9334
10950TIP3   OH254264   4.238   2.622  16.917 -0.2123 -0.2192  0.4847
10950TIP3    H154265   4.219   2.709  16.952  0.3452  0.3785 -0.6574
10950TIP3    H254266   4.200   2.562  16.981 -1.9792  0.8761  0.4923
10951TIP3   OH254267   6.487   2.789  12.831 -0.2082  0.7945  0.3930
10951TIP3    H154268   6.448   2.702  12.842  1.0585  0.2077  0.3464
10951TIP3    H254269   6.432   2.832  12.765 -1.8444  0.6616  1.6203
10952TIP3   OH254270   1.672   0.475   5.470  0.0281 -0.4308  0.6091
10952TIP3    H154271   1.742   0.414   5.493 -0.0328 -0.3698  0.9598
10952TIP3    H254272   1.608   0.465   5.540  1.0125  1.6098  1.8353
10953TIP3   OH254273   4.667   1.963   3.888  0.1634  0.3718  0.0740
10953TIP3    H154274   4.657   2.058   3.891  0.3150  0.3513  1.5372
10953TIP3    H254275   4.714   1.941   3.969 -0.3332 -1.0018  0.0060
10954TIP3   OH254276   3.793   0.601   0.987  0.0755  0.0169  0.0014
10954TIP3    H154277   3.797   0.661   1.061  0.1062  1.0959 -0.8649
10954TIP3    H254278   3.771   0.657   0.912  1.0587 -0.9027 -0.9881
10955TIP3   OH254279   0.656   2.461   2.090 -0.4263  0.3496 -0.0547
10955TIP3    H154280   0.571   2.495   2.120 -0.5150  0.1749 -0.1094
10955TIP3    H254281   0.671   2.505   2.007 -0.3056  0.6338  0.1164
10956TIP3   OH254282   3.049   4.621  16.817  0.1830 -0.4758 -0.3768
10956TIP3    H154283   3.090   4.567  16.885  1.0210  1.7635  0.9696
10956TIP3    H254284   2.995   4.683  16.866  0.1943  0.6823 -1.8022
10957TIP3   OH254285   6.684   3.359   5.213 -0.6015 -0.2763  0.2366
10957TIP3    H154286   6.610   3.301   5.231 -1.6886  0.9941 -0.0358
10957TIP3    H254287   6.751   3.301   5.176 -1.9724 -1.2218 -0.8448
10958TIP3   OH254288   4.460   5.279  15.572  0.4031  0.7796  0.0273
10958TIP3    H154289   4.536   5.336  15.561  0.9802  0.0658  0.2721
10958TIP3    H254290   4.479   5.230  15.652  0.8708 -1.2448 -1.3129
10959TIP3   OH254291   4.138   0.580  13.212  0.0530  1.0253 -0.3993
10959TIP3    H154292   4.162   0.533  13.133  1.1489 -0.4378  0.7878
10959TIP3    H254293   4.078   0.521  13.258  0.7943  1.1082  0.6975
10960TIP3   OH254294   6.535   0.387   1.899  0.4712 -0.1721 -0.0099
10960TIP3    H154295   6.535   0.368   1.806  2.7120  1.1831 -0.3156
10960TIP3    H254296   6.567   0.307   1.940 -1.8547 -1.2764 -0.2304
10961TIP3   OH254297   0.957   1.825   2.258  0.2731  0.4832  0.3823
10961TIP3    H154298   0.910   1.902   2.289 -1.1711  0.0544 -0.7043
10961TIP3    H254299   0.895   1.753   2.271  1.5907 -0.5107  1.3564
10962TIP3   OH254300   5.071   0.281   6.035  0.1901 -0.5653 -0.4559
10962TIP3    H154301   4.988   0.236   6.022  0.3134 -1.5421  1.9064
10962TIP3    H254302   5.055   0.340   6.109  1.5127 -0.5767 -0.1474
10963TIP3   OH254303   1.231   2.298   1.078  0.2584 -0.6514 -0.1994
10963TIP3    H154304   1.277   2.261   1.003 -0.1740 -0.7072 -0.4402
10963TIP3    H254305   1.178   2.369   1.041 -1.4861 -1.9433 -0.2758
10964TIP3   OH254306   3.390   4.266   3.059 -0.3480  0.5976 -0.1385
10964TIP3    H154307   3.467   4.292   3.009 -0.1222 -0.3217 -0.2738
10964TIP3    H254308   3.423   4.203   3.124 -0.8565  0.7801  0.3007
10965TIP3   OH254309   6.048   5.485  12.641  0.1422  0.1154 -0.3344
10965TIP3    H154310   6.042   5.580  12.656 -2.5109  0.1763 -1.5106
10965TIP3    H254311   6.093   5.476  12.557  1.2973  0.2681  0.2518
10966TIP3   OH254312   0.732   1.942  16.962  0.1708 -0.4507  0.4386
10966TIP3    H154313   0.740   1.979  16.874  0.4050 -0.6370  0.3807
10966TIP3    H254314   0.710   2.016  17.017 -1.3846 -0.5615  0.0024
10967TIP3   OH254315   4.488   2.924   4.545 -0.1135 -0.4723 -0.3117
10967TIP3    H154316   4.479   3.019   4.552 -2.0639 -0.6174 -0.6565
10967TIP3    H254317   4.421   2.889   4.604  0.4789 -1.6324 -0.3228
10968TIP3   OH254318   6.444   5.182  15.577 -0.1179  0.0169  0.5097
10968TIP3    H154319   6.539   5.181  15.564 -0.1013 -0.9743  0.6441
10968TIP3    H254320   6.411   5.113  15.519 -0.9916  1.8537 -1.2124
10969TIP3   OH254321   4.929   4.297   1.534 -0.4026 -0.2399  0.8710
10969TIP3    H154322   4.904   4.278   1.444 -0.7846 -0.3680  1.0011
10969TIP3    H254323   4.929   4.392   1.540 -0.2453 -0.2298  0.6992
10970TIP3   OH254324   6.719   5.991   5.206 -0.1258  0.0896 -0.4762
10970TIP3    H154325   6.649   5.966   5.266  1.0213 -0.4034  0.6790
10970TIP3    H254326   6.729   6.086   5.220  1.5673 -0.3609  1.7138
10971TIP3   OH254327   5.953   4.600  15.898  0.2631  0.2522 -0.7514
10971TIP3    H154328   5.859   4.583  15.903  0.5876 -1.3831  0.1439
10971TIP3    H254329   5.970   4.616  15.806 -0.6324 -0.9725 -1.1382
10972TIP3   OH254330   6.627   0.082   0.625  0.0285  0.3190 -0.3278
10972TIP3    H154331   6.604   0.131   0.704  2.1481  2.4478 -0.9775
10972TIP3    H254332   6.714   0.046   0.644 -0.9772 -2.2059 -0.3404
10973TIP3   OH254333   4.727   2.902  15.162 -0.2392 -0.4802  0.5731
10973TIP3    H154334   4.776   2.827  15.195  0.2783 -0.4714 -0.1697
10973TIP3    H254335   4.712   2.883  15.070 -0.2745  0.2457  0.4218
10974TIP3   OH254336   2.220   5.840   6.364 -0.1140 -0.5899 -0.1842
10974TIP3    H154337   2.300   5.855   6.413 -0.1014  0.1777 -0.4415
10974TIP3    H254338   2.184   5.759   6.402 -1.7637  1.6523  3.2898
10975TIP3   OH254339   4.496   2.066  16.211  1.3682  0.3009  0.8072
10975TIP3    H154340   4.494   2.144  16.266 -3.8328  2.1750 -1.7277
10975TIP3    H254341   4.411   2.024  16.227  2.3658 -2.5606 -1.0399
10976TIP3   OH254342   0.002   6.472   6.432  0.0107 -0.0021  0.3661
10976TIP3    H154343   0.030   6.561   6.453  1.5500 -0.6690  1.1792
10976TIP3    H254344   0.080   6.429   6.396 -1.2437 -0.4197 -2.0372
10977TIP3   OH254345   3.640   2.149   5.077 -0.3766  0.1555 -0.4319
10977TIP3    H154346   3.621   2.090   5.150  0.0673 -1.1140 -1.3141
10977TIP3    H254347   3.734   2.137   5.061 -0.1788  1.5096 -0.2791
10978TIP3   OH254348   5.420   2.882  10.936 -0.5344  0.7796  0.5196
10978TIP3    H154349   5.478   2.883  10.860 -1.4925  0.7832 -0.2159
10978TIP3    H254350   5.416   2.973  10.965  1.3437  0.4945  1.7451
10979TIP3   OH254351   1.894   1.890   4.036 -0.5247 -0.0056 -0.0229
10979TIP3    H154352   1.984   1.921   4.033 -0.0556 -1.1970  1.3215
10979TIP3    H254353   1.853   1.926   3.957  1.1237  0.5122 -0.6510
10980TIP3   OH254354   0.047   5.129   2.910  0.3473  0.0268 -0.2268
10980TIP3    H154355  -0.016   5.101   2.843 -2.5456  0.3348  2.2796
10980TIP3    H254356   0.045   5.225   2.906  0.6916  0.0375 -0.1593
10981TIP3   OH254357   3.865   1.547  12.293 -0.0585 -0.5807 -0.7189
10981TIP3    H154358   3.849   1.588  12.208  0.2645 -0.2717 -0.6316
10981TIP3    H254359   3.919   1.610  12.340  0.1395 -0.9512 -0.4486
10982TIP3   OH254360   1.645   0.997  16.751  0.2142 -0.0170 -0.5459
10982TIP3    H154361   1.705   0.938  16.795 -0.7672  0.8608  2.0534
10982TIP3    H254362   1.695   1.079  16.742  0.4639 -0.2404 -1.2026
10983TIP3   OH254363   4.065   0.582   3.117  0.5628 -0.7246  0.0152
10983TIP3    H154364   4.088   0.536   3.198  0.6472 -0.0791  0.3550
10983TIP3    H254365   4.105   0.529   3.048  0.5460 -1.2414  0.3936
10984TIP3   OH254366   6.743   1.007  16.726  0.3153 -0.0650  0.1502
10984TIP3    H154367   6.653   1.031  16.749  0.4268  0.4394  0.0822
10984TIP3    H254368   6.769   1.072  16.661  0.0028 -1.5109 -1.4517
10985TIP3   OH254369   6.306   6.734  13.971 -0.3387 -0.5667 -0.1889
10985TIP3    H154370   6.266   6.815  14.003 -0.3322 -0.5661 -0.1827
10985TIP3    H254371   6.254   6.664  14.009 -0.2513 -0.5685 -0.0723
10986TIP3   OH254372   2.137   4.227   2.741 -0.1320  0.8247 -0.3529
10986TIP3    H154373   2.099   4.254   2.658 -1.8806 -0.6917 -0.0788
10986TIP3    H254374   2.077   4.160   2.775  0.1827  1.8914  2.4548
10987TIP3   OH254375   5.311   3.582  14.753 -0.0485 -0.2816  0.2449
10987TIP3    H154376   5.286   3.505  14.804 -0.5132 -0.2063  0.1297
10987TIP3    H254377   5.238   3.596  14.693  1.1321 -1.2401 -1.4686
10988TIP3   OH254378   6.187   4.360   2.859  0.1584  0.0810 -0.0186
10988TIP3    H154379   6.213   4.425   2.924 -1.5805  0.7630  0.0173
10988TIP3    H254380   6.231   4.389   2.779  1.7031 -0.3426  0.6389
10989TIP3   OH254381   2.760   5.406   5.677 -0.5178  0.2449 -0.0990
10989TIP3    H154382   2.692   5.415   5.610 -0.4242 -1.8952 -0.4968
10989TIP3    H254383   2.835   5.370   5.630 -0.8768 -2.5487  1.4064
10990TIP3   OH254384   2.753   4.501  10.989  0.7547  0.2698  0.2287
10990TIP3    H154385   2.728   4.553  10.913 -1.2997  1.5898  1.7418
10990TIP3    H254386   2.838   4.535  11.014 -0.5897  3.0745  1.2464
10991TIP3   OH254387   3.684   5.095  13.787 -0.4185 -0.5427 -0.3616
10991TIP3    H154388   3.605   5.111  13.839 -0.3395 -0.0437 -0.3894
10991TIP3    H254389   3.736   5.034  13.840 -0.0151  0.5119  0.4905
10992TIP3   OH254390   6.653   3.803   1.024  0.2039 -0.1939 -0.0645
10992TIP3    H154391   6.739   3.780   0.987  0.4075 -0.0497  0.3185
10992TIP3    H254392   6.599   3.725   1.010  0.6271 -0.5750  0.4046
10993TIP3   OH254393   6.705   2.285  11.886 -0.7338 -0.1752 -0.2619
10993TIP3    H154394   6.711   2.337  11.806 -0.0499  0.2211  0.0524
10993TIP3    H254395   6.704   2.194  11.855  0.5477 -0.0621 -0.6661
10994TIP3   OH254396   0.615   2.453   1.614 -0.2649 -0.3448  0.2726
10994TIP3    H154397   0.692   2.405   1.647  0.2514  0.6492  0.5183
10994TIP3    H254398   0.613   2.533   1.666 -0.7792  0.1785 -0.5536
10995TIP3   OH254399   4.862   1.646  15.947 -0.0938  0.3450 -0.0122
10995TIP3    H154400   4.815   1.572  15.986  0.8646  0.2360  0.9904
10995TIP3    H254401   4.795   1.711  15.928 -0.6576  0.2045  1.4222
10996TIP3   OH254402   5.565   3.306   3.208  0.1096 -0.2731 -0.5387
10996TIP3    H154403   5.519   3.248   3.146 -0.1557 -1.0119  0.3304
10996TIP3    H254404   5.658   3.289   3.192  0.0371 -0.7609 -0.4576
10997TIP3   OH254405   1.380   0.161  10.820 -0.0781  0.2234 -0.6095
10997TIP3    H154406   1.446   0.129  10.882 -1.2783  0.7850  0.9841
10997TIP3    H254407   1.335   0.082  10.790 -0.3875  0.0452  0.2905
10998TIP3   OH254408   0.354   5.174  13.147  0.0055 -0.4073 -0.1883
10998TIP3    H154409   0.410   5.232  13.096  0.0132  0.2444  0.5497
10998TIP3    H254410   0.410   5.099  13.167  0.3201 -0.1965 -0.2701
10999TIP3   OH254411   1.524   0.547  12.717 -0.5028  0.5862  0.6529
10999TIP3    H154412   1.453   0.597  12.758 -1.9834 -0.8595 -0.1252
10999TIP3    H254413   1.482   0.496  12.648  0.7462 -2.6885  2.1919
11000TIP3   OH254414   0.232   5.138   5.993 -0.1757  0.1722 -0.0914
11000TIP3    H154415   0.202   5.181   5.913  0.9912  2.6245  0.7321
11000TIP3    H254416   0.194   5.190   6.064 -0.3354 -1.3438  0.9457
11001TIP3   OH254417   3.715   6.321   1.309  0.8121  0.2487  0.5099
11001TIP3    H154418   3.756   6.405   1.329  0.6508  0.3782  0.2954
11001TIP3    H254419   3.787   6.258   1.312  0.9816  0.4379  0.3948
11002TIP3   OH254420   3.762   3.179  14.793 -0.9913  0.3515  0.4004
11002TIP3    H154421   3.834   3.235  14.764 -1.6526  1.0881  0.1859
11002TIP3    H254422   3.703   3.237  14.841 -0.4957 -0.6370  2.2409
11003TIP3   OH254423   4.915   2.471  16.052  0.1174  0.2152 -0.0146
11003TIP3    H154424   4.839   2.429  16.011  0.2356  0.6801 -0.7194
11003TIP3    H254425   4.956   2.521  15.981  0.7386  0.4510  0.5037
11004TIP3   OH254426   1.997   4.495  11.021 -0.1206  0.1483 -0.2220
11004TIP3    H154427   2.002   4.521  11.113  0.1510  0.7140 -0.3975
11004TIP3    H254428   2.079   4.526  10.983 -0.6580  0.7700 -0.8717
11005TIP3   OH254429   5.140   5.215   5.776  0.3055 -0.7580  0.0408
11005TIP3    H154430   5.150   5.310   5.779  0.5981 -0.7826 -0.1546
11005TIP3    H254431   5.046   5.201   5.789 -0.0113 -0.3491 -1.6103
11006TIP3   OH254432   0.431   5.370   3.570  0.0047 -0.2742 -0.6397
11006TIP3    H154433   0.404   5.459   3.591  0.3831 -0.1932 -0.4887
11006TIP3    H254434   0.350   5.325   3.548 -0.1762  0.1343 -0.8165
11007TIP3   OH254435   0.515   1.113  11.768 -0.2182  0.4231  0.3901
11007TIP3    H154436   0.440   1.103  11.710  0.6170  0.7839 -0.7675
11007TIP3    H254437   0.481   1.092  11.855 -1.6455  0.5757 -0.1223
11008TIP3   OH254438   1.821   1.104  11.086 -0.1026 -0.0708 -0.0471
11008TIP3    H154439   1.883   1.038  11.056  0.3049  0.9374 -1.4649
11008TIP3    H254440   1.737   1.077  11.049 -0.3692 -0.9829  1.1908
11009TIP3   OH254441   1.113   1.816  13.874  0.2525  0.4525  0.1300
11009TIP3    H154442   1.026   1.856  13.877  1.0002  2.2526 -0.9029
11009TIP3    H254443   1.159   1.855  13.948  1.1682  2.0344 -1.2186
11010TIP3   OH254444   4.957   0.207   5.154 -0.4547 -0.3236  0.9664
11010TIP3    H154445   4.993   0.131   5.199 -1.2711 -1.4491 -0.2299
11010TIP3    H254446   4.927   0.265   5.225  0.2498 -1.0769  1.8902
11011TIP3   OH254447   6.312   1.886   0.908 -0.1134  0.4350  0.2651
11011TIP3    H154448   6.348   1.974   0.901 -0.2657  0.6206  1.7157
11011TIP3    H254449   6.284   1.878   0.999 -0.3167 -1.0312  0.0932
11012TIP3   OH254450   1.787   6.755   2.639 -0.3141 -0.0175 -0.3812
11012TIP3    H154451   1.713   6.700   2.616 -0.2982 -0.0259 -0.4128
11012TIP3    H254452   1.826   6.779   2.555 -1.2904  1.3765 -0.4550
11013TIP3   OH254453   3.557   1.930  16.429  0.3980  0.0357 -0.7345
11013TIP3    H154454   3.514   2.010  16.399 -1.2850 -0.2121  0.9351
11013TIP3    H254455   3.554   1.872  16.353 -2.0799  0.0906 -0.7008
11014TIP3   OH254456   0.963   1.579   1.662  0.6437 -0.1924  0.3090
11014TIP3    H154457   1.024   1.623   1.602 -0.4086  1.5788  0.5168
11014TIP3    H254458   0.888   1.555   1.608  1.6323 -2.6795 -0.0172
11015TIP3   OH254459   4.054   2.258   3.330  0.6034  0.7223 -0.9198
11015TIP3    H154460   4.047   2.263   3.425 -1.1060 -0.0675 -0.9848
11015TIP3    H254461   4.145   2.236   3.314  1.0754  1.5660  0.5074
11016TIP3   OH254462   0.670   3.363  11.413 -0.3682  0.0050 -0.4387
11016TIP3    H154463   0.752   3.316  11.429 -0.1597  0.2901 -0.6702
11016TIP3    H254464   0.662   3.423  11.487 -0.6092 -0.3641 -0.1687
11017TIP3   OH254465   5.489   6.485  14.013 -0.1300 -0.3839  0.4012
11017TIP3    H154466   5.515   6.560  14.066  0.1718  0.2999 -0.6909
11017TIP3    H254467   5.570   6.435  14.000 -0.3679 -1.0027  1.2861
11018TIP3   OH254468   5.541   4.486   1.568 -0.2245 -0.2804  0.4580
11018TIP3    H154469   5.549   4.391   1.559 -0.5732 -0.2196 -0.6000
11018TIP3    H254470   5.451   4.505   1.539  0.1987  0.4824 -0.4054
11019TIP3   OH254471   3.196   0.945   0.096 -0.4580 -0.4761  0.6963
11019TIP3    H154472   3.205   1.034   0.130  0.0764  0.2420 -1.2605
11019TIP3    H254473   3.285   0.920   0.070 -0.8766 -0.8870 -0.4036
11020TIP3   OH254474   6.285   6.449   3.269  0.4219 -0.2034 -0.6792
11020TIP3    H154475   6.274   6.358   3.297  0.5611 -0.1341 -0.3956
11020TIP3    H254476   6.341   6.443   3.191 -0.4966 -0.4467 -1.3269
11021TIP3   OH254477   5.311   2.185   5.745 -0.5212  0.1663  0.5559
11021TIP3    H154478   5.337   2.098   5.775 -2.6936 -0.5685  0.4221
11021TIP3    H254479   5.342   2.244   5.814  0.8262 -0.7343  0.7286
11022TIP3   OH254480   5.195   5.640  14.428 -0.2331 -0.0071 -0.4623
11022TIP3    H154481   5.287   5.629  14.405 -0.4879 -1.1142 -1.0108
11022TIP3    H254482   5.186   5.732  14.451  1.5176 -0.3817  1.8719
11023TIP3   OH254483   0.140   4.866   1.580 -0.0904  0.3393 -0.0106
11023TIP3    H154484   0.102   4.856   1.668  0.3711 -0.4770  0.0923
11023TIP3    H254485   0.188   4.785   1.565 -0.5130  0.2993 -1.1935
11024TIP3   OH254486   3.602   2.671   0.309 -0.7019 -0.5240 -0.7560
11024TIP3    H154487   3.607   2.672   0.213 -1.4181  0.6048 -0.7906
11024TIP3    H254488   3.553   2.591   0.329  0.2771 -1.2718 -1.2773
11025TIP3   OH254489   3.073   5.083   1.840  0.6112  0.5615  0.6473
11025TIP3    H154490   3.088   4.989   1.850  1.5272  0.8599  2.3891
11025TIP3    H254491   3.157   5.117   1.808  0.4326  0.8323  0.4707
11026TIP3   OH254492   5.187   3.574  13.603 -0.2034  0.6100  0.2460
11026TIP3    H154493   5.190   3.563  13.698 -1.2858 -1.1540  0.1035
11026TIP3    H254494   5.104   3.620  13.587 -0.1991  0.5787  0.1339
11027TIP3   OH254495   3.787   5.364   1.736  0.1642 -0.6211 -0.2411
11027TIP3    H154496   3.715   5.414   1.699  1.4425  1.7854  0.4407
11027TIP3    H254497   3.857   5.370   1.672  1.7711  2.0807  1.6516
11028TIP3   OH254498   2.019   0.456   5.928  0.5818 -0.6126  0.0159
11028TIP3    H154499   1.999   0.533   5.981 -0.1797 -0.5704 -0.3381
11028TIP3    H254500   1.936   0.431   5.889  1.3286 -0.0506 -1.9639
11029TIP3   OH254501   6.020   4.095  15.158 -0.0955 -0.2285 -0.2048
11029TIP3    H154502   6.028   4.172  15.102  0.1794  0.0912  0.2706
11029TIP3    H254503   6.043   4.127  15.245  0.5339 -0.9604 -0.0991
11030TIP3   OH254504   6.781   3.315  12.892 -0.1231  0.1285 -0.2919
11030TIP3    H154505   6.687   3.304  12.904 -0.2010  0.2178 -0.8234
11030TIP3    H254506   6.820   3.266  12.965 -0.5409 -1.1725 -0.9276
11031TIP3   OH254507   1.522   3.656  15.802  0.1170 -0.1750  0.3721
11031TIP3    H154508   1.571   3.593  15.856 -0.4865 -0.6461  0.3684
11031TIP3    H254509   1.517   3.735  15.856 -0.2498 -0.5563  0.8970
11032TIP3   OH254510   2.513   5.158  16.122 -0.2549 -0.6297 -0.1549
11032TIP3    H154511   2.489   5.173  16.030  0.5095 -2.0287 -0.6038
11032TIP3    H254512   2.563   5.076  16.120 -1.2651 -1.3230  1.6672
11033TIP3   OH254513   2.748   6.191   2.398  0.2892  0.2185 -0.2489
11033TIP3    H154514   2.792   6.106   2.410 -1.1945 -0.5063  0.1083
11033TIP3    H254515   2.726   6.193   2.305  0.6327  0.3749 -0.3291
11034TIP3   OH254516   4.430   2.943  15.227  0.0444 -0.2053  0.5687
11034TIP3    H154517   4.449   3.019  15.282  0.4741 -0.7804  1.2291
11034TIP3    H254518   4.516   2.912  15.198 -0.1895  0.1962 -0.5750
11035TIP3   OH254519   0.820   3.342   2.985  0.3149 -0.0764 -0.3489
11035TIP3    H154520   0.792   3.391   3.063 -1.2142 -3.3625  1.2754
11035TIP3    H254521   0.765   3.377   2.915 -0.9650  0.3558  0.8337
11036TIP3   OH254522   2.588   4.326   0.319  0.1053  0.2974 -0.1843
11036TIP3    H154523   2.595   4.236   0.286 -0.8548  0.2791 -0.3412
11036TIP3    H254524   2.533   4.371   0.256 -1.8948  0.2164  1.4362
11037TIP3   OH254525   4.070   1.127  12.995 -0.7647  0.0256  0.1553
11037TIP3    H154526   3.979   1.122  13.024 -0.9427  0.4786 -0.3095
11037TIP3    H254527   4.101   1.037  12.995 -1.1023 -0.0929  0.6652
11038TIP3   OH254528   5.447   0.569   6.530  0.3942 -0.5837  0.4428
11038TIP3    H154529   5.370   0.551   6.476  1.0642  2.3734 -1.5988
11038TIP3    H254530   5.411   0.602   6.613 -0.5668 -0.4149 -0.0389
11039TIP3   OH254531   5.709   4.380   2.312  0.2050  0.2651 -0.1181
11039TIP3    H154532   5.793   4.338   2.328  0.6752  1.2275 -0.0372
11039TIP3    H254533   5.723   4.434   2.234 -0.4931  0.0059 -0.4348
11040TIP3   OH254534   0.680   2.405  14.805  0.1636  0.4057  0.4208
11040TIP3    H154535   0.629   2.388  14.726 -1.9948  0.1115  1.8362
11040TIP3    H254536   0.722   2.490  14.789  1.0992 -0.4212 -1.6831
11041TIP3   OH254537   0.785   2.886   5.877 -0.0187 -0.3754  0.3627
11041TIP3    H154538   0.792   2.795   5.906  0.8541 -0.0081  1.3737
11041TIP3    H254539   0.693   2.897   5.852 -0.1927 -1.4467  0.5274
11042TIP3   OH254540   3.673   1.858  10.511 -0.6148 -0.2370  0.1428
11042TIP3    H154541   3.762   1.892  10.511 -0.6789 -0.0659 -0.5482
11042TIP3    H254542   3.683   1.763  10.512 -0.4088 -0.2396 -1.3985
11043TIP3   OH254543   5.251   3.905   2.488 -0.0341  0.0481  0.1902
11043TIP3    H154544   5.227   3.867   2.404 -0.1641 -0.1380  0.3124
11043TIP3    H254545   5.346   3.891   2.495 -0.0927 -0.3156  0.2679
11044TIP3   OH254546   3.902   5.754   0.381  0.1849 -0.5459  0.1378
11044TIP3    H154547   3.961   5.699   0.433  1.9252  0.5013 -0.6935
11044TIP3    H254548   3.940   5.842   0.387 -0.9927  0.0435 -0.8588
11045TIP3   OH254549   4.018   4.594  11.471 -0.4005  1.1825 -0.1449
11045TIP3    H154550   3.941   4.552  11.510  0.8898  0.4224  1.6008
11045TIP3    H254551   4.085   4.591  11.539  0.7777  3.0578 -1.1742
11046TIP3   OH254552   4.513   4.506   0.757  0.2029 -0.0552 -0.8096
11046TIP3    H154553   4.422   4.494   0.732  0.1771 -2.1962  0.2405
11046TIP3    H254554   4.529   4.440   0.824  2.2198  1.0220 -0.1818
11047TIP3   OH254555   5.358   2.088   2.958 -0.1466  0.2701 -0.0980
11047TIP3    H154556   5.299   2.027   2.912  1.1297 -1.4695  0.4952
11047TIP3    H254557   5.388   2.038   3.034  2.4328  0.9661 -0.6282
11048TIP3   OH254558   0.374   2.703   5.543  0.0705 -0.4554 -0.3476
11048TIP3    H154559   0.335   2.771   5.487  1.5693  1.2942  0.6638
11048TIP3    H254560   0.304   2.680   5.604 -0.0305  1.2275  0.1982
11049TIP3   OH254561   3.422   1.713   5.396  0.5932 -0.4799 -0.2287
11049TIP3    H154562   3.434   1.693   5.489  0.7734  0.8332  0.0518
11049TIP3    H254563   3.473   1.647   5.350 -2.2874 -3.3400  0.4407
11050TIP3   OH254564   4.943   5.508  10.341 -0.0001 -0.0575  0.3126
11050TIP3    H154565   4.931   5.583  10.282  1.5850 -0.3339 -0.3901
11050TIP3    H254566   4.855   5.476  10.357 -0.7385  2.0767  0.7734
11051TIP3   OH254567   1.836   5.203  12.087  0.0106  0.0350  0.5709
11051TIP3    H154568   1.802   5.265  12.152 -0.5799 -1.0108  1.2695
11051TIP3    H254569   1.931   5.219  12.085 -0.1191  0.8562  0.8409
11052TIP3   OH254570   5.181   0.805   5.456  0.4015  0.1041  0.2360
11052TIP3    H154571   5.268   0.769   5.438  0.4404  0.6042 -0.5784
11052TIP3    H254572   5.198   0.893   5.489  0.2259 -0.0395  0.7234
11053TIP3   OH254573   4.515   2.352   1.775  0.3411 -0.4242  0.0271
11053TIP3    H154574   4.588   2.292   1.767 -0.5567 -1.6661  1.0361
11053TIP3    H254575   4.554   2.439   1.762  1.9263 -1.0918  0.2130
11054TIP3   OH254576   1.836   1.258   2.289 -0.3220  0.2040  0.1238
11054TIP3    H154577   1.872   1.270   2.377  0.6472 -0.2248 -0.2020
11054TIP3    H254578   1.913   1.259   2.232 -0.3717 -4.2244 -0.2507
11055TIP3   OH254579   4.081   3.484   1.099  0.3346 -0.1213 -0.7619
11055TIP3    H154580   4.064   3.476   1.005 -1.3838  0.3511 -0.5133
11055TIP3    H254581   4.164   3.532   1.105  1.8331 -2.4323 -2.0419
11056TIP3   OH254582   5.577   4.268   5.614 -0.1933 -0.9150  0.1253
11056TIP3    H154583   5.510   4.335   5.602 -1.5006 -1.6586  2.8684
11056TIP3    H254584   5.536   4.187   5.585  0.7630 -0.8500 -1.4798
11057TIP3   OH254585   2.549   4.352   1.456  0.3919  0.7935  0.4144
11057TIP3    H154586   2.594   4.369   1.374 -0.0304 -0.4251 -0.0791
11057TIP3    H254587   2.522   4.438   1.488 -0.6946  1.1452 -1.4338
11058TIP3   OH254588   3.537   6.225   4.056  0.5113 -0.0908 -0.7584
11058TIP3    H154589   3.613   6.237   3.999 -0.3889 -0.6317 -2.1064
11058TIP3    H254590   3.542   6.297   4.119  2.2292 -0.2240 -0.7241
11059TIP3   OH254591   3.937   1.354   1.163 -0.3289 -0.0242  0.4076
11059TIP3    H154592   3.875   1.418   1.198  0.7365  0.7410  0.9154
11059TIP3    H254593   3.892   1.270   1.170 -1.1986  0.4897  1.0367
11060TIP3   OH254594   2.158   1.630  16.660  0.2188  0.4611 -0.3894
11060TIP3    H154595   2.174   1.559  16.598  1.4434  0.9793 -0.6829
11060TIP3    H254596   2.216   1.612  16.733 -0.2285  0.5995  0.0031
11061TIP3   OH254597   0.625   0.338  13.782  0.4528 -0.1562 -0.0841
11061TIP3    H154598   0.561   0.294  13.836  1.7912 -1.2350  0.6546
11061TIP3    H254599   0.576   0.369  13.706 -1.2582  0.5626  1.2866
11062TIP3   OH254600   5.899   1.677   2.489  0.1240 -0.1523 -0.2363
11062TIP3    H154601   5.844   1.738   2.441 -0.4327 -0.3072  0.1967
11062TIP3    H254602   5.979   1.670   2.437  0.4469  1.4206  0.0193
11063TIP3   OH254603   3.275   6.142   5.462 -0.1408  0.2470  0.2703
11063TIP3    H154604   3.259   6.048   5.454  1.8899 -0.1771  0.8328
11063TIP3    H254605   3.301   6.170   5.375 -1.2003  0.3930 -0.0058
11064TIP3   OH254606   1.911   6.424  14.674 -0.1362 -0.5312  0.2377
11064TIP3    H154607   1.827   6.451  14.637  0.5089  0.4922 -0.5344
11064TIP3    H254608   1.900   6.332  14.697 -1.3678 -0.4782 -0.1372
11065TIP3   OH254609   5.879   3.288   0.910 -0.2105 -0.4781 -0.3190
11065TIP3    H154610   5.938   3.219   0.941  1.5710  0.9744 -0.3843
11065TIP3    H254611   5.887   3.357   0.976 -0.0281  0.6924 -1.5590
11066TIP3   OH254612   5.898   2.520   1.772 -0.1325 -0.4658 -0.1218
11066TIP3    H154613   5.841   2.443   1.766 -0.0648 -0.6707  1.5189
11066TIP3    H254614   5.840   2.594   1.758 -0.7829 -0.6837  1.3029
11067TIP3   OH254615   6.780   1.404  13.635  0.4387 -0.4860  0.1791
11067TIP3    H154616   6.720   1.469  13.672  1.2384 -0.1537  0.9182
11067TIP3    H254617   6.742   1.320  13.659  1.3322 -0.2844  2.4903
11068TIP3   OH254618   1.481   4.132  11.886 -0.5979  0.3484 -0.2185
11068TIP3    H154619   1.498   4.057  11.829 -1.1234 -0.6396  0.9077
11068TIP3    H254620   1.538   4.118  11.962 -2.5435 -0.2595  1.1621
11069TIP3   OH254621   2.166   3.701   4.874  0.3110  0.3578  0.8664
11069TIP3    H154622   2.155   3.634   4.941  1.3604  0.5371  1.2249
11069TIP3    H254623   2.087   3.754   4.879  0.7150  0.8240  2.4820
11070TIP3   OH254624   4.203   2.425   0.392 -1.1262  0.7734 -0.2871
11070TIP3    H154625   4.230   2.466   0.310  2.4876 -0.4005  0.2101
11070TIP3    H254626   4.199   2.331   0.372 -2.5059  0.7005  0.2991
11071TIP3   OH254627   5.309   4.425  12.173 -0.2876 -0.5421  0.2206
11071TIP3    H154628   5.337   4.500  12.226  0.3305 -1.3246  0.9950
11071TIP3    H254629   5.299   4.462  12.085 -0.2586  0.5184  0.6485
11072TIP3   OH254630   4.992   1.233  11.096 -0.3308 -0.5593  0.6876
11072TIP3    H154631   5.041   1.288  11.158  0.1148  0.1271 -0.2570
11072TIP3    H254632   5.027   1.145  11.109 -0.9751 -0.6157  2.1430
11073TIP3   OH254633   3.026   5.415  10.745 -0.2929 -0.5464 -0.6473
11073TIP3    H154634   3.100   5.424  10.685 -0.0303  0.5112 -0.1832
11073TIP3    H254635   3.043   5.334  10.793  0.3694 -0.5018 -0.8041
11074TIP3   OH254636   3.508   0.785  13.971  0.0688 -0.0153  0.2544
11074TIP3    H154637   3.460   0.790  13.888  0.4710 -0.7187 -0.0286
11074TIP3    H254638   3.599   0.804  13.947  0.4845 -1.9431  0.2373
11075TIP3   OH254639   2.956   3.794   0.445 -0.5403 -0.0592 -0.9806
11075TIP3    H154640   2.919   3.880   0.421  0.8040  0.9679  0.5358
11075TIP3    H254641   2.930   3.782   0.536  1.6601  0.0452 -0.3221
11076TIP3   OH254642   3.504   6.083  11.152 -0.1109  0.2133  0.0228
11076TIP3    H154643   3.414   6.110  11.140 -0.4047  0.6063  2.6693
11076TIP3    H254644   3.501   6.022  11.227  1.7526  0.0004 -0.0448
11077TIP3   OH254645   3.575   2.571  11.379 -0.0748 -0.1272  0.0798
11077TIP3    H154646   3.531   2.648  11.344 -0.0884  0.1160  0.6279
11077TIP3    H254647   3.668   2.593  11.377  0.0764 -0.8759 -1.6502
11078TIP3   OH254648   1.570   4.544  16.181  0.1780  0.2781  0.2692
11078TIP3    H154649   1.543   4.496  16.103 -0.3260  0.8827  0.0691
11078TIP3    H254650   1.658   4.512  16.199  0.7591  0.9645 -1.2246
11079TIP3   OH254651   0.921   0.408  15.802 -0.0150  0.1353 -0.5946
11079TIP3    H154652   0.959   0.440  15.720 -0.5692 -0.9095 -1.2788
11079TIP3    H254653   0.829   0.435  15.798 -0.1010 -0.1313 -0.4462
11080TIP3   OH254654   3.504   2.121  14.929 -0.3667 -0.3499  0.2481
11080TIP3    H154655   3.432   2.087  14.876  0.5427  0.4478 -1.5384
11080TIP3    H254656   3.575   2.135  14.867  1.2664 -0.8769  1.9289
11081TIP3   OH254657   1.571   2.761   2.629  0.5133 -0.3906  0.2255
11081TIP3    H154658   1.613   2.701   2.690  0.7731 -0.1243  0.3107
11081TIP3    H254659   1.631   2.836   2.624  0.4867 -0.4018 -0.3347
11082TIP3   OH254660   3.106   1.414  15.562  0.0738  0.6833  0.2255
11082TIP3    H154661   3.170   1.363  15.512  0.3716  0.1978  1.0963
11082TIP3    H254662   3.023   1.368  15.547  0.2757  0.1592  0.6977
11083TIP3   OH254663   5.276   5.063   4.752 -0.4113 -0.0206 -0.1381
11083TIP3    H154664   5.336   5.005   4.797 -3.1978 -0.8263  2.7614
11083TIP3    H254665   5.225   5.006   4.694 -0.2292  0.2201 -0.5381
11084TIP3   OH254666   2.327   4.947   4.374 -0.1222  0.0384 -0.2510
11084TIP3    H154667   2.351   4.874   4.317  0.0880 -1.5807  1.8375
11084TIP3    H254668   2.245   4.918   4.415  0.7195  0.3410  1.6800
11085TIP3   OH254669   6.544   3.289   0.609 -0.1681 -0.1595 -0.7144
11085TIP3    H154670   6.579   3.319   0.525 -0.3976 -0.4723 -0.9207
11085TIP3    H254671   6.459   3.250   0.588  0.3879 -1.5129 -0.5409
11086TIP3   OH254672   0.820   4.272  12.290  0.4029  0.6839  0.1874
11086TIP3    H154673   0.868   4.225  12.222  0.1355  0.3867  0.2003
11086TIP3    H254674   0.730   4.275  12.257  0.9814  3.8863 -1.2736
11087TIP3   OH254675   5.396   2.313  16.716  0.1104 -0.3087  1.2264
11087TIP3    H154676   5.448   2.393  16.726  0.1460 -0.2414  0.5387
11087TIP3    H254677   5.335   2.333  16.645 -1.3892 -0.1170  2.5460
11088TIP3   OH254678   4.717   6.672  13.177  0.5778  0.2555 -0.0488
11088TIP3    H154679   4.792   6.614  13.162  0.7023 -0.2654  2.3846
11088TIP3    H254680   4.754   6.760  13.176  1.5041 -0.0566  2.4175
11089TIP3   OH254681   4.506   0.597   0.042  0.2500  0.0682  0.3299
11089TIP3    H154682   4.569   0.528   0.021  0.6861  0.5309  0.1229
11089TIP3    H254683   4.538   0.636   0.123  0.5531  0.6901 -0.0851
11090TIP3   OH254684   1.049   4.247   5.486  0.2692  0.0905 -0.2706
11090TIP3    H154685   1.129   4.297   5.467 -0.5406  1.3080 -0.4699
11090TIP3    H254686   1.003   4.242   5.402  0.0341 -0.4590 -0.1146
11091TIP3   OH254687   0.078   4.980  13.341  0.2669 -0.0711  0.7061
11091TIP3    H154688   0.142   4.928  13.390 -0.4966 -1.1859  0.5459
11091TIP3    H254689  -0.005   4.936  13.356 -0.0101 -0.3836 -1.5125
11092TIP3   OH254690   2.144   3.508  11.183 -0.3108  0.3250  0.3089
11092TIP3    H154691   2.231   3.547  11.190 -0.3093  0.2740  0.5920
11092TIP3    H254692   2.143   3.465  11.098 -0.5626  1.5813 -0.3403
11093TIP3   OH254693   0.349   1.686  14.776 -0.5899  0.0612 -0.3535
11093TIP3    H154694   0.314   1.767  14.813  0.3256  1.0808 -1.6603
11093TIP3    H254695   0.285   1.660  14.710 -1.3051 -0.7523  0.6503
11094TIP3   OH254696   3.833   0.612   3.401 -0.4652 -0.3404 -0.1474
11094TIP3    H154697   3.893   0.561   3.455 -0.7958  0.8191  1.3165
11094TIP3    H254698   3.790   0.546   3.345  0.3458 -1.4573  0.5294
11095TIP3   OH254699   4.404   6.460  12.355 -0.0583  0.6773 -0.9214
11095TIP3    H154700   4.343   6.494  12.290 -0.1180 -0.2509 -1.3502
11095TIP3    H254701   4.364   6.482  12.439 -0.9936  0.0480 -1.1955
11096TIP3   OH254702   5.952   2.781   6.251  0.7977  0.7266 -0.3064
11096TIP3    H154703   6.033   2.751   6.209  0.4204 -0.5838 -0.1357
11096TIP3    H254704   5.980   2.815   6.336  1.1645  0.2116 -0.2177
11097TIP3   OH254705   2.571   0.803   3.733  0.1212 -0.2173  0.3898
11097TIP3    H154706   2.565   0.737   3.803  0.1487 -2.4954 -1.6933
11097TIP3    H254707   2.651   0.852   3.753  0.7851 -1.6349  1.3019
11098TIP3   OH254708   4.942   6.401   3.362 -0.1446  0.1506  0.2835
11098TIP3    H154709   4.900   6.487   3.359 -1.2340 -0.3365  1.2524
11098TIP3    H254710   4.944   6.379   3.455  0.4532 -0.7136  0.0695
11099TIP3   OH254711   4.909   3.138  13.277 -0.3909  0.7406 -0.5648
11099TIP3    H154712   4.841   3.076  13.250 -2.5977  3.1074 -0.6559
11099TIP3    H254713   4.952   3.163  13.196 -1.8920  2.0089 -0.9941
11100TIP3   OH254714   1.399   4.612   1.579 -0.2045  0.3764 -0.3979
11100TIP3    H154715   1.489   4.597   1.607 -1.2735 -1.7652  2.1199
11100TIP3    H254716   1.398   4.585   1.487  1.1253 -2.3401  0.3268
11101TIP3   OH254717   4.904   1.727  15.520 -0.4806  0.2619  0.1911
11101TIP3    H154718   4.846   1.650  15.520 -2.3255  1.5758  3.0408
11101TIP3    H254719   4.845   1.801  15.531  1.5228  1.8962  0.1657
11102TIP3   OH254720   4.648   1.767   3.400  0.4629  0.4873  0.5185
11102TIP3    H154721   4.652   1.694   3.463 -0.2124 -0.1169 -0.1351
11102TIP3    H254722   4.620   1.842   3.453 -0.3588 -0.0765  0.8924
11103TIP3   OH254723   6.408   4.361  17.183  0.4006  0.8726 -0.5325
11103TIP3    H154724   6.350   4.415  17.236 -0.4976 -1.2837  0.7611
11103TIP3    H254725   6.435   4.290  17.241  0.4360 -0.8323 -2.5554
11104TIP3   OH254726   6.470   5.034  16.118 -0.8446 -0.4012 -0.0323
11104TIP3    H154727   6.472   5.059  16.026 -1.3453 -0.7659 -0.1394
11104TIP3    H254728   6.412   4.959  16.121 -0.4640 -0.6741  0.5149
11105TIP3   OH254729   0.800   1.401  14.519  0.2551  0.0669  0.4630
11105TIP3    H154730   0.744   1.423  14.445  2.3554  1.9819 -0.5885
11105TIP3    H254731   0.848   1.323  14.491  0.2167  0.1177  0.2581
11106TIP3   OH254732   0.131   0.749  13.535 -0.0392  0.6271 -0.5815
11106TIP3    H154733   0.055   0.696  13.511  1.0578 -1.4751  0.3428
11106TIP3    H254734   0.171   0.774  13.452  0.3258 -1.4360 -1.0721
11107TIP3   OH254735   2.039   6.156   5.610  0.1668 -0.1930 -0.6159
11107TIP3    H154736   1.984   6.108   5.673  2.2236 -2.2323 -0.3095
11107TIP3    H254737   1.994   6.144   5.526 -1.3828  0.6303  0.0680
11108TIP3   OH254738   6.258   2.223   4.625 -0.4225  0.2834  0.3829
11108TIP3    H154739   6.332   2.184   4.671  0.8282  1.5260 -0.5200
11108TIP3    H254740   6.269   2.317   4.637 -2.1981  0.4630  0.7309
11109TIP3   OH254741   5.945   2.331   1.383  0.2677  0.5239 -0.2512
11109TIP3    H154742   5.989   2.374   1.456 -0.9347  0.4409  0.5257
11109TIP3    H254743   5.852   2.349   1.396  0.0940  1.2605 -2.2434
11110TIP3   OH254744   2.570   5.545  12.127  0.4541  0.5296  0.5607
11110TIP3    H154745   2.538   5.600  12.198  1.1043 -0.0640  1.3299
11110TIP3    H254746   2.651   5.506  12.162 -0.8889 -2.2886  0.7143
11111TIP3   OH254747   3.413   4.562   1.039 -0.1877  0.4432  0.2826
11111TIP3    H154748   3.369   4.479   1.018  0.0754  1.1865 -3.5136
11111TIP3    H254749   3.351   4.609   1.095 -3.1120  0.3353 -2.7534
11112TIP3   OH254750   2.899   0.260  15.155 -0.4919 -0.1407  0.3801
11112TIP3    H154751   2.837   0.231  15.222 -0.7830  0.2894  0.2993
11112TIP3    H254752   2.906   0.186  15.095  0.0914 -0.6883  1.1093
11113TIP3   OH254753   1.919   6.486  15.220  0.3913  0.0128  0.1396
11113TIP3    H154754   1.852   6.467  15.285  0.2472  1.7764  0.5356
11113TIP3    H254755   1.875   6.540  15.154  0.5127 -1.8358 -1.4995
11114TIP3   OH254756   1.962   0.107  13.223  0.0917 -0.7333  0.5020
11114TIP3    H154757   1.934   0.145  13.140 -0.2751 -0.2785  0.8308
11114TIP3    H254758   1.927   0.167  13.289  0.6088 -0.9506  0.9700
11115TIP3   OH254759   1.990   2.576   4.137  0.2928 -0.4998  0.1910
11115TIP3    H154760   1.912   2.535   4.102  0.5668  0.3366 -1.4328
11115TIP3    H254761   1.957   2.648   4.191 -0.0460  0.6534 -1.5206
11116TIP3   OH254762   0.904   2.608   2.094  0.2561 -0.1704 -0.8301
11116TIP3    H154763   0.954   2.528   2.079  0.8543  0.1763 -0.7231
11116TIP3    H254764   0.826   2.580   2.141 -0.2201 -0.8820 -2.0123
11117TIP3   OH254765   2.881   6.379  13.156 -0.5472 -0.2333  0.0763
11117TIP3    H154766   2.931   6.303  13.128 -1.4654 -1.5223  1.9011
11117TIP3    H254767   2.926   6.453  13.115  0.1166 -1.7524 -2.0512
11118TIP3   OH254768   0.146   5.450   5.126  0.3741 -0.6404  0.5040
11118TIP3    H154769   0.164   5.476   5.216  0.8691 -0.0703  0.2417
11118TIP3    H254770   0.125   5.532   5.081 -1.7964 -1.1393  0.5427
11119TIP3   OH254771   4.011   4.652  16.867  0.3947  0.5051  0.0796
11119TIP3    H154772   4.032   4.559  16.877 -0.1547  0.3534 -0.1533
11119TIP3    H254773   3.921   4.660  16.900  1.3083  1.4099  2.4434
11120TIP3   OH254774   5.060   0.618  15.685  0.3173 -0.0128  0.3095
11120TIP3    H154775   4.967   0.641  15.675  0.1184 -0.9415 -0.0384
11120TIP3    H254776   5.061   0.560  15.762  0.1537 -2.5324 -1.5397
11121TIP3   OH254777   6.707   3.024  11.172 -0.2797  0.4131  0.5376
11121TIP3    H154778   6.792   3.038  11.129 -1.1242  0.7704 -1.0454
11121TIP3    H254779   6.666   3.111  11.172 -2.1925 -0.4264 -2.0728
11122TIP3   OH254780   3.231   2.552  14.771  0.0017  0.5938 -0.2814
11122TIP3    H154781   3.208   2.496  14.846  2.5722 -0.5136 -0.2560
11122TIP3    H254782   3.323   2.532  14.755 -0.1684  1.8305 -2.9063
11123TIP3   OH254783   0.249   3.342  16.991 -0.0018 -0.1000  0.0917
11123TIP3    H154784   0.276   3.268  17.046 -2.0422  0.9521  2.6376
11123TIP3    H254785   0.292   3.418  17.030 -1.7643  0.7151  0.4914
11124TIP3   OH254786   3.603   0.185   1.414 -0.0399 -0.2331 -0.2383
11124TIP3    H154787   3.610   0.182   1.509 -0.4415 -1.0668 -0.2247
11124TIP3    H254788   3.689   0.156   1.383  0.3355  0.7673 -0.1336
11125TIP3   OH254789   2.540   0.761  13.985  0.5645 -0.0780  0.0608
11125TIP3    H154790   2.464   0.708  13.960  0.0141  1.3055 -1.3457
11125TIP3    H254791   2.539   0.761  14.081 -0.2929 -1.3666  0.0654
11126TIP3   OH254792   0.906   6.461   0.657  0.4102  0.1483 -0.3038
11126TIP3    H154793   0.931   6.382   0.609  0.6213 -0.1515  0.2981
11126TIP3    H254794   0.855   6.429   0.731  1.4436  0.5084  0.5583
11127TIP3   OH254795   0.986   2.727  14.616  0.2974 -0.3180  0.3050
11127TIP3    H154796   0.982   2.639  14.654 -0.7272  0.1637  1.3624
11127TIP3    H254797   1.043   2.776  14.675  0.8058 -0.2491 -0.2389
11128TIP3   OH254798   4.921   3.206   1.104 -0.6948 -0.5122  0.1231
11128TIP3    H154799   4.921   3.273   1.036  0.4511 -1.3300 -0.7128
11128TIP3    H254800   4.910   3.124   1.056  0.9330 -1.1722  0.8395
11129TIP3   OH254801   0.120   4.453  13.199 -0.7318  0.4184 -0.0395
11129TIP3    H154802   0.205   4.449  13.157 -0.4049 -0.2677  0.6762
11129TIP3    H254803   0.113   4.544  13.230 -1.2945  1.1265 -2.1869
11130TIP3   OH254804   3.681   1.704   2.385  0.1497  0.0396  0.1712
11130TIP3    H154805   3.712   1.617   2.410  1.3694  0.7709  1.2792
11130TIP3    H254806   3.759   1.751   2.357 -0.4174  0.9454  0.0833
11131TIP3   OH254807   1.979   3.639   3.964  0.1150  0.0705  0.0052
11131TIP3    H154808   1.891   3.619   3.994  0.4964  0.3201  1.3116
11131TIP3    H254809   2.008   3.711   4.020  1.5582 -0.7366  0.3110
11132TIP3   OH254810   2.481   3.968  15.484 -0.2964  0.0029 -0.1160
11132TIP3    H154811   2.444   3.958  15.571  1.6306 -1.3509  0.5802
11132TIP3    H254812   2.492   3.878  15.452 -0.1196  0.4635 -1.3774
11133TIP3   OH254813   0.568   3.758  13.495 -0.0577  0.4688  0.0261
11133TIP3    H154814   0.502   3.820  13.462 -0.3588 -0.9178 -2.1408
11133TIP3    H254815   0.525   3.673  13.487  2.1538 -0.5122 -1.9201
11134TIP3   OH254816   1.170   6.264  12.540  0.3995 -0.3931  0.0939
11134TIP3    H154817   1.075   6.276  12.543  0.3964 -0.2079 -0.5935
11134TIP3    H254818   1.205   6.353  12.539  0.6388 -0.4468  1.5684
11135TIP3   OH254819   6.246   4.870   2.801 -0.0938 -0.1929  0.0298
11135TIP3    H154820   6.321   4.813   2.785 -0.6148 -0.6959 -0.6840
11135TIP3    H254821   6.188   4.818   2.856 -1.3286 -1.0125 -1.9968
11136TIP3   OH254822   4.942   1.785  12.857  0.7508  0.0799  0.1638
11136TIP3    H154823   5.032   1.807  12.833  0.6946  0.7800  0.5831
11136TIP3    H254824   4.899   1.764  12.774  0.9368  1.0735 -0.1830
11137TIP3   OH254825   4.305   0.384   5.195 -0.0150  0.0776  0.1323
11137TIP3    H154826   4.400   0.378   5.200  0.1240  0.2844 -1.7435
11137TIP3    H254827   4.288   0.471   5.158 -0.9768  0.4248  1.3438
11138TIP3   OH254828   4.690   4.171  11.673 -0.2930 -0.4883  0.5051
11138TIP3    H154829   4.669   4.238  11.608 -0.1253  0.3018  1.2551
11138TIP3    H254830   4.779   4.193  11.702 -2.1350  2.3037  4.7147
11139TIP3   OH254831   5.656   0.131   4.664  0.0137  0.0471 -0.5726
11139TIP3    H154832   5.578   0.163   4.709  1.1518  1.0864  0.6831
11139TIP3    H254833   5.707   0.209   4.644  1.6016 -0.7551  0.2428
11140TIP3   OH254834   1.574   3.913  15.412  0.3004 -0.1626  0.4301
11140TIP3    H154835   1.627   3.902  15.333 -0.1280 -0.8532  0.2321
11140TIP3    H254836   1.634   3.948  15.477  1.0839 -1.2550  0.3120
11141TIP3   OH254837   6.110   2.899   1.560 -0.3716  0.6813 -0.4856
11141TIP3    H154838   6.138   2.987   1.534 -0.4847  0.6340 -0.7734
11141TIP3    H254839   6.158   2.881   1.640 -2.6374  2.2530  1.2794
11142TIP3   OH254840   2.044   6.031   3.924  0.6815  0.6225 -0.2125
11142TIP3    H154841   1.985   5.956   3.918  0.3615  0.9359 -0.9741
11142TIP3    H254842   2.098   6.025   3.845  2.0220  0.0508  0.7100
11143TIP3   OH254843   2.207   5.290  13.514  0.0523 -0.2162  0.2021
11143TIP3    H154844   2.244   5.366  13.558  0.6024  1.0091 -2.2663
11143TIP3    H254845   2.177   5.324  13.429 -4.8203 -1.5569  1.2121
11144TIP3   OH254846   2.787   4.849   0.626 -0.1481  0.3887 -0.8410
11144TIP3    H154847   2.871   4.803   0.637  0.4648  1.4914 -0.8936
11144TIP3    H254848   2.780   4.863   0.532 -0.6780 -0.2216 -0.8953
11145TIP3   OH254849   5.945   1.177   3.805 -0.0938  0.0078 -0.3784
11145TIP3    H154850   5.949   1.189   3.900 -2.7711  1.3611 -0.3869
11145TIP3    H254851   6.036   1.168   3.778  0.6572 -1.2653  2.4176
11146TIP3   OH254852   5.516   5.905   0.767  0.2009 -0.4663 -0.0624
11146TIP3    H154853   5.562   5.827   0.738  0.0555 -0.5733 -0.0035
11146TIP3    H254854   5.549   5.975   0.711 -0.2944 -0.7230 -0.6730
11147TIP3   OH254855   5.642   0.959   1.938 -0.1514 -0.2774  0.0606
11147TIP3    H154856   5.677   1.034   1.987  1.8483 -1.6897  0.8777
11147TIP3    H254857   5.593   0.909   2.003  1.0584 -1.2437  0.2577
11148TIP3   OH254858   1.787   3.628  13.075  0.5099  0.1053  0.0318
11148TIP3    H154859   1.812   3.562  13.011  0.1385  0.5344 -0.5631
11148TIP3    H254860   1.739   3.694  13.024  0.9803  0.8949  0.5901
11149TIP3   OH254861   4.897   5.848   0.172  0.4105  0.1225 -0.3930
11149TIP3    H154862   4.916   5.927   0.122  0.7089  0.7609  0.7214
11149TIP3    H254863   4.921   5.776   0.113 -1.1778  0.8368 -1.9221
11150TIP3   OH254864   1.195   4.961   3.145  0.3730  0.0864 -0.0972
11150TIP3    H154865   1.133   4.951   3.073  0.8826  0.7856 -0.6517
11150TIP3    H254866   1.162   4.904   3.214 -1.2411  0.9445 -0.1404
11151TIP3   OH254867   1.844   3.130   3.775  0.4308  0.2474 -0.2772
11151TIP3    H154868   1.909   3.189   3.813  0.4224  0.2914 -0.3323
11151TIP3    H254869   1.777   3.188   3.739 -0.7962  0.1890  1.7842
11152TIP3   OH254870   3.549   2.361   3.369 -0.7623  0.3193  0.1322
11152TIP3    H154871   3.568   2.336   3.279 -1.7904 -2.6110  0.6922
11152TIP3    H254872   3.634   2.356   3.414 -0.2997  1.5188 -0.5758
11153TIP3   OH254873   1.200   0.599  15.547  0.4898 -0.0347 -0.4600
11153TIP3    H154874   1.108   0.572  15.548  0.7650 -1.1109 -2.3281
11153TIP3    H254875   1.230   0.585  15.637 -0.6379 -1.6238 -0.3061
11154TIP3   OH254876   4.899   2.307   4.526  0.7942 -0.0760 -0.6068
11154TIP3    H154877   4.963   2.289   4.457  1.3139 -1.2005  0.1592
11154TIP3    H254878   4.945   2.287   4.607 -0.6625 -1.3140 -0.0631
11155TIP3   OH254879   2.288   0.522  11.311  0.1318 -0.0455 -0.5214
11155TIP3    H154880   2.273   0.456  11.242 -1.1026  0.6680 -0.9524
11155TIP3    H254881   2.290   0.471  11.392  1.1835 -0.8500 -1.0411
11156TIP3   OH254882   3.344   0.863   1.282  0.1889  0.3640 -0.3873
11156TIP3    H154883   3.251   0.878   1.299  0.2564  1.0284 -0.6018
11156TIP3    H254884   3.350   0.770   1.262 -0.4411  0.3306 -0.4292
11157TIP3   OH254885   4.774   5.563  12.757  0.5487  0.0633  0.3565
11157TIP3    H154886   4.726   5.582  12.837 -1.2577 -1.3152 -0.3384
11157TIP3    H254887   4.792   5.469  12.761  0.3667 -0.0432 -0.8727
11158TIP3   OH254888   6.282   3.964  15.536  0.0668  0.5640 -0.1592
11158TIP3    H154889   6.310   4.054  15.550  0.0202  0.7029 -0.9851
11158TIP3    H254890   6.198   3.957  15.580  0.6691  0.5645  1.0261
11159TIP3   OH254891   2.956   6.343  16.046 -0.4895  0.0927  0.1178
11159TIP3    H154892   2.865   6.359  16.069 -0.4900  0.3023 -0.0241
11159TIP3    H254893   2.999   6.427  16.061 -0.0730 -0.3522  1.3832
11160TIP3   OH254894   5.954   3.809  12.605  0.3574  0.2028 -0.0848
11160TIP3    H154895   5.982   3.751  12.676 -0.0275 -2.4741 -2.0272
11160TIP3    H254896   5.863   3.831  12.626  0.3739 -0.2605  0.4700
11161TIP3   OH254897   6.748   3.077  16.764  0.2016 -0.3722  0.5197
11161TIP3    H154898   6.793   3.147  16.813 -0.1405 -0.4452  0.9403
11161TIP3    H254899   6.655   3.095  16.778  0.0952 -0.0105 -0.6483
11162TIP3   OH254900   6.299   5.947  16.161 -0.7129  0.4391 -0.1355
11162TIP3    H154901   6.353   5.872  16.135  1.3739  1.6831  0.4934
11162TIP3    H254902   6.297   6.003  16.084  0.1545  1.0968  0.3083
11163TIP3   OH254903   1.999   3.437   3.151  0.1441  0.4470 -0.0307
11163TIP3    H154904   1.975   3.346   3.163 -1.0489  0.4929 -1.8658
11163TIP3    H254905   2.067   3.435   3.084  0.0971  0.9097 -0.0950
11164TIP3   OH254906   2.552   5.614   3.357 -0.1408  0.3963 -0.2843
11164TIP3    H154907   2.625   5.651   3.406  0.2133 -0.8171  0.1341
11164TIP3    H254908   2.587   5.595   3.271 -0.2260  0.7015 -0.3871
11165TIP3   OH254909   1.191   1.396   0.685  0.5649 -0.0354 -0.0045
11165TIP3    H154910   1.281   1.379   0.658  1.1234 -0.6384  2.1238
11165TIP3    H254911   1.159   1.461   0.623  2.2572 -0.3014 -1.1787
11166TIP3   OH254912   1.502   0.985   5.880 -0.1525 -0.1956  0.2589
11166TIP3    H154913   1.483   1.067   5.834  0.4223  0.3094  0.9123
11166TIP3    H254914   1.471   0.917   5.821  0.2774  0.4567 -0.7316
11167TIP3   OH254915   0.682   0.709   5.608  0.5039  0.2253  0.5179
11167TIP3    H154916   0.654   0.754   5.688  0.7162  3.2326 -1.0092
11167TIP3    H254917   0.741   0.771   5.566  1.1758 -1.7330 -1.4860
11168TIP3   OH254918   1.728   2.914  16.200  0.1161 -0.1596 -0.0556
11168TIP3    H154919   1.742   2.920  16.106  0.4724 -1.1509 -0.0758
11168TIP3    H254920   1.761   2.827  16.224 -1.7048 -0.6787  0.6654
11169TIP3   OH254921   3.958   1.430  12.804 -0.0382 -1.0119  0.0352
11169TIP3    H154922   3.908   1.348  12.804  2.6171 -2.7265  0.3990
11169TIP3    H254923   3.996   1.434  12.716 -1.0522  0.4168 -0.3382
11170TIP3   OH254924   5.961   6.757  15.247  0.4733  0.5805 -0.3402
11170TIP3    H154925   5.898   6.737  15.177 -2.2832  0.3723  2.0961
11170TIP3    H254926   5.963   6.852  15.251  0.2620  0.5849 -0.3456
11171TIP3   OH254927   0.585   5.150   3.291 -0.2455  0.0484  0.1437
11171TIP3    H154928   0.527   5.087   3.334 -0.9098  1.3645  1.2176
11171TIP3    H254929   0.565   5.143   3.198 -1.7568  0.1049  0.4628
11172TIP3   OH254930   2.340   4.919   3.827  0.4901  0.3822  0.1673
11172TIP3    H154931   2.366   4.865   3.752  0.2978 -0.8904  0.9984
11172TIP3    H254932   2.246   4.904   3.835  0.4710  0.6958  0.5233
11173TIP3   OH254933   6.316   0.040   3.806 -0.0271 -0.1235  0.2014
11173TIP3    H154934   6.297   0.120   3.856  0.8335 -0.2265  0.7092
11173TIP3    H254935   6.231   0.010   3.776 -0.5791 -0.0661  1.6422
11174TIP3   OH254936   3.493   2.817  14.839  0.5233  0.0393 -0.2132
11174TIP3    H154937   3.577   2.776  14.861  1.3505  2.7499  1.9452
11174TIP3    H254938   3.447   2.824  14.923 -1.6526 -0.8548 -1.2719
11175TIP3   OH254939   3.507   6.073   1.702 -0.5080  0.1229  0.1973
11175TIP3    H154940   3.493   6.051   1.794  0.7347 -0.0844  0.3582
11175TIP3    H254941   3.582   6.132   1.704 -1.3680  1.2497 -0.5708
11176TIP3   OH254942   5.754   1.391  12.796  0.2412  0.0830 -0.0013
11176TIP3    H154943   5.821   1.340  12.752 -0.5303 -0.6795 -0.3002
11176TIP3    H254944   5.753   1.475  12.750  0.1998 -0.3171 -0.7430
11177TIP3   OH254945   3.625   1.949   3.341  0.6180 -0.2675 -0.4812
11177TIP3    H154946   3.689   2.014   3.313  0.1896 -0.8056 -2.8266
11177TIP3    H254947   3.540   1.992   3.330  0.3411 -1.1439 -1.9063
11178TIP3   OH254948   4.750   1.310   1.333 -0.2287  0.1604  0.0669
11178TIP3    H154949   4.714   1.242   1.276 -1.0278  0.6685 -0.0462
11178TIP3    H254950   4.703   1.389   1.308  1.1558  0.9032 -0.2691
11179TIP3   OH254951   1.494   4.368   6.402 -0.1168  0.1740  0.1335
11179TIP3    H154952   1.537   4.401   6.481  0.0895 -1.4441  0.7104
11179TIP3    H254953   1.566   4.342   6.344 -0.3008 -0.2052  0.0795
11180TIP3   OH254954   1.781   1.740   2.086 -0.3996 -0.0289 -0.3441
11180TIP3    H154955   1.796   1.757   1.993 -0.9999  0.7506 -0.3071
11180TIP3    H254956   1.789   1.826   2.128  0.5826 -0.4894  0.4236
11181TIP3   OH254957   6.089   3.677   0.396 -0.1004  0.2279  0.4930
11181TIP3    H154958   6.118   3.608   0.337  1.1829  0.8552  0.3759
11181TIP3    H254959   6.040   3.632   0.464 -0.8891 -0.5938 -0.5917
11182TIP3   OH254960   2.933   2.371  14.778  0.0116 -0.2912  0.2564
11182TIP3    H154961   2.935   2.315  14.856 -0.5216 -0.3427  0.2326
11182TIP3    H254962   2.957   2.458  14.809 -1.4272 -0.0452  0.7008
11183TIP3   OH254963   3.724   6.280   4.804  0.6582  0.3148 -0.1580
11183TIP3    H154964   3.699   6.372   4.810  0.3193  0.3345 -1.6488
11183TIP3    H254965   3.793   6.269   4.870 -0.7322  1.1262  1.4454
11184TIP3   OH254966   1.729   2.181   1.389 -0.0055  0.0876  0.1877
11184TIP3    H154967   1.757   2.190   1.480 -0.2089  0.7323  0.1868
11184TIP3    H254968   1.795   2.124   1.349  0.2334  0.0290  0.6678
11185TIP3   OH254969   0.976   0.573   5.344  0.2869 -0.1395  0.5548
11185TIP3    H154970   0.963   0.484   5.311 -2.4979  0.8378 -1.1836
11185TIP3    H254971   0.916   0.579   5.418  0.2995  0.3573  0.5241
11186TIP3   OH254972   2.196   0.743   1.831  0.4392  0.4882  0.3295
11186TIP3    H154973   2.233   0.726   1.917 -0.1331 -0.3234  0.4211
11186TIP3    H254974   2.253   0.809   1.793  2.9838 -1.8752 -0.1571
11187TIP3   OH254975   1.685   3.804   5.256 -0.0137 -0.5882  0.2995
11187TIP3    H154976   1.713   3.887   5.295  0.5561 -0.8373  0.4293
11187TIP3    H254977   1.590   3.808   5.257  0.0016  0.4998 -0.6276
11188TIP3   OH254978   5.167   3.097   4.081  0.4064  0.0448  0.6429
11188TIP3    H154979   5.158   3.003   4.066  1.8903 -0.1168  0.7221
11188TIP3    H254980   5.114   3.138   4.012  1.8211 -0.8084 -0.9940
11189TIP3   OH254981   0.968   5.018   2.439 -0.1208  0.4121  0.0633
11189TIP3    H154982   0.987   5.002   2.531 -1.0945  0.0028  0.1965
11189TIP3    H254983   0.878   4.988   2.427  0.2775 -0.3042 -1.2205
11190TIP3   OH254984   3.768   3.047   4.449 -0.4484  0.4666 -0.2125
11190TIP3    H154985   3.780   3.093   4.532 -0.3555 -1.5231  0.8921
11190TIP3    H254986   3.855   3.045   4.410  0.0186 -0.9155  0.8828
11191TIP3   OH254987   0.436   2.871   1.952  0.4413  0.2412 -0.1506
11191TIP3    H154988   0.383   2.791   1.954  1.1541 -0.2261 -0.0452
11191TIP3    H254989   0.385   2.932   1.899 -0.8955  0.2743  1.1281
11192TIP3   OH254990   6.378   2.892  13.232 -0.5540 -0.3665 -0.1056
11192TIP3    H154991   6.350   2.803  13.253 -2.3777 -0.0125 -0.9479
11192TIP3    H254992   6.323   2.918  13.158  2.5757  0.0738 -2.3776
11193TIP3   OH254993   1.571   4.496   4.129 -0.2154  0.0702  0.1998
11193TIP3    H154994   1.502   4.499   4.063  0.3003  0.5348 -0.3267
11193TIP3    H254995   1.651   4.482   4.079  0.2718  1.1943  0.6578
11194TIP3   OH254996   3.028   6.229  13.873  0.0846  0.1880  0.4705
11194TIP3    H154997   3.057   6.138  13.869 -1.5978 -0.3435 -0.1770
11194TIP3    H254998   3.025   6.251  13.966  0.7315 -0.3493  0.6131
11195TIP3   OH254999   3.864   0.775   2.466 -0.3209 -0.1891 -0.4716
11195TIP3    H155000   3.896   0.687   2.486 -0.4022 -0.3758 -1.1524
11195TIP3    H255001   3.815   0.801   2.544  1.9785  0.3437  0.8434
11196TIP3   OH255002   3.765   5.979   4.695  0.1845  0.4639  0.2167
11196TIP3    H155003   3.711   6.043   4.648  1.7554  1.6709  0.0089
11196TIP3    H255004   3.767   6.011   4.785  0.6989  0.5260  0.1834
11197TIP3   OH255005   0.347   5.076  15.823 -0.3313  0.0831  0.1073
11197TIP3    H155006   0.435   5.077  15.862 -0.5634  0.4513  0.6270
11197TIP3    H255007   0.288   5.088  15.898 -0.8845 -1.3820 -0.0748
11198TIP3   OH255008   2.441   3.169  12.807 -0.0841  0.2008 -0.4436
11198TIP3    H155009   2.384   3.200  12.737 -0.6642  3.0373  1.1774
11198TIP3    H255010   2.520   3.223  12.800  0.6873 -0.8651 -0.1277
11199TIP3   OH255011   1.374   0.123   1.885  0.1180 -0.8398 -0.1588
11199TIP3    H155012   1.465   0.137   1.858  0.1918 -1.4322 -0.2244
11199TIP3    H255013   1.336   0.211   1.888  0.5572 -0.6311 -0.6187
11200TIP3   OH255014   5.664   0.952  14.296 -0.2250  0.2561 -0.6641
11200TIP3    H155015   5.579   0.932  14.257  0.4421 -1.0167 -1.5232
11200TIP3    H255016   5.659   0.919  14.385 -0.1575 -1.1400 -1.1594
11201TIP3   OH255017   5.744   6.098   0.072  0.3368 -0.2844 -0.0354
11201TIP3    H155018   5.747   6.182   0.026 -1.5603  0.4765  1.1675
11201TIP3    H255019   5.671   6.051   0.032 -0.5988 -0.0770  1.3954
11202TIP3   OH255020   3.593   1.652  13.960 -0.2530 -0.2576  0.1074
11202TIP3    H155021   3.529   1.618  13.897  0.8413  0.0380 -1.1786
11202TIP3    H255022   3.672   1.600  13.944 -0.4890 -1.4489  2.5051
11203TIP3   OH255023   3.946   6.751   0.654 -0.1291 -0.3230 -0.4741
11203TIP3    H155024   3.950   6.835   0.608  1.5489 -1.1579 -1.9102
11203TIP3    H255025   4.033   6.739   0.690 -1.0082 -0.3991  1.7224
11204TIP3   OH255026   3.004   6.100  11.247  0.2578 -0.5490  0.3523
11204TIP3    H155027   2.953   6.033  11.292 -0.9966  0.9977  1.3232
11204TIP3    H255028   2.941   6.140  11.186  0.9276 -0.1337 -0.0716
11205TIP3   OH255029   5.007   5.701  15.707  0.1738  0.0154  0.4365
11205TIP3    H155030   4.966   5.714  15.792 -1.9710  0.3857 -0.6354
11205TIP3    H255031   5.004   5.788  15.665 -1.3792 -0.7582 -1.1299
11206TIP3   OH255032   1.673   3.402   0.723  0.0449  0.1602  0.4828
11206TIP3    H155033   1.600   3.407   0.785  0.7769 -1.0015  1.4596
11206TIP3    H255034   1.732   3.472   0.750 -1.2232  1.8409 -1.0139
11207TIP3   OH255035   0.952   0.093   2.502  0.1757  0.3805  0.5117
11207TIP3    H155036   0.965   0.184   2.475 -3.6849  0.7595 -0.3572
11207TIP3    H255037   0.960   0.042   2.421 -2.6230  0.5579  0.0671
11208TIP3   OH255038   5.111   0.800   0.390 -0.2833 -0.0048  0.1354
11208TIP3    H155039   5.045   0.823   0.455 -0.1399  1.5045 -0.2470
11208TIP3    H255040   5.061   0.768   0.315 -0.6562  2.1716 -0.5748
11209TIP3   OH255041   0.153   5.301  13.674 -0.0626 -0.0539 -0.0123
11209TIP3    H155042   0.120   5.366  13.736  1.7592  1.2289 -0.3575
11209TIP3    H255043   0.088   5.298  13.604 -1.6117 -0.7390  1.4254
11210TIP3   OH255044   3.246   2.954   5.976 -0.2287 -0.0523 -0.1427
11210TIP3    H155045   3.226   2.951   5.883 -1.6818 -0.8490  0.1698
11210TIP3    H255046   3.206   3.035   6.006  1.5551  0.9651 -0.4905
11211TIP3   OH255047   5.782   6.680   4.146 -0.2109  0.2276  0.1929
11211TIP3    H155048   5.768   6.736   4.222  0.6807 -2.1335  2.1784
11211TIP3    H255049   5.707   6.620   4.146  0.3154 -0.4510 -0.1602
11212TIP3   OH255050   2.654   5.989  11.506 -0.5582 -0.2629 -0.1593
11212TIP3    H155051   2.636   6.083  11.505 -2.7523 -0.6464 -0.4451
11212TIP3    H255052   2.631   5.960  11.418  0.9760 -0.9332 -0.3493
11213TIP3   OH255053   1.051   4.043   1.448  0.1416  0.8610 -0.1710
11213TIP3    H155054   1.016   4.056   1.536  0.0966 -0.7187  0.0715
11213TIP3    H255055   1.144   4.025   1.461 -0.1104 -0.6022 -0.3306
11214TIP3   OH255056   4.113   3.625  13.297 -0.5361  0.2617  0.4681
11214TIP3    H155057   4.144   3.688  13.362 -0.2610  0.1743  0.4215
11214TIP3    H255058   4.029   3.594  13.332  1.3833 -2.6069  2.6927
11215TIP3   OH255059   0.434   0.725   4.975 -0.2453  0.0515 -0.8143
11215TIP3    H155060   0.392   0.758   5.054  0.8254  0.7091 -0.5103
11215TIP3    H255061   0.526   0.751   4.983  0.7218 -3.2417 -0.4204
11216TIP3   OH255062   0.695   5.968  11.831  0.4227  0.0957 -0.1700
11216TIP3    H155063   0.788   5.970  11.853  0.7793  0.2996 -1.6342
11216TIP3    H255064   0.683   5.888  11.780 -0.3489 -0.2948  0.6122
11217TIP3   OH255065   3.739   0.197  13.002 -0.6038  0.0006  0.1223
11217TIP3    H155066   3.692   0.167  13.080 -0.3689  1.5878  0.9029
11217TIP3    H255067   3.768   0.116  12.959  0.0583 -0.9029  2.1690
11218TIP3   OH255068   4.977   1.125  10.555 -0.1666 -1.0769  0.5672
11218TIP3    H155069   5.050   1.187  10.550 -1.3342  0.2149 -1.0760
11218TIP3    H255070   4.936   1.143  10.640 -0.6671  0.6563 -0.0095
11219TIP3   OH255071   5.733   3.380  13.009  0.1613 -0.2314  0.3006
11219TIP3    H155072   5.698   3.469  13.017  0.5245 -0.0193 -0.4132
11219TIP3    H255073   5.657   3.325  12.993 -0.1491 -0.1537  1.4381
11220TIP3   OH255074   5.018   4.167  14.283  0.0261  0.0842 -0.1827
11220TIP3    H155075   4.970   4.241  14.319  0.7153  0.6682 -0.4508
11220TIP3    H255076   4.962   4.134  14.212 -1.2641 -0.9760  1.2887
11221TIP3   OH255077   1.780   4.012  15.576  0.0464  0.1948 -0.5079
11221TIP3    H155078   1.812   4.066  15.504 -0.8965  1.1834 -0.1868
11221TIP3    H255079   1.845   3.941  15.583  0.7102  0.6799 -1.6213
11222TIP3   OH255080   3.343   4.791  16.413  0.9549 -0.7157 -0.6015
11222TIP3    H155081   3.304   4.732  16.477  0.0551  0.1266 -0.3568
11222TIP3    H255082   3.373   4.866  16.464 -2.5474  1.3853 -1.4591
11223TIP3   OH255083   5.317   1.196  13.901  0.2390 -0.1751  0.1514
11223TIP3    H155084   5.395   1.226  13.855 -1.1129  0.4542 -1.8090
11223TIP3    H255085   5.338   1.108  13.930  2.1756  0.4950  0.9011
11224TIP3   OH255086   4.309   5.078   5.521  0.3586  0.2947 -0.7396
11224TIP3    H155087   4.381   5.021   5.547  0.5533 -0.3591 -2.6510
11224TIP3    H255088   4.313   5.080   5.426 -1.7353  0.7972 -0.8453
11225TIP3   OH255089   0.010   4.965   3.806 -0.2392 -0.6248 -0.3970
11225TIP3    H155090  -0.064   5.006   3.760 -0.1686  0.3622  0.3706
11225TIP3    H255091   0.018   4.879   3.764 -1.8804 -0.7857 -0.4245
11226TIP3   OH255092   1.465   6.469  11.199  0.0732 -0.7364  0.2950
11226TIP3    H155093   1.384   6.507  11.232  0.6217  0.9208 -0.2218
11226TIP3    H255094   1.521   6.544  11.180  1.5755 -1.8435  0.2397
11227TIP3   OH255095   5.386   1.734  11.946  0.8964 -0.0772 -0.3147
11227TIP3    H155096   5.333   1.760  11.871  1.8568  0.7883 -0.7080
11227TIP3    H255097   5.436   1.658  11.916  0.9323 -0.0215 -0.3951
11228TIP3   OH255098   6.482   6.134   1.401  0.1675 -0.1610 -0.1017
11228TIP3    H155099   6.412   6.085   1.443  1.3845 -0.5510  1.5504
11228TIP3    H255100   6.558   6.121   1.458  1.9571 -0.9020 -2.5519
11229TIP3   OH255101   4.315   5.880   4.897 -0.1898  0.1163  0.3310
11229TIP3    H155102   4.266   5.933   4.834  0.0734 -0.2011 -0.1393
11229TIP3    H255103   4.331   5.940   4.971  1.3543  1.1369 -0.8061
11230TIP3   OH255104   4.886   3.484  13.954  0.5274  0.3037 -0.0002
11230TIP3    H155105   4.876   3.574  13.923 -0.6884  0.1536 -0.0436
11230TIP3    H255106   4.804   3.441  13.930  1.4222 -1.0360 -0.7100
11231TIP3   OH255107   3.793   3.872   2.454  0.6264 -0.2340  0.7192
11231TIP3    H155108   3.746   3.819   2.518  0.4415 -1.1366 -0.1487
11231TIP3    H255109   3.748   3.956   2.454  0.1736 -0.4765  1.2378
11232TIP3   OH255110   6.403   4.393  16.456  0.0637 -0.0475  0.3387
11232TIP3    H155111   6.448   4.415  16.374 -1.2605  2.0917  0.1310
11232TIP3    H255112   6.473   4.392  16.522  1.3670 -3.1708 -0.9762
11233TIP3   OH255113   0.235   1.229   5.014 -0.2148 -1.0718 -0.2385
11233TIP3    H155114   0.294   1.297   4.982  0.6821 -1.2489  1.0146
11233TIP3    H255115   0.152   1.247   4.969 -0.4381  1.7694  1.1726
11234TIP3   OH255116   0.840   2.969  15.707 -0.0015  0.2010 -0.2719
11234TIP3    H155117   0.866   2.980  15.799  2.1954 -0.9891 -0.7292
11234TIP3    H255118   0.861   3.053  15.666 -1.5920  0.9688  0.4068
11235TIP3   OH255119   1.303   6.591  13.125 -0.4368  0.4963  0.4282
11235TIP3    H155120   1.277   6.650  13.196  2.4096  0.9722  1.1693
11235TIP3    H255121   1.318   6.649  13.050  1.6028  0.6856  0.9407
11236TIP3   OH255122   0.766   6.643  12.920  0.1144  0.0047 -0.1975
11236TIP3    H155123   0.711   6.661  12.996  1.1992 -0.8572  0.8161
11236TIP3    H255124   0.719   6.682  12.846 -1.3790  0.0861  0.7801
11237TIP3   OH255125   0.633   4.466   5.478 -0.2717 -0.5021  0.4488
11237TIP3    H155126   0.557   4.497   5.527  1.6053  1.2499  2.3560
11237TIP3    H255127   0.656   4.540   5.422  0.6009 -0.6618  0.5933
11238TIP3   OH255128   5.710   5.105   0.882 -0.6957 -0.5748 -0.2486
11238TIP3    H155129   5.767   5.091   0.806  0.2920  0.3851  0.2833
11238TIP3    H255130   5.755   5.059   0.953 -0.2857  0.6377  0.2922
11239TIP3   OH255131   5.620   3.292   0.449 -0.0765  0.0357  0.1453
11239TIP3    H155132   5.683   3.302   0.521  0.1166  0.2666 -0.0553
11239TIP3    H255133   5.600   3.382   0.422 -1.9279  0.0282  1.4444
11240TIP3   OH255134   0.972   3.313  14.039  0.5443  0.4030  0.3501
11240TIP3    H155135   0.997   3.405  14.045  0.6985  0.2878  1.4917
11240TIP3    H255136   0.958   3.298  13.945  2.5895  1.0425 -0.0749
11241TIP3   OH255137   3.264   0.020   4.119 -0.1646 -0.8348 -0.0509
11241TIP3    H155138   3.262  -0.063   4.167  0.6211  0.0228  1.5360
11241TIP3    H255139   3.183   0.064   4.145  1.0280  0.3352  1.8709
11242TIP3   OH255140   6.536   2.635  13.053 -0.0762 -0.1951  0.2638
11242TIP3    H155141   6.614   2.582  13.036 -0.6511 -2.2896  3.7184
11242TIP3    H255142   6.562   2.724  13.030  2.6020 -1.1890 -0.7354
11243TIP3   OH255143   1.688   6.782  17.048  0.3793  0.7623  0.3182
11243TIP3    H155144   1.640   6.702  17.029 -0.9852  1.4263  0.9477
11243TIP3    H255145   1.686   6.791  17.143  2.8374  0.1469  0.4809
11244TIP3   OH255146   5.003   1.214  16.877 -0.1357  0.0881  0.5248
11244TIP3    H155147   4.927   1.222  16.934  0.3407  1.3125  1.0303
11244TIP3    H255148   5.029   1.305  16.860  2.0281 -0.3177  1.5065
11245TIP3   OH255149   0.010   4.104   5.369  0.1048  0.1068  0.2889
11245TIP3    H155150  -0.018   4.021   5.407 -0.4086  0.7355  1.3094
11245TIP3    H255151  -0.057   4.124   5.302 -1.1487  0.8988  1.7381
11246TIP3   OH255152   4.199   4.728  11.071  0.3940 -0.2157  0.4403
11246TIP3    H155153   4.205   4.639  11.036  0.8342  0.5802 -1.5830
11246TIP3    H255154   4.199   4.784  10.994  1.0103  1.6001  1.7239
11247TIP3   OH255155   6.731   1.193  12.381 -0.1365 -0.0781 -0.2154
11247TIP3    H155156   6.724   1.245  12.461 -0.9976  0.3193 -0.5445
11247TIP3    H255157   6.682   1.242  12.315 -0.3178 -0.9166 -0.7234
11248TIP3   OH255158   4.218   4.914   4.942  0.4824  0.1810 -0.2072
11248TIP3    H155159   4.145   4.968   4.973  0.3955  0.9355 -1.6941
11248TIP3    H255160   4.176   4.845   4.891  0.8093  0.6591 -1.1289
11249TIP3   OH255161   2.486   4.331   1.739  0.0170  0.5850  0.2161
11249TIP3    H155162   2.474   4.382   1.659  0.9519  0.2152 -0.1722
11249TIP3    H255163   2.408   4.276   1.745 -0.8449  1.8102  0.4642
11250TIP3   OH255164   5.987   5.737  13.874  0.0378  0.3476 -0.1576
11250TIP3    H155165   5.894   5.760  13.871 -0.2528 -0.8406 -0.7865
11250TIP3    H255166   5.993   5.669  13.941  0.2472 -0.4182 -0.9381
11251TIP3   OH255167   6.738   6.481   4.846 -0.1691 -0.1705  0.9612
11251TIP3    H155168   6.775   6.563   4.878 -0.0713 -0.4363  1.5389
11251TIP3    H255169   6.727   6.494   4.752 -1.7909  1.1147  1.3132
11252TIP3   OH255170   3.139   5.227  13.387 -0.4672  0.2221 -0.0207
11252TIP3    H155171   3.048   5.234  13.416 -0.2834 -2.1802  1.2414
11252TIP3    H255172   3.153   5.306  13.336 -2.7150  1.5262  1.2733
11253TIP3   OH255173   5.038   4.174   0.389 -0.4174  0.8360  0.3055
11253TIP3    H155174   5.111   4.232   0.412  1.8873 -2.0443  0.5715
11253TIP3    H255175   5.013   4.201   0.301  0.5671  2.2804  0.4405
11254TIP3   OH255176   4.309   4.550  14.743  0.2050 -0.6475 -0.3388
11254TIP3    H155177   4.255   4.488  14.693 -0.8107  1.0505 -1.4153
11254TIP3    H255178   4.308   4.629  14.690  0.9392  0.4985  1.3418
11255TIP3   OH255179   2.273   2.755   4.056  0.1946  0.1323 -0.3382
11255TIP3    H155180   2.289   2.665   4.027 -2.5393 -0.8447  1.0187
11255TIP3    H255181   2.315   2.809   3.990  1.4183 -2.1408 -1.4734
11256TIP3   OH255182   4.460   3.257  12.732  0.2712 -0.4436 -0.1127
11256TIP3    H155183   4.425   3.246  12.643 -0.1306  2.4174 -0.3759
11256TIP3    H255184   4.383   3.248  12.788  0.3045 -0.9606 -0.1433
11257TIP3   OH255185   1.547   3.306  12.353  0.0791  0.4744  0.5751
11257TIP3    H155186   1.549   3.212  12.336 -2.7038  0.1113  2.0324
11257TIP3    H255187   1.564   3.346  12.268 -1.2036 -1.3317 -0.5680
11258TIP3   OH255188   3.299   5.455  16.874  0.0536 -0.4691 -0.3647
11258TIP3    H155189   3.263   5.377  16.832 -1.3427 -0.5399  0.9313
11258TIP3    H255190   3.342   5.422  16.953 -2.1647  0.2271  1.1905
11259TIP3   OH255191   2.602   3.858   5.773  0.0498  0.5479 -0.5663
11259TIP3    H155192   2.534   3.924   5.762 -0.3653 -0.1621 -2.4786
11259TIP3    H255193   2.664   3.898   5.835 -0.6449  2.3630 -0.9952
11260TIP3   OH255194   0.843   0.973   1.749  0.9819  0.2590 -0.2113
11260TIP3    H155195   0.836   1.034   1.822 -0.6669  1.9537 -1.7297
11260TIP3    H255196   0.920   0.920   1.769  1.1183  1.3234  2.2583
11261TIP3   OH255197   4.375   5.357   2.836 -0.1951 -0.2383  0.0479
11261TIP3    H155198   4.455   5.368   2.783 -0.8763 -0.6444 -1.0769
11261TIP3    H255199   4.403   5.379   2.925  1.4520 -1.5178 -0.1321
11262TIP3   OH255200   5.437   3.679  15.305 -0.0337  0.3735  0.7812
11262TIP3    H155201   5.390   3.743  15.252 -0.0711 -0.7460 -0.5594
11262TIP3    H255202   5.510   3.651  15.250  0.3674 -0.2502  1.6184
11263TIP3   OH255203   3.710   0.862   5.208 -0.3456 -0.4623  0.0310
11263TIP3    H155204   3.674   0.950   5.207 -1.5723 -0.9492 -2.7617
11263TIP3    H255205   3.689   0.829   5.296  0.2016  2.0021  1.1323
11264TIP3   OH255206   4.044   5.992   0.438  0.4679  0.7169  0.5025
11264TIP3    H155207   4.036   6.049   0.362 -0.4761 -2.1016 -1.5902
11264TIP3    H255208   4.137   5.995   0.461  1.1177  0.2095 -1.9053
11265TIP3   OH255209   5.569   0.834   2.964  0.2727 -0.8062  0.0300
11265TIP3    H155210   5.626   0.909   2.949 -0.4344  0.0949  1.6846
11265TIP3    H255211   5.483   0.872   2.982 -0.3745 -2.0600 -0.3306
11266TIP3   OH255212   6.043   6.113   4.323 -0.1434 -1.0657 -0.0851
11266TIP3    H155213   5.960   6.157   4.301  0.7772  1.7925  1.8686
11266TIP3    H255214   6.016   6.036   4.372 -1.7072 -0.7135 -0.3463
11267TIP3   OH255215   0.082   4.466   2.968  0.1737  0.2346  0.7557
11267TIP3    H155216   0.132   4.506   3.038  4.0181 -0.2235 -1.5878
11267TIP3    H255217   0.124   4.497   2.887 -1.9289 -1.9786 -1.2829
11268TIP3   OH255218   0.287   1.327  12.457 -0.2393  0.0003 -0.4625
11268TIP3    H155219   0.219   1.325  12.525 -0.6303 -1.3836 -0.8657
11268TIP3    H255220   0.356   1.381  12.494 -1.0047  0.3331  0.5084
11269TIP3   OH255221   3.273   2.647  12.357 -0.6745  0.0571  0.6230
11269TIP3    H155222   3.326   2.628  12.434 -1.3781  0.0964  1.1237
11269TIP3    H255223   3.312   2.726  12.320  1.6205 -1.7169 -0.8745
11270TIP3   OH255224   0.990   6.121   4.182 -0.4000 -0.1345  0.6902
11270TIP3    H155225   0.899   6.118   4.209 -0.8140 -0.2036 -0.6919
11270TIP3    H255226   0.998   6.202   4.133  0.4422  0.1835  1.3361
11271TIP3   OH255227   2.899   2.729   0.322  0.3669 -0.3284  0.0558
11271TIP3    H155228   2.891   2.740   0.416 -1.1787 -1.2433  0.0540
11271TIP3    H255229   2.885   2.635   0.307  0.1009 -0.1159 -1.1206
11272TIP3   OH255230   5.146   0.169  11.933 -0.2253 -0.0490 -0.1797
11272TIP3    H155231   5.104   0.103  11.877  0.1174  0.0638 -0.5765
11272TIP3    H255232   5.183   0.118  12.005 -0.5897 -0.2101 -0.1087
11273TIP3   OH255233   5.597   5.544  11.435 -0.4419  0.4288  0.3854
11273TIP3    H155234   5.649   5.515  11.361  0.2495  2.0902  0.1899
11273TIP3    H255235   5.630   5.495  11.510  0.1801  0.1727 -0.0617
11274TIP3   OH255236   6.023   3.637   5.277 -0.4671  0.2230  0.2008
11274TIP3    H155237   6.023   3.718   5.328  0.4006  2.4985 -3.3182
11274TIP3    H255238   5.930   3.611   5.274 -1.1223  2.5379 -0.8485
11275TIP3   OH255239   0.347   2.343   4.398  0.0560 -0.7761  0.0288
11275TIP3    H155240   0.431   2.388   4.393  1.1114 -2.8045 -1.2397
11275TIP3    H255241   0.341   2.293   4.317 -3.0281  0.3807 -0.5317
11276TIP3   OH255242   2.757   2.318  17.093  0.0496 -0.0709 -0.2564
11276TIP3    H155243   2.669   2.345  17.069 -0.4189 -1.9634 -0.7392
11276TIP3    H255244   2.786   2.263  17.020  1.0336 -0.7310  0.6096
11277TIP3   OH255245   4.411   3.385  16.469  0.1530  0.1268 -0.3871
11277TIP3    H155246   4.334   3.400  16.413  1.5297 -0.1312 -2.3994
11277TIP3    H255247   4.466   3.462  16.455  1.7815 -1.2231 -1.5562
11278TIP3   OH255248   6.469   1.703   3.575 -0.0003 -0.4228 -0.1844
11278TIP3    H155249   6.543   1.664   3.528 -0.2702 -1.5778  0.3251
11278TIP3    H255250   6.394   1.649   3.551 -0.1010 -1.1879  1.7504
11279TIP3   OH255251   6.376   4.189   0.179 -0.0238  0.4640 -0.1985
11279TIP3    H155252   6.455   4.137   0.167  0.3966  0.7872  1.0164
11279TIP3    H255253   6.342   4.161   0.264  0.2764  2.2384  0.5275
11280TIP3   OH255254   4.131   1.581  13.907  0.2703 -0.4107  0.4026
11280TIP3    H155255   4.216   1.595  13.946  0.3118 -0.2995  0.2765
11280TIP3    H255256   4.093   1.669  13.899  0.3279 -0.4172  0.0526
11281TIP3   OH255257   4.420   0.781   0.630 -0.1035  0.3512 -0.0133
11281TIP3    H155258   4.349   0.717   0.623 -0.1000  0.2615  0.7099
11281TIP3    H255259   4.425   0.800   0.724  1.0457  0.1185 -0.0280
11282TIP3   OH255260   3.440   4.687  15.395 -0.3919 -0.6771 -0.0112
11282TIP3    H155261   3.433   4.628  15.320 -0.8560 -2.0880  1.1111
11282TIP3    H255262   3.420   4.773  15.360  1.6025 -0.9479 -1.9810
11283TIP3   OH255263   0.786   5.646  14.571 -0.5143  0.6205  0.2967
11283TIP3    H155264   0.717   5.672  14.632  0.5447  1.5262  1.1328
11283TIP3    H255265   0.832   5.728  14.551 -1.0610  0.4088 -1.9970
11284TIP3   OH255266   1.081   1.921  13.580 -0.1353  0.0430 -0.0775
11284TIP3    H155267   1.121   1.868  13.649  0.0628 -1.1665 -1.1135
11284TIP3    H255268   1.156   1.964  13.538 -0.1487 -0.2004 -0.3490
11285TIP3   OH255269   4.944   5.103  15.930  0.3765  0.0101  0.5426
11285TIP3    H155270   4.852   5.097  15.905  1.1599  0.1194 -2.5264
11285TIP3    H255271   4.968   5.013  15.956 -0.3736 -0.1902  0.5470
11286TIP3   OH255272   3.730   0.058  14.711  0.0670 -0.0023  0.3949
11286TIP3    H155273   3.797   0.069  14.778 -0.0476  1.1053  0.3444
11286TIP3    H255274   3.700  -0.032  14.721  1.6442 -0.5404  0.3336
11287TIP3   OH255275   3.704   2.634   1.305 -0.0858  0.2541 -0.4921
11287TIP3    H155276   3.800   2.635   1.303 -0.0750 -0.0614 -0.0617
11287TIP3    H255277   3.679   2.723   1.280  0.3309  0.5333  0.0630
11288TIP3   OH255278   5.236   5.726   3.909 -0.2145  0.2603  0.0797
11288TIP3    H155279   5.202   5.746   3.996 -0.3993  2.0128 -0.3838
11288TIP3    H255280   5.329   5.709   3.924 -0.1893  0.8055  0.5984
11289TIP3   OH255281   4.965   4.544   0.892  0.1931  0.0177  0.4746
11289TIP3    H155282   4.990   4.620   0.945  0.0528 -0.8581  1.8383
11289TIP3    H255283   4.887   4.510   0.935 -0.9737  0.3165 -1.3583
11290TIP3   OH255284   1.720   5.671   3.402 -0.3600 -0.8140  0.0400
11290TIP3    H155285   1.782   5.712   3.342  1.1337 -0.6665  1.6400
11290TIP3    H255286   1.765   5.671   3.487 -1.7255 -2.5894  0.8044
11291TIP3   OH255287   5.113   5.982  12.181 -0.5793 -0.5825  0.2802
11291TIP3    H155288   5.135   5.905  12.232 -0.3831 -0.3008  0.6223
11291TIP3    H255289   5.028   5.962  12.142  1.0549 -2.4176 -2.4904
11292TIP3   OH255290   3.279   2.054   1.578  0.2532 -0.5850 -0.6231
11292TIP3    H155291   3.328   2.003   1.643  0.3193 -1.9859 -1.7283
11292TIP3    H255292   3.340   2.122   1.550  0.2236  0.0298  0.7601
11293TIP3   OH255293   1.911   2.518   2.903 -0.2350  0.3385  0.7682
11293TIP3    H155294   1.983   2.563   2.860 -0.3399  0.8399  1.1092
11293TIP3    H255295   1.946   2.496   2.990  0.2223 -1.3000  0.1991
11294TIP3   OH255296   2.495   5.119  16.402  0.0188 -0.2803  0.1337
11294TIP3    H155297   2.496   5.114  16.306 -0.6980 -1.3222  0.1756
11294TIP3    H255298   2.560   5.055  16.431  0.6051  0.4021  0.3363
11295TIP3   OH255299   5.220   6.386   2.005 -0.4778 -0.2924  0.3906
11295TIP3    H155300   5.309   6.404   1.977 -0.6677 -0.9858 -0.7100
11295TIP3    H255301   5.211   6.291   1.998 -0.7448 -0.4113  2.2309
11296TIP3   OH255302   4.443   1.081  15.936  0.0015 -0.0882  0.3834
11296TIP3    H155303   4.447   1.078  15.841 -0.0908  1.1663  0.3301
11296TIP3    H255304   4.510   1.144  15.961 -2.2851  2.2114  0.9395
11297TIP3   OH255305   1.615   3.222  11.514 -0.2433  0.3214  0.0395
11297TIP3    H155306   1.526   3.242  11.485  0.8983  2.5902 -2.0562
11297TIP3    H255307   1.671   3.286  11.469  2.4921 -1.2316  1.0632
11298TIP3   OH255308   0.123   5.871   5.541  0.1800 -0.3790 -0.4284
11298TIP3    H155309   0.206   5.826   5.556 -0.1752 -0.4563  1.4185
11298TIP3    H255310   0.144   5.940   5.478  0.8207 -2.7811 -2.9196
11299TIP3   OH255311   6.774   5.206   4.306  0.2328 -0.4468 -0.1655
11299TIP3    H155312   6.799   5.113   4.299  0.4748 -0.3885 -0.0912
11299TIP3    H255313   6.681   5.205   4.328 -0.0084 -0.6657 -1.1600
11300TIP3   OH255314   5.297   2.889  14.166  0.5605  0.1690  0.2096
11300TIP3    H155315   5.315   2.882  14.072  0.8896 -2.6152  0.4455
11300TIP3    H255316   5.208   2.923  14.170 -0.2652 -1.7249 -1.1722
11301TIP3   OH255317   1.768   1.351  13.715  0.5352 -0.7574 -0.4486
11301TIP3    H155318   1.720   1.367  13.634 -0.4018 -1.6230 -0.0665
11301TIP3    H255319   1.706   1.305  13.771  1.1744 -0.1394  0.7764
11302TIP3   OH255320   0.219   5.008   5.501 -0.3579  0.5883 -0.3839
11302TIP3    H155321   0.177   4.971   5.578  0.5217 -0.2158 -0.2926
11302TIP3    H255322   0.156   5.072   5.468 -1.7960 -0.8161 -0.4192
11303TIP3   OH255323   2.328   3.246  13.639  0.0713  0.3448  0.1781
11303TIP3    H155324   2.269   3.194  13.694 -0.7864  1.1021 -0.0141
11303TIP3    H255325   2.364   3.183  13.577 -0.4131 -0.1541  0.3969
11304TIP3   OH255326   1.936   2.714  10.797 -0.4630  1.0001 -0.2179
11304TIP3    H155327   1.998   2.693  10.867 -0.9599  0.5316  0.0914
11304TIP3    H255328   1.990   2.722  10.718  0.1445  1.8979  0.2880
11305TIP3   OH255329   4.258   1.488  16.511  0.0700  0.1382  0.0703
11305TIP3    H155330   4.241   1.448  16.596 -1.4519  3.2717  1.3068
11305TIP3    H255331   4.352   1.476  16.498 -0.3176 -3.7652  0.3519
11306TIP3   OH255332   4.569   6.448  14.139  0.4819 -0.8202  0.4064
11306TIP3    H155333   4.530   6.533  14.155 -0.1695 -1.1687  0.6691
11306TIP3    H255334   4.662   6.467  14.127  0.7307 -0.3319  2.7933
11307TIP3   OH255335   1.464   5.242   5.239 -0.6478  0.6841 -0.1281
11307TIP3    H155336   1.474   5.178   5.310  1.4809  1.0957 -0.0560
11307TIP3    H255337   1.371   5.235   5.215 -0.7153 -1.5983  0.6643
11308TIP3   OH255338   1.792   2.421   0.145 -0.4852 -0.1696 -0.1000
11308TIP3    H155339   1.823   2.480   0.213 -0.3308 -0.4753  0.0943
11308TIP3    H255340   1.871   2.393   0.099 -0.6456  0.5482 -0.8265
11309TIP3   OH255341   2.147   0.692   1.255 -0.1310  0.1659  0.4231
11309TIP3    H155342   2.061   0.709   1.293  0.5471  1.6481  1.3453
11309TIP3    H255343   2.175   0.610   1.295 -0.0626  0.9571  2.0649
11310TIP3   OH255344   5.836   6.100  12.437 -0.4094  0.8035 -0.0241
11310TIP3    H155345   5.775   6.039  12.395  0.2439 -0.3434  0.6786
11310TIP3    H255346   5.891   6.131  12.365 -1.0753  0.9673 -0.4708
11311TIP3   OH255347   2.513   2.132  11.712  0.0328 -0.1350 -0.9563
11311TIP3    H155348   2.592   2.180  11.686  0.7381 -0.7143  0.0490
11311TIP3    H255349   2.460   2.128  11.633  1.1543  0.0091 -1.7343
11312TIP3   OH255350   6.246   4.214  16.330 -0.1797 -0.2704  0.1852
11312TIP3    H155351   6.164   4.252  16.298  1.3773  2.4840 -0.6699
11312TIP3    H255352   6.278   4.275  16.396  0.8777 -1.6679  1.0183
11313TIP3   OH255353   0.084   6.201  14.253 -0.0265 -0.4581 -0.4463
11313TIP3    H155354   0.006   6.255  14.265  0.2125 -0.3104  0.4257
11313TIP3    H255355   0.121   6.231  14.169 -0.2207  0.3198 -0.2550
11314TIP3   OH255356   6.100   2.317  15.298  0.7115 -0.1201 -0.1223
11314TIP3    H155357   6.107   2.413  15.296 -1.8506  0.0956 -0.8174
11314TIP3    H255358   6.164   2.290  15.364  0.9544  2.1266  0.6292
11315TIP3   OH255359   0.811   5.484   3.105  0.2563  0.0255  0.1885
11315TIP3    H155360   0.864   5.405   3.096 -2.6989 -1.8703 -1.1806
11315TIP3    H255361   0.757   5.468   3.182 -0.6624  0.5169 -0.3482
11316TIP3   OH255362   0.414   1.273  11.310  0.4092 -0.1235 -0.2076
11316TIP3    H155363   0.352   1.292  11.381  0.2413  0.4831 -0.5127
11316TIP3    H255364   0.364   1.288  11.230  0.7252 -0.3845 -0.4525
11317TIP3   OH255365   2.406   5.159  15.321 -0.0235 -0.1531 -0.4629
11317TIP3    H155366   2.366   5.200  15.244  0.4236  2.2086  0.5302
11317TIP3    H255367   2.484   5.116  15.287 -2.1993 -3.0200 -2.0598
11318TIP3   OH255368   2.326   4.474   4.450  0.5108 -0.0474 -0.3402
11318TIP3    H155369   2.298   4.445   4.537  1.9106  0.2001  0.2023
11318TIP3    H255370   2.254   4.530   4.420 -0.4013 -0.8697  0.2583
11319TIP3   OH255371   4.116   3.672   4.526  0.5197 -0.3660  0.1900
11319TIP3    H155372   4.150   3.601   4.580  0.9539  0.3917  0.9351
11319TIP3    H255373   4.144   3.651   4.438  1.2761 -0.7476  0.5177
11320TIP3   OH255374   0.182   5.428   0.840  0.4729  0.2037  0.2001
11320TIP3    H155375   0.142   5.476   0.768  1.0206  0.6170  0.1679
11320TIP3    H255376   0.114   5.422   0.907  0.4433  1.1298  0.2486
11321TIP3   OH255377   4.318   1.087  13.180  0.1648  0.2440  0.3192
11321TIP3    H155378   4.307   1.004  13.135  1.2565 -1.0175  2.3356
11321TIP3    H255379   4.401   1.121  13.149  0.0870  0.2036  0.0718
11322TIP3   OH255380   5.919   2.616   5.591 -0.3676 -0.3843 -0.0647
11322TIP3    H155381   5.884   2.573   5.669 -0.8628 -1.3165 -0.7901
11322TIP3    H255382   5.894   2.558   5.519  1.2772 -0.2296 -0.7646
11323TIP3   OH255383   2.869   0.008  14.667 -0.1377 -0.3459 -0.1554
11323TIP3    H155384   2.928  -0.045  14.614 -0.3529 -0.3663 -0.3720
11323TIP3    H255385   2.833   0.072  14.606 -0.9223 -0.8095 -0.1830
11324TIP3   OH255386   4.764   3.814  11.755 -0.0022 -0.7291  1.1098
11324TIP3    H155387   4.781   3.729  11.715  1.0920  0.9105 -2.0700
11324TIP3    H255388   4.670   3.816  11.770 -0.9712 -0.4055 -4.0736
11325TIP3   OH255389   3.376   2.756   2.067 -0.3018  0.4791 -0.2759
11325TIP3    H155390   3.403   2.808   1.991 -0.1155  0.6654 -0.0831
11325TIP3    H255391   3.345   2.674   2.030 -3.0123  1.6702 -0.7888
11326TIP3   OH255392   4.022   0.555   1.920 -0.3156 -0.2897  0.4063
11326TIP3    H155393   3.990   0.551   2.011 -0.3514  0.5573  0.4384
11326TIP3    H255394   3.948   0.525   1.867  0.1232 -2.0297  0.7261
11327TIP3   OH255395   2.835   6.623   5.116  0.6456  0.5243 -0.6888
11327TIP3    H155396   2.819   6.615   5.022 -0.0854  0.7460 -0.5873
11327TIP3    H255397   2.840   6.533   5.147 -0.2538  0.4404 -0.7606
11328TIP3   OH255398   3.505   0.444   1.970  1.2400 -0.4889  0.0656
11328TIP3    H155399   3.430   0.470   2.024  2.2924 -1.4227  2.0627
11328TIP3    H255400   3.539   0.526   1.935 -0.5259 -0.0285 -0.6001
11329TIP3   OH255401   4.765   0.760   4.052 -0.4302  0.1591 -0.2460
11329TIP3    H155402   4.760   0.688   4.115  1.9675  0.2972  0.1540
11329TIP3    H255403   4.789   0.719   3.969 -2.0985  0.1532 -0.7372
11330TIP3   OH255404   3.551   0.331  15.034  0.3102  0.7339  0.2279
11330TIP3    H155405   3.502   0.390  14.977 -1.2923 -0.7547 -0.0003
11330TIP3    H255406   3.493   0.318  15.109  0.5013 -0.7642  0.1343
11331TIP3   OH255407   2.977   6.759  12.998  0.2021 -0.2139 -0.0258
11331TIP3    H155408   2.882   6.762  12.985  0.3041 -1.7073 -1.1502
11331TIP3    H255409   3.003   6.851  13.002 -1.2979  0.2081  0.3599
11332TIP3   OH255410   1.931   0.809   0.806 -0.2789  0.3634 -0.5817
11332TIP3    H155411   1.869   0.880   0.819 -0.4172 -0.0563  1.1521
11332TIP3    H255412   1.993   0.817   0.878 -1.4296 -2.4155  0.8099
11333TIP3   OH255413   1.794   4.905  15.776 -0.4314  0.4061 -0.0524
11333TIP3    H155414   1.880   4.942  15.757 -0.2514  0.4767  0.8873
11333TIP3    H255415   1.777   4.847  15.702  1.9259 -2.2277  1.3624
11334TIP3   OH255416   5.362   4.615   0.614 -0.1598  0.3484 -0.0652
11334TIP3    H155417   5.364   4.519   0.620 -0.3276  0.3487 -0.0201
11334TIP3    H255418   5.454   4.641   0.620 -0.1406  0.2090  0.2412
11335TIP3   OH255419   2.246   4.570   4.079  0.2802  0.0220 -0.0889
11335TIP3    H155420   2.277   4.660   4.089  0.1488  0.0622 -0.0389
11335TIP3    H255421   2.184   4.558   4.151  1.4494 -0.6220  0.8277
11336TIP3   OH255422   4.253   4.128   1.928 -0.1950 -0.2173 -0.5634
11336TIP3    H155423   4.262   4.176   1.846  0.3530  1.1355  0.2596
11336TIP3    H255424   4.242   4.037   1.902  0.5743  0.1175 -2.1194
11337TIP3   OH255425   5.265   5.983  14.739 -0.1508 -0.0817 -0.5676
11337TIP3    H155426   5.310   5.974  14.822  0.3034  0.4243 -0.7532
11337TIP3    H255427   5.229   6.072  14.741 -0.1216 -0.0601 -0.9135
11338TIP3   OH255428   2.744   3.082   2.397 -0.4011 -0.1879 -0.1460
11338TIP3    H155429   2.686   3.072   2.473 -0.5886 -2.6944 -0.5608
11338TIP3    H255430   2.690   3.055   2.322 -0.0281  1.6867 -1.1160
11339TIP3   OH255431   6.465   3.908  14.179 -0.8612  0.1767  0.4379
11339TIP3    H155432   6.493   3.849  14.249  0.0065 -0.4768 -0.4555
11339TIP3    H255433   6.483   3.861  14.098  0.2270  1.8282 -0.3153
11340TIP3   OH255434   5.546   3.464  16.000 -0.2129 -0.1282 -0.5668
11340TIP3    H155435   5.530   3.466  16.095 -0.4913  0.8191 -0.6387
11340TIP3    H255436   5.590   3.546  15.981  0.2528 -0.5198 -1.1932
11341TIP3   OH255437   4.713   0.081  14.688  1.1065  0.0885 -0.0470
11341TIP3    H155438   4.691   0.174  14.679  0.9789  0.1328  0.6792
11341TIP3    H255439   4.718   0.067  14.783  2.4179 -0.3395 -0.1632
11342TIP3   OH255440   3.745   2.693  12.651  0.4242 -0.0589 -0.2245
11342TIP3    H155441   3.690   2.618  12.673  0.7732 -0.2811 -0.1038
11342TIP3    H255442   3.773   2.728  12.736  0.3857  0.1165 -0.2821
11343TIP3   OH255443   6.319   0.387  12.893  0.0452  0.7405 -0.3307
11343TIP3    H155444   6.271   0.442  12.831 -1.4779 -0.4043 -0.2056
11343TIP3    H255445   6.301   0.297  12.864 -0.6738  0.1892  1.7372
11344TIP3   OH255446   3.047   3.410  13.701  0.3709 -0.0555  0.1293
11344TIP3    H155447   2.983   3.419  13.630 -0.2475  1.9758  0.8898
11344TIP3    H255448   3.117   3.470  13.677 -0.1306  1.1301  1.4935
11345TIP3   OH255449   3.283   3.619  16.180 -0.4627  0.5695  0.4483
11345TIP3    H155450   3.363   3.599  16.228 -0.8956 -0.4217  0.7835
11345TIP3    H255451   3.241   3.689  16.230 -0.6361 -0.0779  1.2174
11346TIP3   OH255452   6.003   0.666   1.241 -0.0963  0.2854  0.2561
11346TIP3    H155453   5.974   0.647   1.151  2.2547 -0.0576 -0.4608
11346TIP3    H255454   5.922   0.668   1.292 -1.4733  0.3697 -1.8463
11347TIP3   OH255455   2.178   0.819  15.784 -0.3439  0.0182  0.1713
11347TIP3    H155456   2.270   0.815  15.812 -0.2760 -0.2944 -0.0955
11347TIP3    H255457   2.140   0.738  15.818 -0.0903 -0.7117 -1.2618
11348TIP3   OH255458   4.687   4.082   1.459  0.0928 -0.3247  1.1177
11348TIP3    H155459   4.752   4.053   1.522 -0.7878 -1.6095  1.4639
11348TIP3    H255460   4.607   4.095   1.511 -1.1443 -3.1741  0.0295
11349TIP3   OH255461   5.797   5.350  14.445 -0.6210 -0.1321 -0.1638
11349TIP3    H155462   5.774   5.413  14.514 -1.4566 -0.4122 -0.1785
11349TIP3    H255463   5.816   5.404  14.369 -0.5315  0.1416  0.0508
11350TIP3   OH255464   5.603   5.654   0.201  0.1936 -0.3627 -0.1687
11350TIP3    H155465   5.684   5.615   0.168 -1.0357 -2.6333 -0.6388
11350TIP3    H255466   5.606   5.640   0.295  1.7599  2.3575  0.2273
11351TIP3   OH255467   6.048   4.774  11.588  0.3753  0.1370  0.4588
11351TIP3    H155468   5.968   4.768  11.640 -0.1895 -0.6739 -0.4896
11351TIP3    H255469   6.070   4.683  11.567  1.4118  0.3704  0.5014
11352TIP3   OH255470   3.403   4.017   1.555  0.3509 -0.6733 -0.5821
11352TIP3    H155471   3.318   4.004   1.513  0.5350 -0.5392 -1.0041
11352TIP3    H255472   3.413   4.112   1.558 -1.1830 -0.5359  2.8762
11353TIP3   OH255473   4.759   2.873   5.688 -0.3192  0.0114 -0.6649
11353TIP3    H155474   4.753   2.965   5.712  1.6229 -0.8488  3.4006
11353TIP3    H255475   4.842   2.865   5.642  0.5079 -0.0414  0.8056
11354TIP3   OH255476   0.276   1.771   5.052  0.0154 -0.5252 -0.0383
11354TIP3    H155477   0.216   1.783   5.126  1.4874  1.0280  0.9192
11354TIP3    H255478   0.219   1.739   4.981 -1.6738 -0.5641  1.2853
11355TIP3   OH255479   3.818   0.409   5.000 -0.2111  0.5311 -0.7754
11355TIP3    H155480   3.823   0.501   5.027  2.3531  0.8126 -2.0197
11355TIP3    H255481   3.801   0.412   4.905 -0.9274 -0.2870 -0.6805
11356TIP3   OH255482   6.393   0.450  15.952 -0.2828  0.2148 -0.2533
11356TIP3    H155483   6.453   0.406  15.893  0.3444 -0.0731  0.5887
11356TIP3    H255484   6.412   0.543  15.941  0.7601  0.0965  0.4662
11357TIP3   OH255485   1.800   5.764  12.009  0.1576  0.7215 -0.2999
11357TIP3    H155486   1.795   5.831  11.940 -0.9792  0.4037 -0.5391
11357TIP3    H255487   1.832   5.686  11.964 -3.1513 -0.2700 -1.1138
11358TIP3   OH255488   4.868   1.202   4.185 -0.2714  0.0113  0.2162
11358TIP3    H155489   4.935   1.150   4.229  0.4802 -0.5311 -1.5538
11358TIP3    H255490   4.820   1.140   4.130 -1.0210  0.7301  0.0285
11359TIP3   OH255491   6.184   3.967   1.073  0.0763  0.8632 -0.1347
11359TIP3    H155492   6.147   3.966   1.161 -0.6131 -0.7836 -0.4229
11359TIP3    H255493   6.201   4.060   1.055 -0.8661  1.3234  1.2657
11360TIP3   OH255494   3.558   6.699   2.325 -0.0168 -0.4549  0.1236
11360TIP3    H155495   3.556   6.672   2.233  1.8226 -0.1750 -0.0223
11360TIP3    H255496   3.556   6.795   2.321 -3.5190 -0.4554  0.5311
11361TIP3   OH255497   1.138   2.692   0.323 -1.2719  0.0443 -0.4242
11361TIP3    H155498   1.206   2.636   0.286 -1.5323 -1.3850  1.2246
11361TIP3    H255499   1.147   2.775   0.275  0.2225 -0.8207 -1.6962
11362TIP3   OH255500   4.071   4.512   2.209  0.1276  0.1086  0.4701
11362TIP3    H155501   4.053   4.418   2.205 -1.4333  0.4237 -0.1175
11362TIP3    H255502   4.018   4.550   2.139 -0.0139  1.5478  1.3357
11363TIP3   OH255503   3.222   2.867   1.773  0.2422  0.3201 -0.1547
11363TIP3    H155504   3.142   2.877   1.721 -0.3025  0.1141  0.6417
11363TIP3    H255505   3.276   2.808   1.721 -1.1022 -1.4743  0.4282
11364TIP3   OH255506   6.314   1.325   1.394  0.2908  0.1097  0.2016
11364TIP3    H155507   6.381   1.393   1.403  1.1258 -0.5344 -0.9914
11364TIP3    H255508   6.327   1.268   1.470  3.0744 -1.6873 -1.5027
11365TIP3   OH255509   6.239   5.547  11.088 -0.2805 -0.0356 -0.1810
11365TIP3    H155510   6.267   5.612  11.152 -0.4908  0.3454 -0.4750
11365TIP3    H255511   6.146   5.566  11.073 -0.2382 -0.1441 -0.5753
11366TIP3   OH255512   2.400   0.278  14.478 -0.7957 -0.1407  0.6859
11366TIP3    H155513   2.430   0.333  14.406  1.1359 -0.6764  1.0529
11366TIP3    H255514   2.423   0.189  14.452  1.5331 -0.1858  2.6786
11367TIP3   OH255515   2.269   1.333   1.516 -0.2764 -0.2945  0.3145
11367TIP3    H155516   2.353   1.334   1.562  1.2814 -0.6302 -2.4147
11367TIP3    H255517   2.245   1.425   1.507  0.7825 -0.0903 -0.5748
11368TIP3   OH255518   1.488   5.125   4.491  0.4091  0.1733  0.4199
11368TIP3    H155519   1.397   5.136   4.516  1.0100  0.3115  2.6309
11368TIP3    H255520   1.485   5.106   4.397 -1.8358  0.8138  0.3306
11369TIP3   OH255521   2.631   4.990   3.805  0.1343  0.2324  0.5638
11369TIP3    H155522   2.642   5.055   3.874  2.0714 -0.8644  1.3222
11369TIP3    H255523   2.554   4.940   3.831  2.0041 -1.4766  3.0628
11370TIP3   OH255524   2.174   4.311  12.686 -0.5834  0.7045  0.0578
11370TIP3    H155525   2.220   4.387  12.651 -0.7449 -0.3343 -2.5232
11370TIP3    H255526   2.087   4.344  12.710 -0.1011  1.6753  0.4690
11371TIP3   OH255527   5.840   3.672  16.608  0.1285  0.3527 -0.1210
11371TIP3    H155528   5.933   3.658  16.589  0.2860 -0.5927  1.2941
11371TIP3    H255529   5.836   3.763  16.638  0.5247  0.5290 -0.5874
11372TIP3   OH255530   3.505   4.281  12.834 -0.3815  0.1174 -0.5169
11372TIP3    H155531   3.573   4.334  12.875 -0.7194  1.1156 -1.2380
11372TIP3    H255532   3.550   4.237  12.761  0.0140 -0.9826  0.3762
11373TIP3   OH255533   1.526   1.635   1.796 -0.3463  0.2601 -0.3264
11373TIP3    H155534   1.487   1.705   1.848 -0.7643  0.3412 -0.7508
11373TIP3    H255535   1.572   1.681   1.725  0.5678  0.1684  0.2071
11374TIP3   OH255536   6.362   0.290  13.192 -0.6797 -0.2372  0.2983
11374TIP3    H155537   6.292   0.314  13.131  0.2476  0.7175 -0.3962
11374TIP3    H255538   6.316   0.273  13.274 -1.7535  0.2711 -0.1840
11375TIP3   OH255539   2.011   3.070   3.273  0.1493  0.0734  0.5767
11375TIP3    H155540   1.923   3.095   3.300  0.2504  0.5654  0.4622
11375TIP3    H255541   2.003   3.047   3.181  0.3627  1.2675  0.2571
11376TIP3   OH255542   5.344   0.631  16.191 -0.2267 -0.3037 -0.2332
11376TIP3    H155543   5.274   0.578  16.154 -0.7607  0.0954  0.2084
11376TIP3    H255544   5.422   0.606  16.141 -0.6600 -0.8153 -0.6529
11377TIP3   OH255545   5.625   3.747   3.620  0.0446 -0.0471 -0.1158
11377TIP3    H155546   5.647   3.790   3.702  0.5933  0.3609 -0.4770
11377TIP3    H255547   5.648   3.655   3.633 -0.2368 -0.0551  0.3211
11378TIP3   OH255548   3.774   4.318  13.668 -0.3903 -0.0629  0.3914
11378TIP3    H155549   3.773   4.244  13.607 -1.8846 -0.5246  0.9644
11378TIP3    H255550   3.856   4.308  13.717 -0.0626 -0.7133 -0.2924
11379TIP3   OH255551   2.494   2.569   0.080  0.3432  0.9139 -1.3151
11379TIP3    H155552   2.497   2.664   0.096  0.6383  0.9379 -1.5151
11379TIP3    H255553   2.585   2.542   0.077  0.2331  0.3148  0.5082
11380TIP3   OH255554   1.377   4.226   1.321  0.0178 -0.4716 -0.8033
11380TIP3    H155555   1.329   4.175   1.257 -0.4370  1.2965 -1.9162
11380TIP3    H255556   1.437   4.280   1.269 -1.3595  2.0381  0.1017
11381TIP3   OH255557   0.746   3.520   1.465  0.0802  0.4228 -0.4910
11381TIP3    H155558   0.792   3.583   1.410 -0.1577  0.3164 -0.8198
11381TIP3    H255559   0.814   3.461   1.496 -0.0395 -0.7630 -2.3666
11382TIP3   OH255560   6.136   0.431   5.154  0.8170 -0.1397 -0.6346
11382TIP3    H155561   6.076   0.463   5.086  0.6553 -1.1133 -0.9573
11382TIP3    H255562   6.223   0.442   5.116  0.6318 -2.4790 -1.7826
11383TIP3   OH255563   4.776   1.024  15.976  0.3991 -0.1213  0.0761
11383TIP3    H155564   4.759   0.958  15.910  1.1153  0.5600 -0.8065
11383TIP3    H255565   4.824   1.092  15.929 -0.3821  1.0526  0.9452
11384TIP3   OH255566   6.608   6.336  11.963  0.1621 -0.0486 -0.6316
11384TIP3    H155567   6.592   6.297  12.049 -0.4082 -0.7184 -1.0334
11384TIP3    H255568   6.635   6.263  11.907  0.2779  0.3334 -1.0858
11385TIP3   OH255569   3.592   2.139  14.516 -0.0462  0.2000  0.0880
11385TIP3    H155570   3.542   2.129  14.435  1.1419  0.3471 -0.6844
11385TIP3    H255571   3.655   2.067  14.513  1.1430  1.2245  0.0274
11386TIP3   OH255572   0.833   1.483   5.527 -0.0758 -0.5386  0.0150
11386TIP3    H155573   0.873   1.408   5.572  0.7190 -1.1034 -1.5793
11386TIP3    H255574   0.903   1.547   5.519 -0.5283  0.0288  0.6279
11387TIP3   OH255575   4.197   5.351   4.350 -0.9532 -0.3961  0.1715
11387TIP3    H155576   4.266   5.368   4.286  0.8615 -1.3440  1.8160
11387TIP3    H255577   4.186   5.256   4.348 -1.8720 -0.2927  0.2845
11388TIP3   OH255578   1.515   1.781  15.912  0.1459  0.3167  0.6638
11388TIP3    H155579   1.509   1.876  15.927 -0.1362  0.5345 -0.7099
11388TIP3    H255580   1.587   1.772  15.849 -0.0355 -0.3470  0.5527
11389TIP3   OH255581   0.054   2.224   3.730  0.5734 -0.2606 -0.7012
11389TIP3    H155582   0.142   2.248   3.759  0.0955 -1.5812  1.9987
11389TIP3    H255583   0.039   2.138   3.769 -0.3823 -1.9002 -4.5085
11390TIP3   OH255584   0.447   2.047   5.715 -0.3783  0.1366  0.4359
11390TIP3    H155585   0.502   1.969   5.719  0.4911  0.7096 -0.2419
11390TIP3    H255586   0.396   2.044   5.796  0.3161 -0.6415  0.8574
11391TIP3   OH255587   2.297   0.174  15.069 -0.6111 -0.2172 -0.3174
11391TIP3    H155588   2.353   0.099  15.088  0.8137  0.8071 -0.4197
11391TIP3    H255589   2.305   0.187  14.974 -0.1296  0.6175 -0.1688
11392TIP3   OH255590   6.529   3.329   1.387 -0.0175  0.0755  0.2411
11392TIP3    H155591   6.620   3.307   1.368  0.1250  1.2057 -0.4373
11392TIP3    H255592   6.519   3.312   1.480  0.6584 -0.8309  0.1576
11393TIP3   OH255593   0.996   3.901   1.166  0.0289  0.4483 -0.3775
11393TIP3    H155594   0.906   3.879   1.142 -0.3667  0.9256  0.6389
11393TIP3    H255595   0.992   3.919   1.260  1.5302 -1.3293  0.0541
11394TIP3   OH255596   2.227   3.118  14.037  0.4692 -0.0552 -0.4707
11394TIP3    H155597   2.189   3.145  14.121 -2.1633  1.6988 -2.1846
11394TIP3    H255598   2.281   3.192  14.010  1.9526 -0.9388  0.0300
11395TIP3   OH255599   1.985   4.657  16.194  0.4397  0.1967  0.3505
11395TIP3    H155600   1.973   4.752  16.185  0.4760 -0.0814 -3.1835
11395TIP3    H255601   1.918   4.619  16.137  1.2124 -1.9034  0.8004
11396TIP3   OH255602   6.034   1.815   1.238 -0.2065 -0.3130  0.4916
11396TIP3    H155603   6.008   1.813   1.146 -0.4315 -1.1335  0.5736
11396TIP3    H255604   5.965   1.768   1.284 -0.7669  1.2000  1.2536
11397TIP3   OH255605   0.360   5.879  14.991  0.6092 -0.0125  0.2668
11397TIP3    H155606   0.417   5.851  14.920 -1.2217 -2.0626 -0.4790
11397TIP3    H255607   0.281   5.825  14.981 -0.0228  0.2179  3.3663
11398TIP3   OH255608   3.112   6.656   4.801 -0.0970 -0.2044 -0.3430
11398TIP3    H155609   3.077   6.745   4.799 -1.0831 -0.5735  0.1114
11398TIP3    H255610   3.166   6.650   4.722  1.1085  1.2417  0.3447
11399TIP3   OH255611   6.585   3.468   4.904 -0.5501  0.9630 -0.1010
11399TIP3    H155612   6.658   3.521   4.936  0.3750 -1.5923  2.1259
11399TIP3    H255613   6.528   3.458   4.980 -1.0671 -0.6244 -0.6898
11400TIP3   OH255614   6.602   4.665   1.603 -0.0030 -0.3459 -0.2767
11400TIP3    H155615   6.571   4.712   1.679  0.3470 -1.8711  0.8384
11400TIP3    H255616   6.533   4.676   1.538 -1.4403 -1.0803  1.1008
11401TIP3   OH255617   1.374   5.182   3.410  0.6858  0.3112 -0.1058
11401TIP3    H155618   1.324   5.259   3.436  1.3447  0.7585 -0.1433
11401TIP3    H255619   1.347   5.165   3.320 -0.1850 -0.0957  0.2262
11402TIP3   OH255620   4.689   3.684   1.061  0.0332  0.0168 -0.7093
11402TIP3    H155621   4.601   3.665   1.029 -0.8609  0.0057  1.6691
11402TIP3    H255622   4.681   3.769   1.104  1.2084  0.0454 -0.5325
11403TIP3   OH255623   0.765   6.598   0.467 -0.4237  0.0293  0.3015
11403TIP3    H155624   0.802   6.550   0.542 -1.0221  1.1900  1.3416
11403TIP3    H255625   0.698   6.540   0.433  0.6511 -1.0218 -0.0737
11404TIP3   OH255626   0.264   2.421   3.194  0.4316  0.0888 -0.1892
11404TIP3    H155627   0.219   2.434   3.111 -0.1698  0.1211  0.1399
11404TIP3    H255628   0.340   2.479   3.190 -0.5486  1.4159 -0.0044
11405TIP3   OH255629   4.534   0.093  14.388 -1.0231  0.3621 -0.3246
11405TIP3    H155630   4.503   0.096  14.479 -0.3384  0.0042 -0.0794
11405TIP3    H255631   4.560   0.183  14.369  1.0576 -0.0005  0.6239
11406TIP3   OH255632   5.740   6.612   4.951 -0.0022 -0.4567  0.2351
11406TIP3    H155633   5.727   6.690   5.006 -0.3677  1.3571 -2.3214
11406TIP3    H255634   5.665   6.556   4.970 -1.8300  1.5946 -0.7585
11407TIP3   OH255635   3.958   0.258   3.294 -0.0831 -0.0188 -0.1800
11407TIP3    H155636   3.947   0.260   3.389  1.0690 -0.4328 -0.0261
11407TIP3    H255637   3.878   0.296   3.259 -0.7769 -0.4424  0.9414
11408TIP3   OH255638   0.970   3.877  10.841 -0.3768  0.7390  0.1935
11408TIP3    H155639   0.949   3.816  10.912 -1.8797  1.3296  0.2595
11408TIP3    H255640   0.957   3.825  10.762  0.6033  0.2955  0.3078
11409TIP3   OH255641   1.487   3.443   3.267  0.0978  0.2543 -0.1383
11409TIP3    H155642   1.397   3.413   3.264 -0.3465  1.5139  0.1509
11409TIP3    H255643   1.506   3.450   3.361  0.2325  0.7354 -0.2001
11410TIP3   OH255644   1.376   5.853   5.293 -0.1225  0.9966  0.2242
11410TIP3    H155645   1.437   5.885   5.360  1.4319 -2.6892  0.7179
11410TIP3    H255646   1.426   5.854   5.212 -0.2514  0.4238  0.1336
11411TIP3   OH255647   6.000   5.620   1.494  0.3647 -0.1936 -0.3062
11411TIP3    H155648   5.932   5.687   1.498  0.0627 -0.5051 -0.1133
11411TIP3    H255649   6.035   5.626   1.405  1.0450  0.8979  0.0284
11412TIP3   OH255650   2.064   6.558  13.501 -0.2128 -0.4817  0.3966
11412TIP3    H155651   2.097   6.615  13.432 -0.4872  0.7585  1.2659
11412TIP3    H255652   1.993   6.509  13.461 -1.4342  1.3833  0.2094
11413TIP3   OH255653   4.809   0.797   4.697 -0.5107  0.0451  0.0781
11413TIP3    H155654   4.819   0.705   4.673  0.5834  0.3863 -0.8546
11413TIP3    H255655   4.743   0.797   4.767 -2.0437 -1.2191 -1.3273
11414TIP3   OH255656   5.577   3.236   1.453  0.0245 -0.0549  0.3864
11414TIP3    H155657   5.667   3.231   1.484 -0.1025  1.1042  0.9856
11414TIP3    H255658   5.583   3.232   1.358  0.8380  1.4982  0.3528
11415TIP3   OH255659   5.898   2.678  17.193  0.1933 -0.1322  0.2750
11415TIP3    H155660   5.950   2.755  17.216 -0.0919 -0.0717  0.7066
11415TIP3    H255661   5.827   2.676  17.257 -0.5497 -0.0054 -0.5309
11416TIP3   OH255662   0.260   5.660   2.646  0.1533 -0.5699  0.4592
11416TIP3    H155663   0.293   5.571   2.631  0.2509 -0.7741  1.8124
11416TIP3    H255664   0.169   5.656   2.619 -0.1019 -1.3473  1.3729
11417TIP3   OH255665   5.905   0.023   1.082 -0.0892  0.2130  0.4913
11417TIP3    H155666   5.867  -0.029   1.152 -0.2119 -0.3571  0.0011
11417TIP3    H255667   5.840   0.091   1.064 -0.3281 -0.0110  0.5072
11418TIP3   OH255668   1.061   1.168   4.389 -0.3979  0.7182 -0.0183
11418TIP3    H155669   1.014   1.088   4.367 -0.3763  0.6651  0.1251
11418TIP3    H255670   1.153   1.148   4.371 -0.4938  1.0181 -0.8549
11419TIP3   OH255671   4.275   6.593   1.636 -0.8206 -0.5798  0.0661
11419TIP3    H155672   4.317   6.524   1.584 -1.9505 -1.0588 -0.2161
11419TIP3    H255673   4.199   6.620   1.585 -0.5513  0.6832  0.3098
11420TIP3   OH255674   2.727   3.642   5.126 -0.1222  0.1234 -0.0249
11420TIP3    H155675   2.720   3.682   5.213 -3.5482 -1.1027  0.3610
11420TIP3    H255676   2.671   3.695   5.070 -0.4069 -0.9155 -0.7447
11421TIP3   OH255677   6.656   2.559   4.864 -0.1513 -0.4905 -0.2334
11421TIP3    H155678   6.634   2.604   4.783  0.6570  1.3968  0.5551
11421TIP3    H255679   6.574   2.560   4.915 -0.7103 -1.8586 -1.0962
11422TIP3   OH255680   1.499   0.993   2.713  0.0188  0.2498  0.2627
11422TIP3    H155681   1.433   0.926   2.729 -0.0641  0.0771 -0.7592
11422TIP3    H255682   1.449   1.070   2.686  0.1907  0.3569  0.2501
11423TIP3   OH255683   6.222   2.239  15.017  0.3246  0.6033  0.1415
11423TIP3    H155684   6.204   2.245  15.111 -1.2099  1.6497 -0.2094
11423TIP3    H255685   6.249   2.328  14.992 -0.5432  0.6391 -0.6709
11424TIP3   OH255686   5.949   1.515   4.888 -0.2285 -0.0785  0.2479
11424TIP3    H155687   6.040   1.509   4.857 -0.1559 -1.6940  0.7241
11424TIP3    H255688   5.897   1.474   4.819 -0.5823  0.5895  0.1081
11425TIP3   OH255689   0.387   3.802   5.378  0.2529 -0.3481 -0.6063
11425TIP3    H155690   0.301   3.764   5.360 -0.8478  1.0144  1.4288
11425TIP3    H255691   0.410   3.848   5.298 -0.8909 -0.7986 -1.2098
11426TIP3   OH255692   0.463   4.845  12.862  0.1242 -0.0737  0.1111
11426TIP3    H155693   0.484   4.784  12.792  2.1293 -1.4234  1.8344
11426TIP3    H255694   0.464   4.931  12.820  5.2426 -0.4401 -0.7968
11427TIP3   OH255695   4.066   4.163   1.472  0.2247 -0.5973 -0.2495
11427TIP3    H155696   4.151   4.183   1.432 -0.3976  1.2359 -0.7014
11427TIP3    H255697   4.023   4.105   1.409  0.7996 -0.8605 -0.4072
11428TIP3   OH255698   4.176   3.019   1.756 -0.5710  0.0441 -0.8923
11428TIP3    H155699   4.113   3.078   1.714  0.0794 -0.3400 -2.4401
11428TIP3    H255700   4.190   2.949   1.692 -0.0950 -0.9281  0.2632
11429TIP3   OH255701   3.196   1.299  12.069 -0.0100 -0.5294 -0.7307
11429TIP3    H155702   3.124   1.251  12.027 -0.6501  0.1350 -0.4044
11429TIP3    H255703   3.160   1.386  12.084  0.9658 -0.1137 -0.8128
11430TIP3   OH255704   2.960   6.127  13.103 -0.4335  0.0101  0.6414
11430TIP3    H155705   2.987   6.047  13.058  1.4929  1.0725 -0.1347
11430TIP3    H255706   2.879   6.103  13.148 -0.6017 -1.9912 -0.6820
11431TIP3   OH255707   0.634   3.514   0.329 -1.0542 -0.5240 -0.2830
11431TIP3    H155708   0.564   3.508   0.264 -0.5064 -1.0103 -0.8411
11431TIP3    H255709   0.714   3.529   0.278 -0.5920 -1.0684  0.2571
11432TIP3   OH255710   4.797   2.485  16.861 -0.1676 -0.3112 -0.2240
11432TIP3    H155711   4.850   2.440  16.926 -0.5805  1.6040  1.4944
11432TIP3    H255712   4.860   2.513  16.794  0.2138 -2.5551 -0.8373
11433TIP3   OH255713   4.827   1.602  13.076 -0.0874  0.1957 -0.1235
11433TIP3    H155714   4.820   1.697  13.061  1.0979  0.2566 -0.3491
11433TIP3    H255715   4.736   1.572  13.078 -0.4501  1.1228 -1.5066
11434TIP3   OH255716   5.098   5.401  14.343 -0.5318  0.3144 -0.3716
11434TIP3    H155717   5.113   5.490  14.375 -0.9295 -0.4016  1.9308
11434TIP3    H255718   5.185   5.369  14.320 -0.0923  0.5790  0.8346
11435TIP3   OH255719   2.582   0.568   2.658 -0.3561 -0.8184  0.0380
11435TIP3    H155720   2.621   0.542   2.741  0.9518 -1.6900 -0.8271
11435TIP3    H255721   2.645   0.630   2.621 -0.9635 -0.3854 -0.2683
11436TIP3   OH255722   4.783   0.936   1.448 -0.2162  0.0661  0.4453
11436TIP3    H155723   4.713   0.994   1.418  1.4326  2.1552  0.5508
11436TIP3    H255724   4.746   0.892   1.525 -1.9239  0.0090 -0.3836
11437TIP3   OH255725   3.699   5.681  13.624  0.2368  0.7120  0.1328
11437TIP3    H155726   3.683   5.595  13.663  0.3964  0.2760 -0.7330
11437TIP3    H255727   3.637   5.739  13.667  0.1286  0.1588  0.7288
11438TIP3   OH255728   5.372   1.997  13.910 -0.2894  0.1853 -0.1731
11438TIP3    H155729   5.318   1.947  13.850 -0.7456  1.7316 -1.0594
11438TIP3    H255730   5.328   2.081  13.919 -0.3174 -0.0697  2.4568
11439TIP3   OH255731   3.881   4.756  15.009  0.4959 -0.0626 -0.3637
11439TIP3    H155732   3.933   4.745  15.088 -0.7805  2.8507  0.9238
11439TIP3    H255733   3.945   4.779  14.941  1.2966 -0.2330  0.3305
11440TIP3   OH255734   5.539   4.432   2.632 -0.3456 -0.3114 -0.3428
11440TIP3    H155735   5.617   4.379   2.650 -0.9527 -0.9103  0.5834
11440TIP3    H255736   5.511   4.405   2.544  0.9777  0.5196 -1.0282
11441TIP3   OH255737   4.239   0.629   3.451  0.8398  0.6354 -0.0744
11441TIP3    H155738   4.183   0.707   3.450  1.1162  0.8747  1.7564
11441TIP3    H255739   4.274   0.625   3.540  1.7755 -0.9174 -0.4853
11442TIP3   OH255740   4.365   2.918   4.281 -0.1114 -0.3396 -0.3506
11442TIP3    H155741   4.431   2.855   4.309 -0.2859 -0.3348  0.0759
11442TIP3    H255742   4.281   2.879   4.305 -0.1456  0.8497  1.5989
11443TIP3   OH255743   4.314   2.053   4.741  0.1916 -0.0550  0.1496
11443TIP3    H155744   4.349   1.972   4.704  0.0844 -0.5979  1.2091
11443TIP3    H255745   4.382   2.118   4.726  1.2455 -0.8595  1.2684
11444TIP3   OH255746   3.131   1.009   1.165 -0.2617 -0.0076 -0.5081
11444TIP3    H155747   3.046   1.019   1.123  0.3125  3.7372 -0.9379
11444TIP3    H255748   3.114   1.026   1.258 -0.2294 -0.8110 -0.3491
11445TIP3   OH255749   0.329   6.572  15.779 -0.2643 -0.0819 -0.9415
11445TIP3    H155750   0.271   6.636  15.739 -1.5392 -1.2619 -1.0398
11445TIP3    H255751   0.270   6.501  15.807  1.1313 -1.3081 -1.0591
11446TIP3   OH255752   0.649   5.523   2.386 -0.0514 -0.2934  0.3136
11446TIP3    H155753   0.573   5.468   2.369 -0.9768  1.1689 -0.3885
11446TIP3    H255754   0.616   5.593   2.441  1.0448 -0.2406  0.9264
11447TIP3   OH255755   6.052   3.605   3.093  0.5524  0.5839 -0.4308
11447TIP3    H155756   6.053   3.510   3.095  0.7776  0.5140 -2.7042
11447TIP3    H255757   5.969   3.629   3.134  1.4991 -0.4855  2.2247
11448TIP3   OH255758   5.904   5.917   3.577  0.1303  0.1498 -0.0617
11448TIP3    H155759   5.846   5.883   3.508  2.3796  0.6682 -2.2892
11448TIP3    H255760   5.859   5.995   3.610 -1.3105 -0.4937 -0.4306
11449TIP3   OH255761   6.428   0.177  11.085 -0.1110  0.3804 -0.2008
11449TIP3    H155762   6.382   0.098  11.058  2.0894 -0.0566 -2.9577
11449TIP3    H255763   6.468   0.155  11.169 -2.0823 -0.3501  0.5661
11450TIP3   OH255764   1.712   1.111   3.917 -0.2336  0.3070 -0.7406
11450TIP3    H155765   1.723   1.198   3.879  0.1131  1.1099  1.1370
11450TIP3    H255766   1.645   1.123   3.984  3.5739  0.4099  3.3037
11451TIP3   OH255767   6.736   5.427  16.936  0.0889 -0.5870 -0.2505
11451TIP3    H155768   6.813   5.441  16.991  0.3900 -1.4614 -0.4296
11451TIP3    H255769   6.708   5.515  16.910  0.6484 -0.2331  0.3360
11452TIP3   OH255770   0.485   1.601   2.618  0.1186  0.0534 -0.0174
11452TIP3    H155771   0.411   1.585   2.677  0.0130  1.7247  0.3335
11452TIP3    H255772   0.553   1.541   2.648  0.0735  0.8838  1.8369
11453TIP3   OH255773   2.387   5.540  11.937 -0.2210 -0.6621 -0.1437
11453TIP3    H155774   2.452   5.556  12.005 -0.6033 -1.2895  0.3843
11453TIP3    H255775   2.419   5.463  11.891  0.7621  0.6064 -1.5948
11454TIP3   OH255776   0.421   1.154  17.190  0.7129  0.1277 -0.1571
11454TIP3    H155777   0.348   1.178  17.247  0.9714  0.4233  0.0495
11454TIP3    H255778   0.386   1.083  17.135  0.7959 -0.9457  1.1457
11455TIP3   OH255779   6.694   4.403   4.705  0.5891 -0.2210 -0.0557
11455TIP3    H155780   6.660   4.327   4.752 -3.3731  0.9363 -0.8564
11455TIP3    H255781   6.715   4.467   4.774 -2.7386  0.5042  0.3739
11456TIP3   OH255782   3.118   5.332   3.030  0.5156 -0.2763  0.0178
11456TIP3    H155783   3.174   5.359   2.957  0.0204  2.2587  0.5287
11456TIP3    H255784   3.154   5.377   3.106 -1.2510  0.1380  0.6364
11457TIP3   OH255785   4.797   5.212   0.104 -0.7376  0.0344  0.0257
11457TIP3    H155786   4.860   5.159   0.056 -0.5046 -1.2429  1.6905
11457TIP3    H255787   4.842   5.237   0.185 -2.0657 -0.2713  0.8962
11458TIP3   OH255788   5.180   2.038   6.512 -0.1046 -0.2387 -0.0314
11458TIP3    H155789   5.216   2.012   6.427  0.4682  0.2487  0.0634
11458TIP3    H255790   5.256   2.065   6.563 -0.4802 -0.2809  0.5496
11459TIP3   OH255791   3.731   1.137   5.916  0.1322  0.7716 -0.3128
11459TIP3    H155792   3.699   1.059   5.962  0.7359  0.9820  0.4595
11459TIP3    H255793   3.795   1.103   5.853  0.8445  0.6954  0.4411
11460TIP3   OH255794   6.691   2.336   5.714  0.4011 -0.6777 -0.0222
11460TIP3    H155795   6.714   2.318   5.623 -0.3375  1.6526 -0.7103
11460TIP3    H255796   6.609   2.385   5.709 -0.0262 -1.1430  1.9360
11461TIP3   OH255797   2.204   6.388   0.588  0.0838  0.5244  0.0356
11461TIP3    H155798   2.209   6.306   0.638 -0.0360 -0.0260 -0.8413
11461TIP3    H255799   2.296   6.413   0.575  0.1197  0.5883  0.3938
11462TIP3   OH255800   6.389   5.427  14.855  0.4981  1.0644 -0.0857
11462TIP3    H155801   6.404   5.453  14.764 -0.6759  3.2002  0.2835
11462TIP3    H255802   6.314   5.480  14.883  0.9639  0.5843  2.1839
11463TIP3   OH255803   6.040   4.559   0.611  0.1114 -0.2604  0.3103
11463TIP3    H155804   5.992   4.501   0.552 -1.9210  0.5203  1.1402
11463TIP3    H255805   6.130   4.529   0.606 -0.9419 -3.7710  1.0365
11464TIP3   OH255806   4.761   5.931   2.432  0.5504  0.8209  0.1666
11464TIP3    H155807   4.740   5.868   2.363  0.0081  1.2343 -0.0459
11464TIP3    H255808   4.677   5.950   2.474  0.6264  1.8256 -0.1267
11465TIP3   OH255809   3.639   2.368  13.373  0.0325  0.0083 -0.9225
11465TIP3    H155810   3.575   2.411  13.429 -0.3922 -0.4783 -1.0251
11465TIP3    H255811   3.586   2.322  13.307  0.3847 -2.0918  0.2042
11466TIP3   OH255812   2.422   6.382   1.896 -0.9215 -0.2128  0.1262
11466TIP3    H155813   2.425   6.330   1.976  1.6696  0.5034  0.5511
11466TIP3    H255814   2.453   6.322   1.828  0.6005  0.2727  0.3589
11467TIP3   OH255815   0.312   6.248   0.794 -0.5424  0.1010 -0.4449
11467TIP3    H155816   0.401   6.249   0.828 -0.5025 -0.0719 -0.5434
11467TIP3    H255817   0.265   6.312   0.847 -0.6790 -0.7510  0.4693
11468TIP3   OH255818   3.623   3.942  13.262  0.2510 -0.3252  0.3879
11468TIP3    H155819   3.660   3.891  13.190 -1.0190 -1.8621  0.7914
11468TIP3    H255820   3.583   4.018  13.220  0.9521 -0.3559 -0.3524
11469TIP3   OH255821   1.641   2.019  14.674 -0.1782 -0.3235 -0.5324
11469TIP3    H155822   1.730   2.040  14.646 -0.6268  0.0208 -1.7596
11469TIP3    H255823   1.590   2.020  14.593 -1.1349 -1.3689  0.0526
11470TIP3   OH255824   2.394   2.372  12.689 -0.0957 -0.3895  0.2009
11470TIP3    H155825   2.432   2.290  12.657 -0.6571 -0.6273  0.1381
11470TIP3    H255826   2.379   2.424  12.611  0.7363 -0.0190  0.2844
11471TIP3   OH255827   0.881   0.203  14.055 -0.5521 -0.5494 -0.3183
11471TIP3    H155828   0.876   0.284  14.004 -2.9007  0.1933  0.9753
11471TIP3    H255829   0.949   0.151  14.013 -0.8711  0.9842 -2.8035
11472TIP3   OH255830   6.335   1.720   3.295 -0.4643 -0.6737  0.1263
11472TIP3    H155831   6.267   1.713   3.228 -0.2644 -2.1353  0.0638
11472TIP3    H255832   6.346   1.815   3.307 -1.3037 -0.3997 -1.0785
11473TIP3   OH255833   5.050   3.033  14.215  0.0054  0.4355  0.5543
11473TIP3    H155834   4.969   2.983  14.227 -1.6660  2.6091 -1.3246
11473TIP3    H255835   5.050   3.095  14.288  0.0688  0.2985  0.6690
11474TIP3   OH255836   1.058   5.917   0.233  0.0361 -0.4825  0.6160
11474TIP3    H155837   1.066   5.857   0.307  0.9887 -1.1319 -0.0245
11474TIP3    H255838   1.127   5.982   0.247  1.3260 -1.5863 -0.6347
11475TIP3   OH255839   4.632   6.767   1.018 -0.3681 -0.0186 -0.2501
11475TIP3    H155840   4.553   6.732   1.060 -1.2093  2.3438  0.1645
11475TIP3    H255841   4.704   6.722   1.062 -1.4562 -2.7298 -1.1052
11476TIP3   OH255842   1.924   1.089   3.498 -0.5990  0.1742  0.5515
11476TIP3    H155843   1.865   1.049   3.562 -0.8999  2.1960  1.5656
11476TIP3    H255844   1.873   1.089   3.416 -1.2021 -0.0434  0.9241
11477TIP3   OH255845   6.314   3.422  14.910  0.1095 -0.3083 -0.4198
11477TIP3    H155846   6.302   3.352  14.974 -2.4057  0.8378  0.4546
11477TIP3    H255847   6.378   3.388  14.848  1.6542 -1.9361  1.9914
11478TIP3   OH255848   4.746   3.424  15.368 -0.2087 -0.0223  0.0234
11478TIP3    H155849   4.805   3.500  15.374 -0.7542  0.2518  1.9115
11478TIP3    H255850   4.798   3.358  15.322  1.3486  0.4503  1.0729
11479TIP3   OH255851   3.187   5.306   5.830  0.3551 -0.0169 -0.2865
11479TIP3    H155852   3.139   5.268   5.756  0.0539  0.6920 -0.4623
11479TIP3    H255853   3.136   5.383   5.854 -0.0721 -0.7542  1.2659
11480TIP3   OH255854   0.516   0.083   5.109  0.2455  0.4954 -0.2499
11480TIP3    H155855   0.609   0.060   5.107  0.4662  1.1399  1.8700
11480TIP3    H255856   0.514   0.172   5.142 -1.1549  0.3856 -0.0026
11481TIP3   OH255857   3.856   4.476   4.963 -0.1027 -0.2451  0.0880
11481TIP3    H155858   3.911   4.446   5.035 -0.4306 -0.0638  0.4175
11481TIP3    H255859   3.871   4.412   4.893  0.4387 -0.2564  0.2114
11482TIP3   OH255860   6.757   4.436   3.982 -0.1813 -0.0311 -0.2575
11482TIP3    H155861   6.725   4.452   4.071 -0.8354  0.6922 -0.6215
11482TIP3    H255862   6.851   4.423   3.993 -0.0056  1.7010  0.3377
11483TIP3   OH255863   5.018   0.670  12.504 -0.5640 -0.2637 -0.3808
11483TIP3    H155864   5.067   0.670  12.586 -0.9708 -0.4018 -0.1329
11483TIP3    H255865   4.997   0.578  12.489 -1.0328 -0.1688 -0.3101
11484TIP3   OH255866   4.886   1.573  14.019 -0.2932 -0.1069 -0.2656
11484TIP3    H155867   4.963   1.519  14.003 -0.0702  0.3092 -0.6227
11484TIP3    H255868   4.908   1.658  13.981 -0.2162  0.5599  1.2598
11485TIP3   OH255869   2.750   0.283   0.184 -0.2455  0.0379 -0.5655
11485TIP3    H155870   2.674   0.300   0.129 -0.8860 -0.4233  0.1575
11485TIP3    H255871   2.755   0.187   0.190 -1.8950  0.0731  2.4719
11486TIP3   OH255872   3.733   5.669  16.908  0.1765 -0.9641  0.0122
11486TIP3    H155873   3.779   5.711  16.980 -2.8219  0.7115  1.0652
11486TIP3    H255874   3.727   5.577  16.933  0.2053 -0.6088  1.3581
11487TIP3   OH255875   3.439   3.134   6.208 -0.2765  1.1127  0.2469
11487TIP3    H155876   3.367   3.071   6.214  1.0397 -0.3131  1.7194
11487TIP3    H255877   3.513   3.089   6.249  1.2885  2.7809 -0.6985
11488TIP3   OH255878   1.614   6.492   2.889  0.2842  0.4760 -0.2267
11488TIP3    H155879   1.615   6.462   2.980  0.9493 -1.8603 -0.9628
11488TIP3    H255880   1.670   6.569   2.889  0.1558  0.5837  1.3818
11489TIP3   OH255881   0.652   5.162   0.967  0.4282  0.0463 -0.2370
11489TIP3    H155882   0.732   5.136   0.922  0.1322  1.5068 -1.6483
11489TIP3    H255883   0.664   5.131   1.057  1.7843 -1.3409 -0.8754
11490TIP3   OH255884   1.601   4.708   2.026 -0.1372 -0.2012  0.6404
11490TIP3    H155885   1.669   4.759   2.071  1.1183 -0.2517 -1.1403
11490TIP3    H255886   1.615   4.618   2.057  0.1400 -0.0895  0.8496
11491TIP3   OH255887   4.543   5.401   2.595  0.7855  0.2341 -0.3156
11491TIP3    H155888   4.580   5.455   2.526  2.7252 -0.0180  0.4837
11491TIP3    H255889   4.618   5.378   2.650 -0.2221 -2.0429  0.1833
11492TIP3   OH255890   1.487   2.872   0.501 -0.6898 -0.0316  0.2648
11492TIP3    H155891   1.521   2.826   0.425 -0.3578 -0.1982  0.5099
11492TIP3    H255892   1.561   2.923   0.533 -0.9525  0.3828  0.2149
11493TIP3   OH255893   6.257   6.433   2.726 -0.6945 -0.0396  0.5142
11493TIP3    H155894   6.210   6.365   2.678 -0.8355  0.3992  0.0180
11493TIP3    H255895   6.226   6.515   2.688 -0.6798  0.3116  1.2478
11494TIP3   OH255896   5.533   0.114   5.026 -0.5854  0.1643  0.0779
11494TIP3    H155897   5.491   0.146   4.946  0.0065  0.4984 -0.1060
11494TIP3    H255898   5.625   0.140   5.016 -0.5135  0.2081  0.8750
11495TIP3   OH255899   5.322   1.204  16.197 -0.3958 -0.8103  0.4403
11495TIP3    H155900   5.378   1.197  16.274  0.9197  0.6806 -0.3448
11495TIP3    H255901   5.380   1.237  16.128 -2.1586  0.4893 -0.4691
11496TIP3   OH255902   2.440   3.898   0.794 -0.0328 -0.0288  0.3124
11496TIP3    H155903   2.384   3.883   0.718 -0.1419 -0.4750  0.4782
11496TIP3    H255904   2.529   3.892   0.760 -0.0832  0.2141  0.1371
11497TIP3   OH255905   3.342   6.442  15.283  0.4602  0.2103  0.1940
11497TIP3    H155906   3.299   6.501  15.346  1.1633  0.0715  0.8151
11497TIP3    H255907   3.430   6.478  15.274  0.6346 -0.2856 -0.0404
11498TIP3   OH255908   1.581   0.487  11.073  0.0902 -0.2365 -1.0125
11498TIP3    H155909   1.536   0.495  10.988  1.4528 -0.3351 -1.7496
11498TIP3    H255910   1.617   0.575  11.089  1.8533 -0.8283 -1.6777
11499TIP3   OH255911   0.989   6.119  15.420 -0.2404  0.6080 -0.0362
11499TIP3    H155912   1.073   6.144  15.458 -0.1009 -2.0994  1.5556
11499TIP3    H255913   1.009   6.100  15.328  0.7898  0.4915  0.2069
11500TIP3   OH255914   3.093   0.712  15.356  0.5980  0.7011  0.2936
11500TIP3    H155915   3.006   0.744  15.381 -0.4763 -0.2341 -2.0090
11500TIP3    H255916   3.104   0.742  15.266  2.3094  0.0698  0.2747
11501TIP3   OH255917   4.630   0.333  14.596 -0.0387 -0.3134  0.1961
11501TIP3    H155918   4.547   0.327  14.550  0.0241 -0.8105  0.1494
11501TIP3    H255919   4.678   0.401  14.549 -0.2769 -0.2790  0.0024
11502TIP3   OH255920   0.978   5.621   4.558  0.9620  0.2513  0.3479
11502TIP3    H155921   1.016   5.699   4.517  0.5454  0.1062 -0.3233
11502TIP3    H255922   0.886   5.643   4.571  0.9989  0.1352  0.8102
11503TIP3   OH255923   5.171   4.392  13.186  0.1513  0.0898  0.0474
11503TIP3    H155924   5.212   4.306  13.185  0.7302  0.3642 -1.2933
11503TIP3    H255925   5.228   4.445  13.243  0.3558 -0.1487  0.0655
11504TIP3   OH255926   1.191   5.380  12.221 -0.0330 -0.2883  0.3809
11504TIP3    H155927   1.120   5.341  12.170  1.0602 -1.9684  0.0938
11504TIP3    H255928   1.182   5.474  12.208 -1.2045 -0.5781 -0.9834
11505TIP3   OH255929   3.669   1.093  11.963 -0.3098  0.0040  0.0323
11505TIP3    H155930   3.720   1.140  11.897 -0.8303  1.6186  0.7626
11505TIP3    H255931   3.722   1.016  11.984  2.5042  2.3084  1.7311
11506TIP3   OH255932   6.105   4.351  15.016  0.1863 -0.1182  0.3906
11506TIP3    H155933   6.125   4.406  14.940  1.5930  0.2486  1.0018
11506TIP3    H255934   6.187   4.304  15.033  1.0659  2.4978  3.9066
11507TIP3   OH255935   1.350   5.245   1.584  0.4151 -0.1976 -0.2880
11507TIP3    H155936   1.255   5.237   1.577  0.5162 -0.7134 -0.9689
11507TIP3    H255937   1.364   5.275   1.675 -0.4267  0.4790 -0.3696
11508TIP3   OH255938   4.389   2.514  16.108  0.4026  0.1976  0.4474
11508TIP3    H155939   4.395   2.464  16.027 -2.5455  1.0381 -0.3275
11508TIP3    H255940   4.418   2.602  16.085 -0.1705  0.3651  0.3497
11509TIP3   OH255941   2.831   4.924  13.037 -0.3376  0.0651 -0.1834
11509TIP3    H155942   2.796   4.836  13.054  1.3822 -0.4711  0.7742
11509TIP3    H255943   2.846   4.961  13.125 -0.1540  0.9413 -0.5798
11510TIP3   OH255944   6.584   5.026   3.582  0.2871  0.1867 -0.3537
11510TIP3    H155945   6.532   4.948   3.598 -1.1916  1.3323  0.5533
11510TIP3    H255946   6.582   5.074   3.665  0.0954  1.8243 -1.2773
11511TIP3   OH255947   4.832   4.964   0.629 -0.0428  0.4886 -0.4115
11511TIP3    H155948   4.750   4.915   0.621 -0.0435  0.3421  0.4576
11511TIP3    H255949   4.900   4.896   0.631 -0.1645  0.3732  2.7015
11512TIP3   OH255950   5.027   6.716   5.288 -0.0381 -0.4147 -0.2712
11512TIP3    H155951   5.060   6.772   5.359 -1.2931  0.5561 -0.4389
11512TIP3    H255952   4.965   6.658   5.332  1.6933 -2.0810  0.0039
11513TIP3   OH255953   1.380   3.614  16.842 -0.2430 -0.1265  0.3752
11513TIP3    H155954   1.399   3.637  16.933 -1.1353 -0.9197  0.7698
11513TIP3    H255955   1.417   3.527  16.830 -0.0662  0.0035 -0.0397
11514TIP3   OH255956   5.757   5.395  11.632 -0.1398  0.2846 -0.2264
11514TIP3    H155957   5.724   5.308  11.656 -0.1269  0.5977  0.9789
11514TIP3    H255958   5.763   5.441  11.716  3.2766  0.2662 -0.4159
11515TIP3   OH255959   5.600   4.122   0.918  0.7516 -0.9775 -0.1708
11515TIP3    H155960   5.546   4.047   0.892  1.1972 -1.6883  0.9241
11515TIP3    H255961   5.675   4.083   0.963 -0.3002  0.2464  2.7562
11516TIP3   OH255962   2.255   6.165  12.743 -0.0141  0.1550  0.1423
11516TIP3    H155963   2.328   6.132  12.795  0.5349 -0.7316 -1.1785
11516TIP3    H255964   2.295   6.230  12.684 -0.7301  1.5950  1.2123
11517TIP3   OH255965   3.306   3.319  14.200  0.1405  0.0635 -0.6507
11517TIP3    H155966   3.212   3.334  14.211 -0.0762 -0.1240 -2.1497
11517TIP3    H255967   3.345   3.405  14.209  0.0474 -0.1058  1.8802
11518TIP3   OH255968   1.594   5.389  11.576 -0.3031 -0.3745  0.5773
11518TIP3    H155969   1.615   5.483  11.575  0.8325 -0.6173  0.2049
11518TIP3    H255970   1.643   5.354  11.651  0.3150 -0.8852 -0.0547
11519TIP3   OH255971   0.131   3.862   0.420 -0.2089  0.0035  0.2290
11519TIP3    H155972   0.108   3.791   0.479  0.2421  1.0413  1.7018
11519TIP3    H255973   0.056   3.921   0.421  0.8475  1.3778  1.9122
11520TIP3   OH255974   2.545   0.036   4.873  0.3315  0.0507  0.1521
11520TIP3    H155975   2.582   0.121   4.896 -1.1104  0.2199  1.9914
11520TIP3    H255976   2.605   0.001   4.807  0.6261  2.7271 -1.0921
11521TIP3   OH255977   3.837   2.390  12.939 -0.1432 -0.2753 -0.1618
11521TIP3    H155978   3.821   2.428  13.025 -2.4774  0.9177 -1.0852
11521TIP3    H255979   3.894   2.454  12.895  0.7514 -0.7103  0.3523
11522TIP3   OH255980   2.688   2.026   4.924  0.1895 -0.0272 -0.4219
11522TIP3    H155981   2.761   2.035   4.863  0.2626 -1.3755 -0.5493
11522TIP3    H255982   2.653   1.938   4.907  0.4016 -0.5319  1.6868
11523TIP3   OH255983   6.675   0.964  15.151  0.6982 -0.0851  0.5446
11523TIP3    H155984   6.609   0.920  15.097  1.6820 -2.6091  1.3243
11523TIP3    H255985   6.625   1.010  15.218 -0.4721  2.0244 -1.6868
11524TIP3   OH255986   2.215   0.539   2.140  0.7436  0.0477 -1.2534
11524TIP3    H155987   2.295   0.520   2.091  1.5116 -1.5463  0.5501
11524TIP3    H255988   2.179   0.453   2.161  0.7262  0.6289  1.3771
11525TIP3   OH255989   1.670   6.118  11.531 -0.4018 -0.1753 -0.0506
11525TIP3    H155990   1.626   6.083  11.453  1.8322  0.6701 -1.7224
11525TIP3    H255991   1.636   6.207  11.539  1.1393  0.5725 -1.5015
11526TIP3   OH255992   4.451   5.918  16.807  0.3641 -0.0039  0.1052
11526TIP3    H155993   4.421   5.950  16.892 -2.0595 -3.1898  0.5566
11526TIP3    H255994   4.547   5.916  16.814  0.2118  0.1196  2.6447
11527TIP3   OH255995   6.605   6.762  16.658  0.6782  0.3906 -0.6602
11527TIP3    H155996   6.689   6.717  16.647  1.1355  0.5309  2.0315
11527TIP3    H255997   6.541   6.691  16.669  1.2025  0.3240  2.2325
11528TIP3   OH255998   0.999   4.298  17.044 -0.1398  0.3407  0.1345
11528TIP3    H155999   0.905   4.318  17.038 -0.2026  0.0905  0.3281
11528TIP3    H256000   1.028   4.343  17.123 -0.3298 -0.5418  0.7041
11529TIP3   OH256001   0.576   4.432  11.176 -0.6653 -0.2362  0.0452
11529TIP3    H156002   0.650   4.461  11.228 -1.5926  0.7679  0.8328
11529TIP3    H256003   0.534   4.364  11.229 -0.2252 -0.9124 -0.4679
11530TIP3   OH256004   2.101   0.710  16.446  0.3532 -0.1313  0.0757
11530TIP3    H156005   2.188   0.746  16.432 -0.5282  1.7823 -0.6792
11530TIP3    H256006   2.116   0.620  16.475  2.5526  0.0158 -0.5455
11531TIP3   OH256007   2.751   6.362   1.922 -0.2130 -0.9800 -0.3066
11531TIP3    H156008   2.764   6.270   1.943 -1.5130 -0.9214  0.8879
11531TIP3    H256009   2.679   6.363   1.859  1.1883 -0.9032 -1.9331
11532TIP3   OH256010   5.295   5.584   3.421 -0.5549 -0.1546 -0.1324
11532TIP3    H156011   5.340   5.572   3.338  2.1383  1.5149  1.0108
11532TIP3    H256012   5.289   5.496   3.459  2.2680 -0.3806 -0.0969
11533TIP3   OH256013   3.354   4.280   3.392  0.1925 -0.5746  0.2786
11533TIP3    H156014   3.303   4.340   3.446  0.1558  0.2405 -0.6358
11533TIP3    H256015   3.433   4.329   3.370  0.1211 -0.8197 -0.5512
11534TIP3   OH256016   4.142   1.647   4.611 -0.1041 -0.4017 -0.1179
11534TIP3    H156017   4.157   1.686   4.697  1.0568 -0.0233 -0.4866
11534TIP3    H256018   4.228   1.643   4.570 -0.5527 -1.1474 -1.0327
11535TIP3   OH256019   2.866   2.537  16.500  0.5159 -0.7888 -0.3365
11535TIP3    H156020   2.946   2.553  16.551 -0.1558  0.7957  0.2362
11535TIP3    H256021   2.796   2.537  16.566 -0.1509 -0.5546 -1.0487
11536TIP3   OH256022   1.597   4.336  14.975  0.0259  0.1435  0.0316
11536TIP3    H156023   1.582   4.247  15.008  0.2283 -0.0222 -0.3230
11536TIP3    H256024   1.547   4.340  14.894 -1.6126  1.0048  1.0452
11537TIP3   OH256025   6.760   1.505  12.494  0.0168  0.1939 -0.0102
11537TIP3    H156026   6.669   1.495  12.466  0.3531 -2.0674 -0.4151
11537TIP3    H256027   6.768   1.447  12.570  0.9417  0.9748  0.5055
11538TIP3   OH256028   4.042   1.669  14.170  0.4114  0.7293  0.3568
11538TIP3    H156029   4.136   1.668  14.156  0.3483  0.2740 -0.0693
11538TIP3    H256030   4.009   1.732  14.105  0.3619  0.4149  0.0722
11539TIP3   OH256031   5.435   2.647  11.651  0.0940 -0.6554 -0.1510
11539TIP3    H156032   5.502   2.592  11.691 -0.7944 -1.4046  0.3439
11539TIP3    H256033   5.354   2.622  11.696 -0.3620  0.9050 -0.0614
11540TIP3   OH256034   2.120   3.853  16.254  0.3951  0.0731  0.0937
11540TIP3    H156035   2.192   3.825  16.310  0.3678 -1.3061 -0.5447
11540TIP3    H256036   2.042   3.850  16.310  0.7189  0.8795  0.5896
11541TIP3   OH256037   2.597   1.535  14.744 -0.5018  0.0117  0.2118
11541TIP3    H156038   2.586   1.628  14.726  1.8581  0.0135 -1.4865
11541TIP3    H256039   2.571   1.491  14.663  1.5769 -0.5701 -0.1701
11542TIP3   OH256040   0.837   2.942   1.217 -0.6711  0.1714  0.3319
11542TIP3    H156041   0.840   2.938   1.121 -0.9125 -1.3460  0.3836
11542TIP3    H256042   0.786   3.020   1.236  1.1608  1.6889 -0.7651
11543TIP3   OH256043   6.383   1.538  13.165  0.0945 -0.0941  0.7582
11543TIP3    H156044   6.440   1.606  13.128  0.5337 -1.1737 -0.5632
11543TIP3    H256045   6.439   1.492  13.227  0.4518 -0.6756  0.0096
11544TIP3   OH256046   0.937   2.717   2.839  0.0040 -0.1510  0.3268
11544TIP3    H156047   0.938   2.788   2.904  0.6715 -0.3596  0.5493
11544TIP3    H256048   0.965   2.758   2.758  0.1297 -0.1025  0.3946
11545TIP3   OH256049   3.879   4.612   3.707  0.1520 -0.1207  0.1727
11545TIP3    H156050   3.917   4.529   3.679 -0.8054 -0.5394  0.0862
11545TIP3    H256051   3.951   4.675   3.700  0.6075 -0.7331 -0.7483
11546TIP3   OH256052   3.864   5.014   1.918 -0.1346 -0.6005 -0.0961
11546TIP3    H156053   3.827   4.962   1.846 -0.5709 -1.2843  0.6215
11546TIP3    H256054   3.950   4.976   1.934 -1.0094 -2.0094  1.3586
11547TIP3   OH256055   2.915   1.158  14.292  0.8349  0.2748  0.0873
11547TIP3    H156056   2.958   1.197  14.368 -2.2681  0.1216  2.0156
11547TIP3    H256057   2.879   1.233  14.244 -0.0751  0.1889  0.6166
11548TIP3   OH256058   3.810   6.103   1.017 -0.1746 -0.2814  0.2652
11548TIP3    H156059   3.741   6.168   1.006  0.3129  0.4252  1.3319
11548TIP3    H256060   3.871   6.142   1.080  0.8234 -1.1999 -0.1023
11549TIP3   OH256061   1.796   0.159   1.178  0.5205 -0.1862  0.0345
11549TIP3    H156062   1.779   0.192   1.090  0.2758  0.2189  0.2364
11549TIP3    H256063   1.880   0.198   1.203  0.2532  0.2528  0.2551
11550TIP3   OH256064   3.078   5.270   5.072 -0.2093  0.0117 -0.6511
11550TIP3    H156065   3.004   5.214   5.050 -0.0620 -0.0848 -0.9130
11550TIP3    H256066   3.147   5.242   5.011 -0.0477  0.2857 -0.5925
11551TIP3   OH256067   0.930   1.129  14.371  0.3952  0.1507  0.4668
11551TIP3    H156068   0.842   1.097  14.353  0.0933 -0.1658  2.3728
11551TIP3    H256069   0.982   1.050  14.385  0.3270  0.3679  2.1323
11552TIP3   OH256070   2.271   1.968  14.986  0.3461  0.2937  0.0654
11552TIP3    H156071   2.291   2.021  15.063  1.5567  2.4388 -1.6637
11552TIP3    H256072   2.178   1.947  14.994 -0.0816  2.4583  0.9454
11553TIP3   OH256073   0.381   5.648   0.912 -0.1709 -0.2561  0.2242
11553TIP3    H156074   0.411   5.560   0.889  2.5588  0.4614  0.9574
11553TIP3    H256075   0.438   5.707   0.863 -0.8826  1.1460  1.0512
11554TIP3   OH256076   6.363   2.035   3.336  0.4511 -0.3415  0.3475
11554TIP3    H156077   6.442   2.077   3.371 -1.3717  1.5370  2.3537
11554TIP3    H256078   6.350   2.076   3.250  1.6944 -0.7279 -0.0273
11555TIP3   OH256079   5.905   6.640   6.266 -0.3365  0.0123 -0.1146
11555TIP3    H156080   5.977   6.606   6.319 -0.3650  1.1987  0.6943
11555TIP3    H256081   5.942   6.716   6.222 -0.5874 -0.4137 -1.0778
11556TIP3   OH256082   1.283   4.291  15.327  0.2274 -0.1462 -0.2810
11556TIP3    H156083   1.294   4.249  15.412 -0.4507  1.7989  0.8099
11556TIP3    H256084   1.308   4.224  15.263  3.0570 -0.8831  1.5039
11557TIP3   OH256085   5.511   5.265  15.762 -0.2110 -0.1936 -0.2881
11557TIP3    H156086   5.494   5.309  15.845 -0.2142  0.6051 -0.6978
11557TIP3    H256087   5.497   5.334  15.696  1.3633 -0.3950 -0.8360
11558TIP3   OH256088   3.743   6.537  12.740  0.5292 -0.6692 -0.4330
11558TIP3    H156089   3.703   6.454  12.713  0.3933 -0.7162 -0.0844
11558TIP3    H256090   3.741   6.591  12.661  2.4291 -1.6779 -1.2193
11559TIP3   OH256091   4.011   4.169  12.990 -0.1149 -0.2697  0.4252
11559TIP3    H156092   4.049   4.112  12.923  0.7271  0.3998  0.3213
11559TIP3    H256093   3.918   4.145  12.992 -0.2283 -0.0673 -1.2278
11560TIP3   OH256094   3.031   0.767   0.247  0.8599  0.0024 -0.0581
11560TIP3    H156095   2.963   0.812   0.297  1.3016 -0.8158  1.3105
11560TIP3    H256096   3.051   0.826   0.174  0.1060  1.1500  0.6599
11561TIP3   OH256097   0.428   1.453  12.879 -0.1018 -1.0117  0.3213
11561TIP3    H156098   0.419   1.509  12.956 -0.9870 -2.1349  1.0563
11561TIP3    H256099   0.338   1.436  12.852  0.0929 -3.2691  0.9979
11562TIP3   OH256100   1.586   5.034  14.217  0.0894 -0.0967 -0.5899
11562TIP3    H156101   1.584   4.959  14.276 -0.7793  1.0310  0.8564
11562TIP3    H256102   1.661   5.017  14.159  1.0433 -1.1695  0.9196
11563TIP3   OH256103   5.387   4.902  15.383 -0.1194 -0.1033 -0.5703
11563TIP3    H156104   5.357   4.992  15.378 -0.1845 -0.0226  1.0791
11563TIP3    H256105   5.447   4.892  15.309 -0.5204  1.1211 -1.0670
11564TIP3   OH256106   0.291   0.408  16.060 -0.5436  0.3603 -0.3303
11564TIP3    H156107   0.248   0.323  16.060  0.6763 -0.2536  0.2081
11564TIP3    H256108   0.381   0.391  16.087  0.0609  1.6418 -1.4495
11565TIP3   OH256109   2.544   5.721  14.056 -0.1733 -0.7731 -0.3334
11565TIP3    H156110   2.513   5.791  13.998 -1.1816 -0.4485  0.5621
11565TIP3    H256111   2.622   5.686  14.014  0.6438  1.2514 -0.5381
11566TIP3   OH256112   4.317   0.872   1.675  0.1069  0.1358  0.0200
11566TIP3    H156113   4.378   0.940   1.648 -1.5547  2.0380  0.9170
11566TIP3    H256114   4.362   0.790   1.656  2.9883  1.4913  0.8039
11567TIP3   OH256115   4.307   3.327   1.213 -0.5573 -0.2263 -0.5462
11567TIP3    H156116   4.215   3.322   1.239 -0.8474  3.9105 -0.3705
11567TIP3    H256117   4.352   3.365   1.288  1.5095 -2.8216 -0.3727
11568TIP3   OH256118   5.725   1.934  17.099 -0.1434  0.1014 -0.6361
11568TIP3    H156119   5.713   2.028  17.113 -2.5006 -0.4241  1.0749
11568TIP3    H256120   5.765   1.903  17.180  0.2384 -0.4483 -1.0336
11569TIP3   OH256121   3.007   2.683   1.342  0.0662  0.3318  0.3454
11569TIP3    H156122   3.036   2.769   1.311 -0.3797 -0.1297 -1.4116
11569TIP3    H256123   3.073   2.622   1.310 -0.8080 -0.2453 -0.4066
11570TIP3   OH256124   1.128   2.666  12.273 -0.2389 -0.1157  0.5026
11570TIP3    H156125   1.074   2.615  12.332 -2.2043 -0.2484 -1.3759
11570TIP3    H256126   1.078   2.746  12.257  0.9297  0.5704  0.1660
11571TIP3   OH256127   1.063   1.618   3.714  0.0292  0.3391  0.4685
11571TIP3    H156128   1.020   1.592   3.632 -0.3110  0.6263  0.5522
11571TIP3    H256129   0.996   1.604   3.781 -0.0220  1.0263  0.5687
11572TIP3   OH256130   5.125   0.930  13.506  0.0774  0.0543 -0.1400
11572TIP3    H156131   5.136   0.843  13.467  1.8439 -0.0421  0.4893
11572TIP3    H256132   5.129   0.990  13.432  0.8797 -0.2880 -0.3854
11573TIP3   OH256133   1.820   4.013  16.045 -0.0359  0.5639 -0.4855
11573TIP3    H156134   1.805   4.099  16.083  0.1383  0.3714  0.0363
11573TIP3    H256135   1.864   4.029  15.962  0.2482  0.9688 -0.2581
11574TIP3   OH256136   2.988   2.442   0.576 -0.5642 -0.1315  0.3936
11574TIP3    H156137   3.066   2.387   0.569 -0.5835 -0.3117  1.4983
11574TIP3    H256138   2.915   2.381   0.569 -0.6398  0.1553 -1.6598
11575TIP3   OH256139   2.619   0.414  16.027 -0.1240  0.0955 -0.2126
11575TIP3    H156140   2.657   0.424  16.114  1.8241 -0.2171 -1.0218
11575TIP3    H256141   2.677   0.354  15.981 -0.0238  1.7892 -2.3901
11576TIP3   OH256142   0.232   5.270   6.399  0.2015  0.0886 -0.3200
11576TIP3    H156143   0.205   5.180   6.414  0.6532  0.0539  0.3168
11576TIP3    H256144   0.194   5.293   6.314  0.0986 -0.6996 -0.4903
11577TIP3   OH256145   3.190   1.832  15.821  0.1069 -0.1483 -0.0167
11577TIP3    H156146   3.221   1.825  15.911 -0.0277  0.5691  0.0921
11577TIP3    H256147   3.096   1.849  15.828  0.3244  1.2280 -0.2463
11578TIP3   OH256148   2.238   3.228   2.514 -0.5919  0.7958 -0.4806
11578TIP3    H156149   2.209   3.290   2.447  0.1356 -0.1646 -1.7107
11578TIP3    H256150   2.326   3.259   2.538 -0.9736  1.3165  0.2623
11579TIP3   OH256151   4.595   5.909   4.065  0.1009 -0.2346  0.0386
11579TIP3    H156152   4.678   5.865   4.047  1.6946  1.8736  1.8582
11579TIP3    H256153   4.536   5.839   4.094  1.2406 -1.7521 -1.2732
11580TIP3   OH256154   2.814   0.746   0.877 -0.7367 -0.2704  0.2280
11580TIP3    H156155   2.805   0.656   0.909 -1.7792 -0.4904 -0.6476
11580TIP3    H256156   2.834   0.737   0.784 -3.0655  0.4135 -0.3763
11581TIP3   OH256157   0.967   0.645  17.086 -0.0773  0.1789 -0.0263
11581TIP3    H156158   0.975   0.692  17.168 -1.4953  0.6521 -0.1444
11581TIP3    H256159   1.057   0.620  17.063  0.2389 -0.7255  2.0944
11582TIP3   OH256160   2.595   2.758   5.956  0.4591 -0.6453 -0.7569
11582TIP3    H156161   2.552   2.841   5.977 -0.1799 -0.8933 -1.0393
11582TIP3    H256162   2.679   2.762   6.000  0.9992  0.7242 -1.8539
11583TIP3   OH256163   5.426   3.887   3.515  0.0860 -0.3978  0.4470
11583TIP3    H156164   5.451   3.977   3.539 -0.0978 -0.1710 -0.2077
11583TIP3    H256165   5.509   3.839   3.515  0.7397  0.6109 -2.8543
11584TIP3   OH256166   3.241   3.279   3.310 -0.2862  0.1786  0.4691
11584TIP3    H156167   3.163   3.329   3.333 -0.2192 -0.6726  2.6825
11584TIP3    H256168   3.314   3.335   3.336 -0.1490  0.6074 -0.7989
11585TIP3   OH256169   4.477   0.528   2.982  0.6724  0.5043 -0.4060
11585TIP3    H156170   4.549   0.566   2.932  0.8463 -0.2308 -0.7217
11585TIP3    H256171   4.464   0.587   3.055  2.7304 -0.2557  0.5986
11586TIP3   OH256172   1.537   3.457  12.145  0.3453 -0.4303 -0.0121
11586TIP3    H156173   1.556   3.532  12.089 -0.9693  0.9705  1.3828
11586TIP3    H256174   1.458   3.418  12.106 -1.7545  1.7271  1.9663
11587TIP3   OH256175   3.775   2.781  12.097  0.0913 -0.4866 -0.1461
11587TIP3    H156176   3.807   2.838  12.027 -1.8204 -0.5471 -1.0967
11587TIP3    H256177   3.821   2.811  12.176  2.5473 -0.6427 -1.4656
11588TIP3   OH256178   6.454   5.730   4.205 -0.0705 -0.0415 -0.3665
11588TIP3    H156179   6.497   5.808   4.240 -0.8284  0.2124  0.0181
11588TIP3    H256180   6.431   5.679   4.283  4.3765 -2.8227 -0.7579
11589TIP3   OH256181   5.800   4.781   0.212  0.3511 -0.0834  0.2313
11589TIP3    H156182   5.854   4.750   0.139  0.4924  0.6217  0.0338
11589TIP3    H256183   5.854   4.767   0.289  0.3134 -0.5654  0.1709
11590TIP3   OH256184   2.064   4.893   3.788  0.0612 -0.1252 -0.0001
11590TIP3    H156185   2.097   4.943   3.714  1.1640 -1.0541 -0.1578
11590TIP3    H256186   1.992   4.945   3.823  0.6500  1.1534 -0.6731
11591TIP3   OH256187   4.157   2.564  16.204  0.4071  0.2501 -0.5903
11591TIP3    H156188   4.156   2.654  16.172  1.4796  0.7150  0.6405
11591TIP3    H256189   4.238   2.527  16.169  0.4158  0.0376 -0.3458
11592TIP3   OH256190   5.756   0.141  12.015  0.0676  0.5685  1.1060
11592TIP3    H156191   5.766   0.207  12.084 -0.6157  2.3594 -0.4548
11592TIP3    H256192   5.835   0.152  11.961  0.4520 -0.6085  1.4286
11593TIP3   OH256193   5.939   4.657  15.641 -0.0340 -0.1982 -0.1188
11593TIP3    H156194   5.976   4.740  15.611  0.7185 -0.3037  0.4899
11593TIP3    H256195   5.852   4.680  15.674 -0.4130  0.1046 -1.2841
11594TIP3   OH256196   3.824   5.248   4.221 -0.0159 -0.0631 -0.9695
11594TIP3    H156197   3.871   5.205   4.292 -3.9105 -1.9810  0.6194
11594TIP3    H256198   3.879   5.236   4.144  2.4622 -1.3555  0.9487
11595TIP3   OH256199   2.484   1.941  16.090  0.6501 -0.1260 -0.0791
11595TIP3    H156200   2.495   2.028  16.128 -1.7804  0.5010 -0.7458
11595TIP3    H256201   2.493   1.954  15.996 -0.2631 -0.4894 -0.2249
11596TIP3   OH256202   4.710   6.784  14.020 -0.9234  0.4005 -0.5390
11596TIP3    H156203   4.644   6.735  14.069 -1.3103  0.8230 -0.6328
11596TIP3    H256204   4.700   6.753  13.930 -1.3577  0.8481 -0.6485
11597TIP3   OH256205   2.048   5.691   2.673  0.5115 -0.0961  0.5058
11597TIP3    H156206   2.047   5.710   2.767 -2.2949  2.1727  0.1076
11597TIP3    H256207   2.085   5.770   2.633  2.4622 -1.3802 -0.2546
11598TIP3   OH256208   5.493   1.391  12.121 -0.2792 -0.4096  0.2387
11598TIP3    H156209   5.537   1.328  12.179  0.4281  2.1836  2.5892
11598TIP3    H256210   5.564   1.428  12.069 -0.5629 -0.7919 -0.4265
11599TIP3   OH256211   5.572   0.579   4.034 -0.0040 -0.0317 -0.1288
11599TIP3    H156212   5.570   0.668   4.068 -1.3354 -0.2454  0.3888
11599TIP3    H256213   5.487   0.567   3.992 -0.3364 -1.4607  0.8942
11600TIP3   OH256214   5.298   5.178  16.305 -0.8614 -0.0069 -0.2104
11600TIP3    H156215   5.284   5.105  16.244 -1.3004  0.1303 -0.2743
11600TIP3    H256216   5.225   5.170  16.368 -0.5838  0.0337  0.1153
11601TIP3   OH256217   3.801   2.940   0.448 -0.1029  0.3828 -0.4765
11601TIP3    H156218   3.778   2.933   0.355 -2.8169  1.2968  0.0559
11601TIP3    H256219   3.725   2.905   0.493  1.6919 -1.1472  1.4059
11602TIP3   OH256220   6.784   2.121  13.882 -0.2722 -0.4650  0.1807
11602TIP3    H156221   6.724   2.112  13.956 -1.3079  0.2290 -0.5666
11602TIP3    H256222   6.805   2.031  13.857 -0.6883 -0.7039  0.6832
11603TIP3   OH256223   5.368   0.661   1.016 -0.3469  0.0319  0.1742
11603TIP3    H156224   5.402   0.735   1.068 -1.1933 -1.8253  3.5249
11603TIP3    H256225   5.442   0.601   1.008 -0.3883  0.0363 -0.2738
11604TIP3   OH256226   1.505   6.496  14.832 -0.3981 -0.3484  0.5264
11604TIP3    H156227   1.518   6.445  14.752 -2.2345 -1.2421  0.7786
11604TIP3    H256228   1.503   6.587  14.801  2.6073 -0.3752  0.0493
11605TIP3   OH256229   6.087   1.900   1.848 -0.4865  0.4479  0.4422
11605TIP3    H156230   6.021   1.965   1.824 -0.6515  0.0863 -0.0872
11605TIP3    H256231   6.115   1.862   1.765  1.1753  1.3511  0.5542
11606TIP3   OH256232   2.312   1.170   6.219  0.3467  0.3535  0.0865
11606TIP3    H156233   2.247   1.115   6.262  1.3881 -0.6649  0.3800
11606TIP3    H256234   2.327   1.129   6.134  3.3135 -1.6033  1.4587
11607TIP3   OH256235   4.810   6.505  14.575  0.3146 -0.0369 -0.7611
11607TIP3    H156236   4.727   6.463  14.550 -1.2644  2.6884 -0.2355
11607TIP3    H256237   4.826   6.569  14.506 -0.0250  2.1077  1.1068
11608TIP3   OH256238   4.800   4.512   0.649 -0.5266  0.1566  0.0891
11608TIP3    H156239   4.767   4.467   0.726  0.9403 -0.9256  0.0967
11608TIP3    H256240   4.872   4.565   0.681  1.8346 -2.3238 -0.9225
11609TIP3   OH256241   2.581   2.765  13.709  0.0618  0.3851  0.2588
11609TIP3    H156242   2.562   2.750  13.802  0.5867  0.8770  0.4562
11609TIP3    H256243   2.595   2.860  13.703  0.3372  0.3160 -0.2604
11610TIP3   OH256244   6.084   3.904  14.353 -0.6439  0.0265  0.4970
11610TIP3    H156245   6.120   3.816  14.364  1.1965  0.8497  1.2594
11610TIP3    H256246   6.154   3.963  14.380 -1.8470  1.7482  0.0062
11611TIP3   OH256247   0.372   1.938  12.483 -0.5280 -0.5429 -0.2597
11611TIP3    H156248   0.373   1.848  12.515 -1.2510 -0.5298 -0.2057
11611TIP3    H256249   0.365   1.929  12.388  1.0034 -0.5679 -0.3984
11612TIP3   OH256250   3.787   6.132   2.144  0.2306 -0.2491  0.1360
11612TIP3    H156251   3.697   6.106   2.166  0.3964 -1.2236 -0.3363
11612TIP3    H256252   3.833   6.050   2.129  0.8382  0.2978 -1.0712
11613TIP3   OH256253   1.140   5.210  15.526 -0.3074 -0.0166  0.0435
11613TIP3    H156254   1.120   5.127  15.571  2.4229 -0.8400 -0.1906
11613TIP3    H256255   1.203   5.254  15.583  0.6975  0.4250 -1.3865
11614TIP3   OH256256   1.665   3.040   3.166  0.0448  0.4623 -0.2244
11614TIP3    H156257   1.669   3.074   3.255 -1.8234  0.4390 -0.1142
11614TIP3    H256258   1.679   3.116   3.110 -0.3632  0.7625  0.0782
11615TIP3   OH256259   1.508   2.947  14.446  0.4312  0.4897  0.5161
11615TIP3    H156260   1.576   2.914  14.386 -0.4853  1.3754 -1.0405
11615TIP3    H256261   1.443   2.877  14.447 -0.7152  1.4881 -1.4730
11616TIP3   OH256262   4.786   4.884   0.166  0.2915 -0.2774 -0.6680
11616TIP3    H156263   4.843   4.885   0.242 -0.7069  1.0298  0.0867
11616TIP3    H256264   4.823   4.949   0.107 -0.0718  0.1428 -0.4346
11617TIP3   OH256265   2.289   4.647   3.411  0.2168 -0.3334 -0.1063
11617TIP3    H156266   2.344   4.626   3.336 -1.0982 -0.0488 -1.1561
11617TIP3    H256267   2.351   4.667   3.481  1.4615  0.6320 -1.4650
11618TIP3   OH256268   3.829   2.621  14.268 -0.0669 -0.2908 -0.5016
11618TIP3    H156269   3.849   2.532  14.237 -1.6332  0.0051 -2.4473
11618TIP3    H256270   3.775   2.659  14.199 -0.1602  1.8861  0.7236
11619TIP3   OH256271   4.993   4.370  15.724 -0.1843  0.0975 -0.3024
11619TIP3    H156272   4.980   4.281  15.690  0.5244  0.1807 -0.8192
11619TIP3    H256273   5.085   4.372  15.750 -0.3869  0.4545  0.3812
11620TIP3   OH256274   1.691   5.291   4.562  0.7551 -0.2957 -0.0290
11620TIP3    H156275   1.663   5.383   4.558  0.2185 -0.5021 -1.2602
11620TIP3    H256276   1.615   5.242   4.531  1.0402 -1.1601  0.6415
11621TIP3   OH256277   0.179   6.334  13.417  0.7055  0.8504  0.1428
11621TIP3    H156278   0.177   6.300  13.327  0.7661 -0.5417  0.6537
11621TIP3    H256279   0.094   6.312  13.453  0.3060  2.3130  0.1175
11622TIP3   OH256280   2.468   4.640   0.534  0.0900 -0.1079  0.6392
11622TIP3    H156281   2.441   4.690   0.610  1.6760 -0.7434  1.6342
11622TIP3    H256282   2.440   4.693   0.459  1.8088  2.3242  1.6514
11623TIP3   OH256283   5.382   6.151   6.248  0.7738 -0.3761  0.5758
11623TIP3    H156284   5.336   6.159   6.332  0.8484 -1.9078  0.7933
11623TIP3    H256285   5.313   6.147   6.183  0.7749  3.1201  0.3201
11624TIP3   OH256286   6.651   4.727   5.955 -0.1360 -0.0163  0.1433
11624TIP3    H156287   6.606   4.749   5.873  1.0782  0.5475 -0.3956
11624TIP3    H256288   6.643   4.632   5.963  0.8739 -0.2444 -1.3361
11625TIP3   OH256289   0.872   4.974   1.020  0.1404 -0.1496 -0.3520
11625TIP3    H156290   0.840   4.918   0.949 -1.1246  0.8879 -0.6328
11625TIP3    H256291   0.857   4.924   1.100 -0.8205 -0.2894 -0.6167
11626TIP3   OH256292   0.982   5.175   5.029 -0.4935 -0.0501  0.4965
11626TIP3    H156293   0.937   5.148   4.949  2.7918  1.5864 -2.0241
11626TIP3    H256294   0.920   5.233   5.073 -2.3180 -0.8870 -0.9043
11627TIP3   OH256295   5.070   3.171  16.630  0.4724 -0.0323 -0.1988
11627TIP3    H156296   5.025   3.133  16.706  0.3634 -1.0669 -0.7835
11627TIP3    H256297   5.018   3.144  16.555  3.0864 -2.8691 -1.0842
11628TIP3   OH256298   3.079   1.478   5.632 -0.2940  0.1134 -0.5207
11628TIP3    H156299   3.005   1.435   5.589 -0.7625  1.3406 -0.9893
11628TIP3    H256300   3.039   1.522   5.707  0.3909 -1.3563  0.7097
11629TIP3   OH256301   2.132   6.605   1.747 -0.6857 -0.2151  0.6382
11629TIP3    H156302   2.150   6.582   1.838 -1.1041  0.1000  0.8027
11629TIP3    H256303   2.216   6.599   1.703 -0.1892  1.1099  1.3707
11630TIP3   OH256304   1.287   6.695  16.135 -0.5517 -0.2757  0.1437
11630TIP3    H156305   1.216   6.697  16.071  0.0501  0.6181 -0.5010
11630TIP3    H256306   1.340   6.772  16.115  0.2272 -0.5640  1.0509
11631TIP3   OH256307   1.494   5.785   2.749 -0.0803 -0.1345  0.0368
11631TIP3    H156308   1.540   5.791   2.665  0.3301  0.2031  0.2794
11631TIP3    H256309   1.551   5.730   2.803  0.1744  0.4899  0.4196
11632TIP3   OH256310   5.593   5.410   5.352  0.5047  0.1039 -0.3005
11632TIP3    H156311   5.589   5.314   5.344  1.9746  0.1662 -2.1033
11632TIP3    H256312   5.571   5.427   5.443  2.7617 -2.1426  0.7329
11633TIP3   OH256313   1.450   4.618   3.398  0.1830  0.5236 -0.1798
11633TIP3    H156314   1.523   4.660   3.443 -0.4072  0.7520  0.5732
11633TIP3    H256315   1.435   4.672   3.321  0.3373  0.8868  0.0435
11634TIP3   OH256316   5.670   5.337   0.194  0.4171  0.4044  0.2542
11634TIP3    H156317   5.693   5.367   0.107  0.5237 -0.6194 -0.0788
11634TIP3    H256318   5.673   5.242   0.189 -1.5529  0.2694  0.8250
11635TIP3   OH256319   4.563   3.632   3.960  0.5800  0.0785  0.0750
11635TIP3    H156320   4.473   3.600   3.968  0.7690 -0.4319  0.1112
11635TIP3    H256321   4.566   3.670   3.871 -0.5930  2.9746  1.2042
11636TIP3   OH256322   4.099   0.926   3.838  0.2257 -0.2999  0.5214
11636TIP3    H156323   4.105   0.865   3.912  1.6841  0.4273  1.0178
11636TIP3    H256324   4.042   0.881   3.775 -0.0049 -1.4820  1.5467
11637TIP3   OH256325   3.616   0.438  17.098  0.0372 -0.3426  0.0462
11637TIP3    H156326   3.548   0.499  17.127 -0.7530 -0.7838 -0.8081
11637TIP3    H256327   3.621   0.452  17.003  0.6523 -0.8049  0.0062
11638TIP3   OH256328   0.797   4.768  14.360 -0.0971  0.7828 -0.0624
11638TIP3    H156329   0.819   4.791  14.269  1.1938 -1.1251 -0.2461
11638TIP3    H256330   0.871   4.801  14.411 -0.3665  0.9953  0.1886
11639TIP3   OH256331   3.364   4.373   3.659  0.3552 -0.2260 -0.2107
11639TIP3    H156332   3.353   4.438   3.590  0.8918  0.2708  0.1642
11639TIP3    H256333   3.314   4.407   3.733 -0.3756 -0.8500 -0.4081
11640TIP3   OH256334   3.314   1.433   4.811  0.1541 -0.2271  0.6906
11640TIP3    H156335   3.226   1.467   4.828  0.8964  1.1787  1.7997
11640TIP3    H256336   3.362   1.508   4.775  0.1120 -1.7496 -2.7409
11641TIP3   OH256337   6.125   5.343  14.470  0.2373 -0.2583  0.3899
11641TIP3    H156338   6.074   5.402  14.525  0.5181 -0.5387  0.9560
11641TIP3    H256339   6.213   5.344  14.508  0.7214  0.4090 -0.7266
11642TIP3   OH256340   4.252   2.294  11.915 -0.7835  0.2271 -0.1470
11642TIP3    H156341   4.206   2.272  11.996  0.8518  0.7070  0.9396
11642TIP3    H256342   4.319   2.358  11.942  0.0170  0.1125 -1.8061
11643TIP3   OH256343   6.026   4.549  11.769  0.3157  0.6766  0.8191
11643TIP3    H156344   5.969   4.472  11.765 -0.6284  1.3478  1.4315
11643TIP3    H256345   6.062   4.557  11.681 -0.3038  0.0799  0.5113
11644TIP3   OH256346   5.601   3.520  12.230 -0.2186  0.2067 -0.1817
11644TIP3    H156347   5.565   3.607  12.247 -1.9737 -0.8686  2.0204
11644TIP3    H256348   5.675   3.513  12.290 -0.6034 -0.0907  0.2726
11645TIP3   OH256349   3.830   1.208  13.224 -0.1947 -0.1688 -0.0750
11645TIP3    H156350   3.914   1.177  13.257 -0.1927  0.5781  0.6212
11645TIP3    H256351   3.849   1.291  13.181 -0.7090  0.4176  0.8256
11646TIP3   OH256352   3.620   2.851  16.582  0.2729  0.3523  0.5505
11646TIP3    H156353   3.699   2.809  16.616  0.5048  0.5242  0.2255
11646TIP3    H256354   3.629   2.943  16.607  1.2308  0.8166 -1.3635
11647TIP3   OH256355   0.257   3.994  12.312 -0.4625  0.6646  0.2966
11647TIP3    H156356   0.322   3.936  12.351 -1.8502 -0.7016  0.6681
11647TIP3    H256357   0.227   4.048  12.385  0.0617  1.0976  0.1875
11648TIP3   OH256358   4.650   6.343   2.599  0.0750  0.1120  0.0589
11648TIP3    H156359   4.595   6.282   2.549  0.4034  0.7429 -1.0872
11648TIP3    H256360   4.738   6.305   2.595 -0.1049 -0.4075  1.0902
11649TIP3   OH256361   1.492   4.174   4.706  0.7276  0.1937 -0.2894
11649TIP3    H156362   1.401   4.203   4.707  0.5114 -0.4674 -0.6338
11649TIP3    H256363   1.487   4.079   4.717  1.4208  0.2489  0.5522
11650TIP3   OH256364   1.404   5.482  13.196  0.7025  0.2712 -0.1401
11650TIP3    H156365   1.486   5.529  13.186  1.0929 -0.7354 -1.8447
11650TIP3    H256366   1.376   5.462  13.106 -1.4352  0.6513  0.4015
11651TIP3   OH256367   2.967   4.011   5.897 -0.2065  0.1927  0.6144
11651TIP3    H156368   3.008   4.068   5.963  1.8124 -2.8115  2.0448
11651TIP3    H256369   2.883   3.986   5.937 -0.0775  0.3330  0.9757
11652TIP3   OH256370   1.174   1.731   4.904  0.2859  0.2797  0.2172
11652TIP3    H156371   1.096   1.693   4.946 -0.8797  1.1113 -1.1551
11652TIP3    H256372   1.223   1.655   4.874 -1.1962 -0.2113 -1.0324
11653TIP3   OH256373   4.100   0.572  15.367  0.2742  0.6406  0.3007
11653TIP3    H156374   4.135   0.643  15.313  0.6804 -2.3285 -3.5888
11653TIP3    H256375   4.177   0.526  15.399 -0.0005  0.2479  0.3980
11654TIP3   OH256376   4.359   4.434   6.065  0.5023  0.0735 -0.0806
11654TIP3    H156377   4.272   4.421   6.027  0.2082  0.8962  0.3031
11654TIP3    H256378   4.375   4.528   6.058  0.0341  0.4009  2.6804
11655TIP3   OH256379   5.689   0.782  13.166  0.1487  0.7120  0.1208
11655TIP3    H156380   5.660   0.716  13.103 -2.2995  1.2858  0.5961
11655TIP3    H256381   5.750   0.736  13.224 -1.8346 -1.2463  0.6993
11656TIP3   OH256382   1.435   4.470   2.505  0.1041  0.0913 -0.0444
11656TIP3    H156383   1.511   4.514   2.467 -0.6956  2.6862  1.2450
11656TIP3    H256384   1.362   4.493   2.447 -0.2821  0.2818  0.5119
11657TIP3   OH256385   2.422   6.236  16.955 -0.2812  0.5128  0.1660
11657TIP3    H156386   2.450   6.152  16.918 -1.1029  0.3428 -0.0880
11657TIP3    H256387   2.449   6.300  16.889 -0.6746  0.3307 -0.1763
11658TIP3   OH256388   4.265   6.231  14.744 -0.3884 -0.5589  0.1421
11658TIP3    H156389   4.326   6.243  14.817 -0.1936 -1.6710  0.1664
11658TIP3    H256390   4.287   6.145  14.708 -1.1853 -0.4730 -0.5645
11659TIP3   OH256391   1.712   1.240   4.802 -0.1803 -0.5977  0.5899
11659TIP3    H156392   1.701   1.157   4.849 -2.2216  0.2000  1.5698
11659TIP3    H256393   1.642   1.241   4.737  1.2241 -0.6443 -0.9611
11660TIP3   OH256394   6.728   5.500  11.582  0.6476  0.5206  0.4144
11660TIP3    H156395   6.805   5.502  11.525 -1.0582 -0.6542 -2.0472
11660TIP3    H256396   6.674   5.573  11.551 -1.4705 -1.6836 -1.2856
11661TIP3   OH256397   3.090   2.467  10.618 -0.4860  0.3612  0.0130
11661TIP3    H156398   3.054   2.437  10.702 -1.2660  1.1184 -0.0383
11661TIP3    H256399   3.185   2.463  10.630 -0.5685 -1.5920  0.1887
11662TIP3   OH256400   4.718   4.684  15.602 -0.3139 -0.0980  0.2633
11662TIP3    H156401   4.704   4.597  15.564 -2.7042  0.2715  0.2281
11662TIP3    H256402   4.733   4.741  15.527  0.9889 -0.4132  0.2708
11663TIP3   OH256403   3.070   1.369   3.617  0.1074  0.1742  0.5017
11663TIP3    H156404   3.158   1.394   3.644  1.2832  0.4315 -3.2829
11663TIP3    H256405   3.026   1.452   3.596 -0.8270  0.0045  1.7499
11664TIP3   OH256406   3.449   1.646  12.493  0.1302 -0.4626 -0.3745
11664TIP3    H156407   3.462   1.587  12.567  1.5037 -1.2176 -1.1966
11664TIP3    H256408   3.419   1.728  12.533 -1.5263 -1.6240  0.7824
11665TIP3   OH256409   2.531   5.555   4.663  0.0831  0.4096  0.9256
11665TIP3    H156410   2.478   5.607   4.603 -2.1560  0.1793  2.6819
11665TIP3    H256411   2.553   5.477   4.612 -1.1683  0.5538  0.1318
11666TIP3   OH256412   6.185   6.498  12.869 -0.1766  0.0254 -0.1728
11666TIP3    H156413   6.169   6.584  12.909 -2.5454 -0.3147 -0.2676
11666TIP3    H256414   6.279   6.496  12.853  0.5750  1.0143  3.5120
11667TIP3   OH256415   2.549   4.061   2.162  0.1145 -0.2321 -0.7532
11667TIP3    H156416   2.532   3.969   2.141  0.4284 -0.5620  0.3913
11667TIP3    H256417   2.535   4.067   2.256  1.1018  0.6679 -0.6566
11668TIP3   OH256418   0.846   6.110   2.434 -0.0714  0.3852  0.0043
11668TIP3    H156419   0.894   6.040   2.478  0.9312  0.3135 -1.1726
11668TIP3    H256420   0.780   6.064   2.381 -0.6010  0.4197  0.6364
11669TIP3   OH256421   5.595   3.325  11.376 -0.1115  0.0215 -0.3271
11669TIP3    H156422   5.507   3.307  11.344  0.3164  0.0682 -1.5542
11669TIP3    H256423   5.639   3.367  11.302  0.0614  2.6480  1.2207
11670TIP3   OH256424   6.071   4.837  16.954  0.7893 -0.0942  0.3055
11670TIP3    H156425   6.161   4.857  16.928  0.0117  1.0225 -1.6301
11670TIP3    H256426   6.027   4.813  16.872 -1.1225  1.1176  0.9576
11671TIP3   OH256427   3.852   6.597   2.622 -0.3360 -0.1897 -0.3895
11671TIP3    H156428   3.937   6.585   2.663  0.0619  0.3464 -1.0409
11671TIP3    H256429   3.871   6.607   2.529 -0.9977  1.0386 -0.4117
11672TIP3   OH256430   1.402   5.448   2.255 -0.6730 -0.6223 -0.0959
11672TIP3    H156431   1.424   5.426   2.164  1.9350  0.9368  0.1109
11672TIP3    H256432   1.364   5.367   2.290  0.2122 -1.8965 -1.9708
11673TIP3   OH256433   4.574   3.591  13.059  0.2425  0.0759 -0.4514
11673TIP3    H156434   4.599   3.510  13.015  0.4484 -0.2825  0.3208
11673TIP3    H256435   4.480   3.583  13.073  0.3862 -0.3419  0.2671
11674TIP3   OH256436   6.402   0.821   4.457  0.0353 -0.4126  0.6415
11674TIP3    H156437   6.347   0.813   4.535  0.4188 -0.4397  0.9143
11674TIP3    H256438   6.460   0.894   4.477 -0.2038 -0.0968  0.1686
11675TIP3   OH256439   6.192   5.495  12.419 -0.9149  0.1698 -0.2527
11675TIP3    H156440   6.219   5.584  12.438  0.4896 -0.0242 -1.2786
11675TIP3    H256441   6.219   5.480  12.329  0.2900 -1.8074  0.3889
11676TIP3   OH256442   3.248   2.230  13.497  0.0163  0.9593 -0.3049
11676TIP3    H156443   3.221   2.295  13.563 -1.3299 -1.6124  1.7916
11676TIP3    H256444   3.179   2.164  13.499  1.8037 -1.0255 -1.6883
11677TIP3   OH256445   3.192   1.920  14.422  0.1390  0.3167  0.4728
11677TIP3    H156446   3.277   1.905  14.463  0.9635  0.0418 -1.2805
11677TIP3    H256447   3.171   2.011  14.445  0.5262  0.1434  1.5647
11678TIP3   OH256448   3.142   4.668  11.984  0.6691  0.4970  0.3327
11678TIP3    H156449   3.174   4.580  12.005  1.1484  0.7479  0.6443
11678TIP3    H256450   3.049   4.655  11.963  0.4026  0.1019  1.7030
11679TIP3   OH256451   5.465   4.460   1.248 -0.1306  0.0790  0.1014
11679TIP3    H156452   5.389   4.403   1.253  0.5614 -0.8339  0.3828
11679TIP3    H256453   5.432   4.547   1.272 -1.3251 -0.0671 -0.9689
11680TIP3   OH256454   4.413   4.985   1.904  0.1352  0.3978  0.1382
11680TIP3    H156455   4.431   4.937   1.823 -0.4505 -0.0730  0.2876
11680TIP3    H256456   4.483   5.051   1.908  0.5029  0.0524 -0.4529
11681TIP3   OH256457   4.387   4.273  14.710 -0.3833  0.3188 -0.2512
11681TIP3    H156458   4.402   4.368  14.706 -0.0452  0.2220 -1.4765
11681TIP3    H256459   4.474   4.235  14.702 -0.4152 -0.0804  1.2524
11682TIP3   OH256460   4.415   0.347   3.625  0.6572  0.2899  0.1884
11682TIP3    H156461   4.334   0.386   3.660  0.3845 -0.2673  0.1807
11682TIP3    H256462   4.476   0.350   3.699 -0.3194 -2.0678  1.1320
11683TIP3   OH256463   6.232   1.540  15.560  0.1713  0.5289 -0.4155
11683TIP3    H156464   6.279   1.477  15.506 -3.3777 -1.8023 -0.9131
11683TIP3    H256465   6.239   1.506  15.649 -2.0198 -0.8051 -0.7274
11684TIP3   OH256466   1.917   3.540   6.069  0.5597  0.4340 -0.3399
11684TIP3    H156467   1.948   3.504   6.152 -0.5247  0.6925  0.1846
11684TIP3    H256468   1.995   3.574   6.026  1.1397  0.1845  0.5202
11685TIP3   OH256469   1.914   3.075  11.931 -0.3914 -0.3045 -0.4277
11685TIP3    H156470   1.951   3.076  11.843  0.0080 -0.9766 -0.2679
11685TIP3    H256471   1.836   3.130  11.925 -0.3879 -0.3880 -1.2094
11686TIP3   OH256472   4.091   1.931   3.198  0.1297 -0.5779 -0.5440
11686TIP3    H156473   4.043   1.925   3.280  0.0898  0.6737 -0.4725
11686TIP3    H256474   4.109   1.840   3.174 -2.1224 -1.0639 -0.4999
11687TIP3   OH256475   2.477   1.469   5.428  0.3231  0.0694 -0.0479
11687TIP3    H156476   2.506   1.412   5.500  0.3235 -0.0084 -0.1106
11687TIP3    H256477   2.444   1.548   5.472  1.6470  0.6181 -0.0090
11688TIP3   OH256478   5.575   1.335  15.359 -0.3001 -0.0007 -0.7593
11688TIP3    H156479   5.520   1.277  15.307 -0.2247 -0.4336 -0.3610
11688TIP3    H256480   5.533   1.337  15.445  0.1255 -0.0760 -0.5483
11689TIP3   OH256481   5.988   6.164   4.969  0.3955 -0.1064  0.5271
11689TIP3    H156482   5.999   6.170   4.874  0.3450 -1.3926  0.4351
11689TIP3    H256483   6.016   6.250   5.001 -0.5007  0.6781 -0.7218
11690TIP3   OH256484   5.558   3.298   3.738  0.0222 -0.1503 -0.2138
11690TIP3    H156485   5.525   3.384   3.763  0.4572 -0.1845  0.4945
11690TIP3    H256486   5.629   3.280   3.800  1.3443 -0.1063 -1.6757
11691TIP3   OH256487   6.737   6.365  13.706 -0.2009 -0.0354 -0.1603
11691TIP3    H156488   6.793   6.334  13.777  0.2401  1.0191 -0.0373
11691TIP3    H256489   6.731   6.291  13.646  2.4469  0.2753 -0.8586
11692TIP3   OH256490   4.343   0.132   2.348  0.5809 -0.1463 -0.6885
11692TIP3    H156491   4.306   0.055   2.304  1.4973 -0.2202 -1.3429
11692TIP3    H256492   4.404   0.169   2.285  1.6500 -0.0377  0.3829
11693TIP3   OH256493   3.715   5.407   2.780 -0.3244 -0.1757 -0.3231
11693TIP3    H156494   3.627   5.429   2.748  0.0647  1.5199 -0.2563
11693TIP3    H256495   3.702   5.324   2.827 -2.0639  0.4511  0.3856
11694TIP3   OH256496   2.405   0.554   5.934  0.1456  0.5699 -0.1090
11694TIP3    H156497   2.407   0.649   5.947 -2.0311  0.7813 -1.1436
11694TIP3    H256498   2.344   0.540   5.861  0.1763 -1.6414  0.2327
11695TIP3   OH256499   5.907   6.384  10.291  0.0165  0.1417  0.0521
11695TIP3    H156500   5.863   6.428  10.364 -1.2888  0.0662 -0.6741
11695TIP3    H256501   5.881   6.292  10.300  0.9949 -0.1231  0.2998
11696TIP3   OH256502   6.127   3.961   0.275  0.3063 -0.0449 -0.2669
11696TIP3    H156503   6.066   4.008   0.218  1.2060  0.7849 -0.5437
11696TIP3    H256504   6.086   3.875   0.286 -0.8890  0.4760 -0.5011
11697TIP3   OH256505   5.718   2.856  16.521 -0.1538 -0.0996 -0.3287
11697TIP3    H156506   5.765   2.773  16.527 -1.6891 -0.9572  0.0898
11697TIP3    H256507   5.741   2.902  16.602 -1.0624 -1.0673  0.4827
11698TIP3   OH256508   1.602   3.773   1.276 -0.0900 -0.2441  0.1728
11698TIP3    H156509   1.539   3.702   1.288  0.8907 -1.0373  0.6823
11698TIP3    H256510   1.550   3.853   1.285 -1.0546 -0.8923  0.4133
11699TIP3   OH256511   5.068   0.238   4.883 -0.5670 -0.4692 -0.5439
11699TIP3    H156512   5.016   0.202   4.955 -1.1073  1.4569  0.0514
11699TIP3    H256513   5.128   0.300   4.926  0.6784 -1.0094 -1.4901
11700TIP3   OH256514   6.782   0.609   4.127 -0.5737 -0.0665  0.1644
11700TIP3    H156515   6.862   0.653   4.098 -0.9663 -0.9471 -2.4644
11700TIP3    H256516   6.749   0.662   4.199  2.5726  0.0935  1.5424
11701TIP3   OH256517   4.319   3.394  15.368 -0.2683 -0.6451 -0.6664
11701TIP3    H156518   4.252   3.336  15.404  0.5001 -0.7130  0.6866
11701TIP3    H256519   4.275   3.442  15.297 -2.1609  0.4225  1.2016
11702TIP3   OH256520   3.493   1.366   4.166 -0.5314 -0.2371 -0.0972
11702TIP3    H156521   3.574   1.369   4.116  0.7396  0.3250  1.9032
11702TIP3    H256522   3.498   1.284   4.216 -0.7539  0.2304  0.7179
11703TIP3   OH256523   4.025   1.769   2.453 -0.2833  0.0785  0.3545
11703TIP3    H156524   4.115   1.738   2.448 -0.3502  0.0091 -0.6967
11703TIP3    H256525   3.997   1.776   2.361 -1.1047  0.8000  0.6473
11704TIP3   OH256526   2.324   1.550  16.036  0.2659  0.3662  0.4028
11704TIP3    H156527   2.301   1.643  16.039 -0.3476  0.1659  2.6736
11704TIP3    H256528   2.298   1.516  16.121  2.0682 -1.5411  0.2244
11705TIP3   OH256529   5.962   1.605  12.017  0.3444 -0.2022  0.2304
11705TIP3    H156530   6.019   1.530  12.035  0.2614 -0.0836  1.0311
11705TIP3    H256531   5.996   1.674  12.075 -0.4502 -0.0553  0.5213
11706TIP3   OH256532   4.705   3.222   1.750  0.2986  0.1673  0.3435
11706TIP3    H156533   4.741   3.161   1.685 -0.9134 -0.9262  0.6746
11706TIP3    H256534   4.610   3.218   1.736  0.0163 -0.1901  2.2788
11707TIP3   OH256535   1.713   2.993   2.684  1.0071  0.6089 -0.1621
11707TIP3    H156536   1.652   3.059   2.717  0.8768 -0.1420  1.1463
11707TIP3    H256537   1.754   3.034   2.608 -0.7347  1.3231 -0.7444
11708TIP3   OH256538   4.704   2.268   0.478  0.1833 -0.1727 -0.1323
11708TIP3    H156539   4.758   2.303   0.549 -0.7987 -0.8646  0.9792
11708TIP3    H256540   4.641   2.338   0.460 -0.3716 -0.5024  0.5489
11709TIP3   OH256541   6.302   3.156  14.090  0.3172  0.0249  0.2164
11709TIP3    H156542   6.333   3.214  14.019  0.1609 -0.8796 -0.5995
11709TIP3    H256543   6.383   3.121  14.128  0.3603 -1.3642 -1.1022
11710TIP3   OH256544   5.781   5.074  15.216 -0.2182  0.3193 -0.0417
11710TIP3    H156545   5.766   5.167  15.196  0.1771  0.1100 -1.3497
11710TIP3    H256546   5.812   5.074  15.307 -0.2321  1.4691 -0.0241
11711TIP3   OH256547   0.265   6.561   3.788  0.2646 -1.2501 -0.0517
11711TIP3    H156548   0.343   6.616   3.798  0.2576 -1.2674  0.0964
11711TIP3    H256549   0.212   6.580   3.866 -0.3854 -0.4183 -0.6871
11712TIP3   OH256550   4.486   2.746  15.765 -0.2991  0.4034  0.0232
11712TIP3    H156551   4.499   2.824  15.711 -1.2750  1.6299  1.5121
11712TIP3    H256552   4.562   2.744  15.822  0.0839 -0.1549 -0.5018
11713TIP3   OH256553   4.119   6.011   4.247 -0.2216  0.1891  0.4953
11713TIP3    H156554   4.052   6.053   4.301  1.3695  0.6166  2.1830
11713TIP3    H256555   4.147   5.935   4.299  0.6375  0.0491 -0.1724
11714TIP3   OH256556   1.322   3.702   3.006 -0.1926 -0.4324 -0.0864
11714TIP3    H156557   1.327   3.794   2.980  1.8722  0.1802  2.2672
11714TIP3    H256558   1.250   3.698   3.068 -0.1979 -0.3853 -0.0897
11715TIP3   OH256559   2.158   5.234  14.832  0.3143  0.7953  0.2636
11715TIP3    H156560   2.115   5.261  14.750  0.4474  0.0174 -0.0661
11715TIP3    H256561   2.169   5.315  14.881 -0.5142  1.1595 -0.1391
11716TIP3   OH256562   1.345   4.605  14.538  0.7815  0.1645  0.8969
11716TIP3    H156563   1.320   4.631  14.626  0.2289  0.5952  0.6137
11716TIP3    H256564   1.379   4.686  14.498  0.8848  0.0041  0.6593
11717TIP3   OH256565   5.597   2.292  12.326  0.3175  0.2030 -0.3880
11717TIP3    H156566   5.579   2.383  12.348  0.9759  0.8877 -2.5185
11717TIP3    H256567   5.684   2.275  12.362 -0.5973 -0.2098  1.7008
11718TIP3   OH256568   6.251   0.897  14.277 -0.6602 -0.0453  0.1009
11718TIP3    H156569   6.220   0.920  14.190  1.9018  1.5491 -0.4181
11718TIP3    H256570   6.293   0.812  14.266 -2.2126 -0.8635  0.2524
11719TIP3   OH256571   2.606   1.934   3.212  0.5575  0.4296  0.2864
11719TIP3    H156572   2.531   1.977   3.171 -0.8126 -2.6024 -0.4517
11719TIP3    H256573   2.568   1.881   3.282  2.1997  0.0436  0.9107
11720TIP3   OH256574   0.784   1.448   5.256 -0.4524 -0.0540 -0.2311
11720TIP3    H156575   0.784   1.461   5.351  0.9925 -0.1564 -0.2028
11720TIP3    H256576   0.699   1.482   5.227 -0.6606  0.5226  1.0216
11721TIP3   OH256577   2.577   0.910  17.151  0.0729 -0.3280  0.6993
11721TIP3    H156578   2.503   0.876  17.201  2.1315 -0.8958  3.5255
11721TIP3    H256579   2.588   0.849  17.078 -2.3986 -0.0447  0.0521
11722TIP3   OH256580   0.210   2.946  12.324 -0.4144  0.2898  0.0206
11722TIP3    H156581   0.124   2.956  12.283 -0.4177 -1.3933 -0.4385
11722TIP3    H256582   0.256   2.883  12.269  0.4921 -0.1201  1.2137
11723TIP3   OH256583   4.416   6.343   3.163 -0.0148  0.0316 -0.8594
11723TIP3    H156584   4.413   6.285   3.087  1.7530 -1.6049  0.2683
11723TIP3    H256585   4.352   6.412   3.144 -1.5388 -1.8111 -2.6241
11724TIP3   OH256586   4.817   6.776  15.195 -0.0222 -0.4872  0.0687
11724TIP3    H156587   4.789   6.764  15.105 -1.4989  0.3967  0.3918
11724TIP3    H256588   4.791   6.696  15.240  5.1246 -3.1010 -1.2741
11725TIP3   OH256589   4.082   4.397   6.053  0.2879  0.1165  0.1830
11725TIP3    H156590   4.010   4.448   6.016  0.7413  0.9578  0.4399
11725TIP3    H256591   4.039   4.338   6.116 -0.2093  0.3929  0.1105
11726TIP3   OH256592   4.973   4.765   1.071 -0.5885 -0.3217 -0.7063
11726TIP3    H156593   5.062   4.778   1.038 -1.0141  1.5760 -1.1331
11726TIP3    H256594   4.940   4.853   1.088 -1.5121 -1.1344  1.8327
11727TIP3   OH256595   4.157   1.512   1.866 -0.0752 -0.3708  0.5740
11727TIP3    H156596   4.180   1.536   1.777  0.6315 -2.8457  0.0703
11727TIP3    H256597   4.229   1.545   1.920 -0.4801  1.0753  0.2688
11728TIP3   OH256598   1.725   1.487  10.524  0.2201 -0.5333  0.0488
11728TIP3    H156599   1.808   1.442  10.541  1.6813  1.4209 -1.7052
11728TIP3    H256600   1.675   1.476  10.605  2.0240 -2.0963  0.9881
11729TIP3   OH256601   5.179   2.789   3.465 -0.4128 -0.2103 -0.2001
11729TIP3    H156602   5.130   2.796   3.383  0.2385  1.1420 -0.4907
11729TIP3    H256603   5.197   2.695   3.474 -0.8004 -0.4169 -1.4108
11730TIP3   OH256604   6.581   3.295  11.087 -0.0560 -0.6146 -0.0191
11730TIP3    H156605   6.600   3.296  10.993  2.8157 -1.3744  0.4887
11730TIP3    H256606   6.560   3.385  11.108  3.2673  0.3919 -0.7094
11731TIP3   OH256607   2.630   5.647   2.572 -0.0777  0.0660  0.3170
11731TIP3    H156608   2.615   5.600   2.491  0.5733  3.7287 -2.0582
11731TIP3    H256609   2.714   5.614   2.605 -0.2005 -1.2146 -0.6492
11732TIP3   OH256610   2.900   2.594  14.406 -0.5457  0.0878  0.1679
11732TIP3    H156611   2.948   2.673  14.379 -0.3543 -0.4909 -1.2600
11732TIP3    H256612   2.964   2.545  14.458 -1.0940  1.4798  2.2390
11733TIP3   OH256613   2.445   2.874  12.284 -0.4041  0.2218  0.3781
11733TIP3    H156614   2.462   2.965  12.260 -0.5497  0.3719  0.8348
11733TIP3    H256615   2.428   2.830  12.200  0.9913  0.3185  0.0249
11734TIP3   OH256616   1.760   2.641   4.576 -0.6584  0.0424  0.4331
11734TIP3    H156617   1.696   2.607   4.515  2.5464 -0.8942 -2.5819
11734TIP3    H256618   1.766   2.734   4.556 -0.0436 -0.1489 -0.2821
11735TIP3   OH256619   6.414   0.952   0.390  0.2922 -0.0117  0.4667
11735TIP3    H156620   6.414   0.860   0.417  1.0796 -0.2723 -0.3982
11735TIP3    H256621   6.507   0.976   0.388  0.2203  0.1648 -1.4512
11736TIP3   OH256622   2.182   3.716  16.576 -0.1848 -0.2928 -0.8777
11736TIP3    H156623   2.242   3.698  16.504 -0.6262  1.0615 -1.5808
11736TIP3    H256624   2.215   3.662  16.648  1.0399 -0.6258 -1.6765
11737TIP3   OH256625   3.644   4.315   4.544  0.9331  0.6797 -0.8823
11737TIP3    H156626   3.584   4.262   4.596  0.8637  0.5483 -1.0949
11737TIP3    H256627   3.588   4.379   4.501  1.1139  1.4342  0.0025
11738TIP3   OH256628   3.700   3.742   4.331 -0.1389  0.6667 -0.2620
11738TIP3    H156629   3.711   3.835   4.352  0.1437  0.5387  0.1331
11738TIP3    H256630   3.728   3.695   4.409 -3.2538  0.3349  0.7507
11739TIP3   OH256631   1.193   5.484   5.627  0.2868 -0.1595  0.0303
11739TIP3    H156632   1.245   5.412   5.664  0.0315  0.6046  1.9169
11739TIP3    H256633   1.254   5.531   5.571  0.5704 -1.5945 -0.9043
11740TIP3   OH256634   2.054   5.528  16.312 -0.0045  0.2639 -0.5583
11740TIP3    H156635   2.138   5.566  16.341 -0.7042 -0.2280  2.2870
11740TIP3    H256636   2.016   5.595  16.255  0.3771  2.3834  1.6013
11741TIP3   OH256637   1.307   0.705   3.122  0.1347 -0.3018 -0.2418
11741TIP3    H156638   1.289   0.797   3.104  0.4421 -0.4035 -1.1167
11741TIP3    H256639   1.395   0.705   3.159  0.0791 -0.2306 -0.1084
11742TIP3   OH256640   4.283   5.461  15.687  0.0338 -0.7125  0.4452
11742TIP3    H156641   4.270   5.523  15.615 -0.3670 -0.1216  1.0081
11742TIP3    H256642   4.322   5.384  15.647  2.0429  0.5164 -0.0344
11743TIP3   OH256643   3.124   2.999   4.810  0.0400  0.2512  0.2920
11743TIP3    H156644   3.122   3.091   4.840  0.4008  0.2459  0.3462
11743TIP3    H256645   3.209   2.967   4.842 -0.8379 -0.6110  1.7919
11744TIP3   OH256646   2.767   5.134  17.090 -0.4369  0.5422 -0.2727
11744TIP3    H156647   2.702   5.136  17.019 -0.9232 -0.2248  0.1437
11744TIP3    H256648   2.768   5.043  17.118 -0.7163  0.9638  1.1307
11745TIP3   OH256649   1.923   0.181   3.259  0.0382  1.1698  0.5077
11745TIP3    H156650   1.982   0.171   3.184 -1.7665  0.7147 -0.8740
11745TIP3    H256651   1.943   0.106   3.315  0.5370  0.8472 -0.0960
11746TIP3   OH256652   4.062   3.657   0.356 -0.3471 -0.0275  0.1710
11746TIP3    H156653   4.134   3.656   0.420  0.3533 -0.7153 -0.6189
11746TIP3    H256654   4.036   3.565   0.349 -2.4953  0.4156  1.7559
11747TIP3   OH256655   5.937   3.082   4.542  0.8450  0.2197  0.1715
11747TIP3    H156656   5.867   3.101   4.604  0.5138 -0.9299  0.1527
11747TIP3    H256657   5.893   3.067   4.458  1.1599  0.1069  0.0234
11748TIP3   OH256658   6.065   3.575  16.974 -0.6297 -0.2818  0.5265
11748TIP3    H156659   6.027   3.510  16.916  0.7379 -0.2237 -0.4691
11748TIP3    H256660   6.052   3.659  16.930  0.5959 -0.2586  0.1873
11749TIP3   OH256661   5.913   0.718  14.988  0.5143 -0.1083  0.5277
11749TIP3    H156662   5.994   0.669  14.972 -0.1464 -1.1775  0.4342
11749TIP3    H256663   5.893   0.759  14.903  1.2520  0.6114  0.6974
11750TIP3   OH256664   2.751   6.083  15.733 -0.0599 -0.4207 -0.0825
11750TIP3    H156665   2.809   6.099  15.659  1.8012 -1.4388  1.1074
11750TIP3    H256666   2.725   5.992  15.724  2.6292 -1.4998  2.0975
11751TIP3   OH256667   1.859   1.126  14.407  0.2652 -0.4178 -0.4678
11751TIP3    H156668   1.769   1.118  14.376  0.2657 -1.6869 -0.1957
11751TIP3    H256669   1.852   1.120  14.502  0.5205  0.7353 -0.3729
11752TIP3   OH256670   5.353   3.732  12.459  0.3031 -0.2637 -0.0680
11752TIP3    H156671   5.347   3.825  12.482 -0.1976 -0.6258  1.2673
11752TIP3    H256672   5.264   3.698  12.471  0.9752 -1.4306  1.6699
11753TIP3   OH256673   5.239   0.708  16.803 -0.3016 -0.2951 -0.2801
11753TIP3    H156674   5.244   0.767  16.728 -3.2983  1.5506  0.8532
11753TIP3    H256675   5.205   0.626  16.767 -2.7290  0.9051 -0.8394
11754TIP3   OH256676   4.482   4.845   1.696  0.3511  0.2951  0.1261
11754TIP3    H156677   4.481   4.887   1.610  0.9658 -0.3651 -0.2046
11754TIP3    H256678   4.471   4.752   1.678 -0.7292  0.2746  0.8469
11755TIP3   OH256679   1.737   4.384   5.302 -0.4999  0.3316  0.5913
11755TIP3    H156680   1.825   4.372   5.267 -0.7880  1.1379 -0.4450
11755TIP3    H256681   1.741   4.351   5.391  0.1015 -2.4196 -0.3984
11756TIP3   OH256682   3.995   2.720  13.181  0.5594  0.3556  0.9536
11756TIP3    H156683   4.015   2.789  13.244 -0.4075  0.3701  1.2443
11756TIP3    H256684   4.054   2.648  13.205  1.2316  0.9039  0.9444
11757TIP3   OH256685   5.610   0.464  13.225  0.5311  0.0118  0.1238
11757TIP3    H156686   5.521   0.456  13.189  0.7750 -1.2158 -0.2043
11757TIP3    H256687   5.597   0.470  13.320  0.1558 -1.2089  0.1549
11758TIP3   OH256688   4.464   2.765  12.541  0.5323  0.2299  0.4702
11758TIP3    H156689   4.401   2.819  12.494  2.0354  0.5975 -1.1731
11758TIP3    H256690   4.549   2.804  12.520  1.4209 -1.1184  1.4972
11759TIP3   OH256691   3.869   2.597  11.461  0.4348  0.1968  0.5624
11759TIP3    H156692   3.806   2.602  11.533  0.8931  0.7466  0.9312
11759TIP3    H256693   3.922   2.519  11.481 -0.0644 -0.2108  0.3017
11760TIP3   OH256694   0.390   2.425  10.951 -0.1717  0.3821 -0.6386
11760TIP3    H156695   0.410   2.423  10.857  0.4250 -1.0285 -0.5066
11760TIP3    H256696   0.473   2.401  10.993 -0.7463 -0.1854  0.1878
11761TIP3   OH256697   5.125   1.422   6.291  0.2579 -0.1372 -0.3526
11761TIP3    H156698   5.136   1.510   6.328 -0.5704 -1.3992  3.0269
11761TIP3    H256699   5.211   1.400   6.255  0.5477  1.9209 -0.9805
11762TIP3   OH256700   3.042   2.091  11.178 -0.1454  0.2354  0.8025
11762TIP3    H156701   3.089   2.026  11.126  0.0537  0.6030  0.5206
11762TIP3    H256702   3.067   2.175  11.139 -0.8011  0.4499  0.8419
11763TIP3   OH256703   2.266   6.276  12.481 -0.5795 -0.5667  0.2869
11763TIP3    H156704   2.343   6.333  12.470  0.2239 -1.3849  1.5276
11763TIP3    H256705   2.282   6.202  12.422 -0.6341 -0.5212  0.2149
11764TIP3   OH256706   0.912   6.143  16.590 -0.2953 -0.0123 -0.2075
11764TIP3    H156707   0.902   6.208  16.521  1.0876  0.6379  0.1779
11764TIP3    H256708   0.911   6.194  16.671 -0.3440 -0.5877  0.1555
11765TIP3   OH256709   4.459   4.810  16.020  0.2321 -0.1119  0.4088
11765TIP3    H156710   4.454   4.720  16.050  1.0841 -1.1654 -2.4366
11765TIP3    H256711   4.377   4.823  15.972  0.8035  0.1150 -0.5119
11766TIP3   OH256712   6.349   4.989  14.296  0.0416 -0.5895  0.2731
11766TIP3    H156713   6.353   4.905  14.250 -0.8405  0.7136 -2.2860
11766TIP3    H256714   6.423   5.039  14.262 -0.1033  0.0913  0.9402
11767TIP3   OH256715   4.119   1.599  15.812 -0.2550 -0.3555 -1.2988
11767TIP3    H156716   4.080   1.516  15.785 -1.1144 -0.3451 -0.1156
11767TIP3    H256717   4.189   1.574  15.872 -0.3740 -0.2346 -1.1113
11768TIP3   OH256718   0.695   1.725   4.798  0.4030 -0.0914 -0.3213
11768TIP3    H156719   0.748   1.653   4.833 -0.7009 -0.3996  0.7328
11768TIP3    H256720   0.642   1.754   4.872 -0.3213  0.7550 -1.1660
11769TIP3   OH256721   0.334   0.239  10.657  0.2430  0.1232 -0.1193
11769TIP3    H156722   0.370   0.262  10.742  5.2369 -1.8915 -1.5187
11769TIP3    H256723   0.374   0.301  10.596  3.1406 -3.3900 -2.0021
11770TIP3   OH256724   5.399   4.068  14.604 -0.2094 -0.7963  0.3279
11770TIP3    H156725   5.491   4.091  14.598  0.2916 -3.1760 -1.8610
11770TIP3    H256726   5.353   4.149  14.580  1.4010 -0.6648 -2.5449
11771TIP3   OH256727   6.302   1.155   0.590  0.1260 -0.4533  0.0174
11771TIP3    H156728   6.212   1.126   0.599 -0.2146  0.5730 -0.0117
11771TIP3    H256729   6.337   1.102   0.518 -0.4039 -0.9495  0.1189
11772TIP3   OH256730   6.730   2.417   1.157  0.6511  0.3075 -0.0788
11772TIP3    H156731   6.656   2.477   1.151  0.3926  0.0770  0.7334
11772TIP3    H256732   6.704   2.342   1.103  1.6758  1.6088 -2.4660
11773TIP3   OH256733   1.515   6.423  13.235 -0.3840  0.5013 -0.4306
11773TIP3    H156734   1.435   6.463  13.202  0.0369  0.6929 -1.2237
11773TIP3    H256735   1.519   6.449  13.327 -1.1693  0.5849 -0.4230
11774TIP3   OH256736   1.506   6.254  15.206 -0.1970 -0.6139  0.4189
11774TIP3    H156737   1.425   6.207  15.182  1.3753 -2.4331 -1.5268
11774TIP3    H256738   1.523   6.227  15.296 -1.8849  0.0143  0.9634
11775TIP3   OH256739   3.280   6.671   3.029 -0.4060 -0.3457 -0.1581
11775TIP3    H156740   3.331   6.716   2.962 -1.0336  0.7457  0.0805
11775TIP3    H256741   3.335   6.597   3.056  2.0519  2.0961  1.7177
11776TIP3   OH256742   0.201   2.190   4.982 -0.0381 -0.1087 -0.0451
11776TIP3    H156743   0.240   2.275   4.999 -2.2221  1.2386 -1.5087
11776TIP3    H256744   0.151   2.170   5.062 -1.6290  1.2258 -0.6781
11777TIP3   OH256745   0.734   0.077   3.663  0.3754  0.1716 -0.2786
11777TIP3    H156746   0.767   0.010   3.722 -1.1099  1.2884  1.9100
11777TIP3    H256747   0.753   0.160   3.708 -1.6198  1.0074 -0.9162
11778TIP3   OH256748   5.182   6.784  16.067  0.1544 -0.5190 -0.7885
11778TIP3    H156749   5.266   6.775  16.112 -1.1461 -2.1341  1.4097
11778TIP3    H256750   5.201   6.766  15.975  2.4719  0.6247 -0.5603
11779TIP3   OH256751   0.061   2.902   0.168 -0.3633 -0.0327  0.2395
11779TIP3    H156752   0.118   2.864   0.101  2.5267  0.4844  2.2649
11779TIP3    H256753   0.033   2.827   0.221  0.8273 -0.0144  0.9301
11780TIP3   OH256754   2.643   3.358  13.182 -0.0848 -0.3479  0.1744
11780TIP3    H156755   2.642   3.448  13.150 -1.2081 -0.5002 -0.2531
11780TIP3    H256756   2.551   3.334  13.187  0.2216 -1.6063 -0.0913
11781TIP3   OH256757   6.298   6.595  11.217 -0.2877  0.6684 -0.2971
11781TIP3    H156758   6.309   6.654  11.291 -3.2239  0.6092  0.2369
11781TIP3    H256759   6.279   6.653  11.143 -0.6045  0.5428 -0.3145
11782TIP3   OH256760   0.589   4.993  13.096 -0.0482  0.1864  0.3040
11782TIP3    H156761   0.660   5.049  13.065  0.5542 -0.0069  1.3093
11782TIP3    H256762   0.581   4.925  13.030  2.0922 -0.9701  1.1901
11783TIP3   OH256763   2.520   1.299  16.852 -0.3953  0.0038 -0.4635
11783TIP3    H156764   2.582   1.339  16.912  0.1478 -0.1756 -0.8996
11783TIP3    H256765   2.469   1.239  16.907  0.5797 -0.6958 -0.3167
11784TIP3   OH256766   1.828   0.188   2.800 -0.0271  0.1168 -0.1937
11784TIP3    H156767   1.888   0.248   2.756  0.6413 -1.1464 -1.0583
11784TIP3    H256768   1.804   0.125   2.732 -3.0846  1.1244 -0.1087
11785TIP3   OH256769   0.632   6.637   6.086  0.2152 -0.4156 -0.4160
11785TIP3    H156770   0.544   6.599   6.086  0.6068 -1.3707 -1.4294
11785TIP3    H256771   0.622   6.722   6.129 -1.3206 -0.2288 -1.1077
11786TIP3   OH256772   3.775   2.663  14.581 -0.1578 -0.7431  0.5143
11786TIP3    H156773   3.868   2.646  14.598 -0.4507 -2.3794  0.6094
11786TIP3    H256774   3.750   2.594  14.519 -1.3502 -0.4248  0.6418
11787TIP3   OH256775   1.468   4.693  11.570 -0.4933 -0.5411  0.0031
11787TIP3    H156776   1.545   4.637  11.572 -1.2806 -1.6752 -0.6979
11787TIP3    H256777   1.444   4.704  11.662  1.6565  1.4819  0.3648
11788TIP3   OH256778   0.514   2.587  13.884  0.0556 -0.1167  0.7967
11788TIP3    H156779   0.434   2.629  13.856  0.1782 -0.0845  0.4975
11788TIP3    H256780   0.515   2.598  13.979 -0.5183 -0.5154  0.8503
11789TIP3   OH256781   5.165   2.113   2.219 -0.5198 -0.0939  0.2713
11789TIP3    H156782   5.181   2.195   2.171  2.1377 -0.7693 -0.0536
11789TIP3    H256783   5.075   2.121   2.249 -0.8808  2.1954 -1.2620
11790TIP3   OH256784   0.211   1.161   4.084  0.7861 -0.1346 -0.2655
11790TIP3    H156785   0.211   1.236   4.024 -0.1573  1.0423  1.1612
11790TIP3    H256786   0.133   1.112   4.060  0.1154  0.6264  0.3476
11791TIP3   OH256787   1.664   4.249  11.061  0.6681  0.0936  0.2018
11791TIP3    H156788   1.650   4.283  10.973  0.1782 -1.1430 -0.2132
11791TIP3    H256789   1.617   4.166  11.062 -0.3841  0.7012  2.0471
11792TIP3   OH256790   1.513   1.715  15.386  0.5624 -0.0721 -0.4484
11792TIP3    H156791   1.555   1.747  15.307 -0.4730  1.4431 -0.4041
11792TIP3    H256792   1.538   1.778  15.454  0.4173 -0.6535  0.1516
11793TIP3   OH256793   5.354   6.196  13.481 -0.1320  0.7710  0.0086
11793TIP3    H156794   5.440   6.158  13.464 -0.5850 -0.2650  0.0503
11793TIP3    H256795   5.370   6.257  13.553  0.3098 -0.4260  0.9435
11794TIP3   OH256796   2.772   6.096   4.094 -0.2524  0.0475 -0.0922
11794TIP3    H156797   2.749   6.179   4.136 -0.8857  0.3775 -1.0719
11794TIP3    H256798   2.858   6.111   4.056 -0.4720  0.3476 -0.4808
11795TIP3   OH256799   4.847   0.586  15.420  0.3201 -0.4633  0.3930
11795TIP3    H156800   4.857   0.511  15.362  2.3839 -0.1391  0.2800
11795TIP3    H256801   4.781   0.641  15.378  2.1217 -0.0058 -1.9371
11796TIP3   OH256802   0.143   0.881   6.068 -0.2853  0.6333  0.9207
11796TIP3    H156803   0.171   0.909   6.156 -0.7722 -0.3687  1.4082
11796TIP3    H256804   0.086   0.806   6.085 -0.3261  0.4007 -0.2665
11797TIP3   OH256805   4.955   3.957  15.002  0.3970  0.7004  0.0785
11797TIP3    H156806   5.012   3.944  14.926  0.5267  0.4489  0.2171
11797TIP3    H256807   5.010   4.001  15.067  0.0620  1.6097 -0.2555
11798TIP3   OH256808   4.904   0.793  16.617  0.4343  0.2240 -0.5153
11798TIP3    H156809   4.992   0.814  16.648  0.1500  0.3699  0.2123
11798TIP3    H256810   4.886   0.858  16.550  0.0638  1.5234  0.8213
11799TIP3   OH256811   0.179   1.360  15.753 -0.0497 -0.0016 -0.2325
11799TIP3    H156812   0.194   1.331  15.843 -2.9646  2.2974  1.0726
11799TIP3    H256813   0.231   1.439  15.743  2.9542 -2.0448 -1.7737
11800TIP3   OH256814   6.490   6.629  12.005  0.1620  0.4540 -0.2873
11800TIP3    H156815   6.561   6.582  11.961 -0.8663 -0.9424 -0.4558
11800TIP3    H256816   6.501   6.608  12.097  0.0898  0.4058 -0.2896
11801TIP3   OH256817   5.537   1.184   0.891 -0.6530 -0.1601  0.3037
11801TIP3    H156818   5.460   1.210   0.840 -1.0250  0.3610  1.1167
11801TIP3    H256819   5.612   1.205   0.835 -1.1498 -1.9676 -1.0689
11802TIP3   OH256820   1.647   5.943  15.115 -0.4679  0.0422 -0.0415
11802TIP3    H156821   1.649   6.034  15.143  1.0911  0.5948 -1.8718
11802TIP3    H256822   1.615   5.946  15.024 -1.9266 -1.3763  0.3985
11803TIP3   OH256823   5.423   5.159   1.131  0.0500 -0.1629  0.3123
11803TIP3    H156824   5.439   5.249   1.161  0.2276 -0.3301  0.7136
11803TIP3    H256825   5.482   5.105   1.183 -0.1093 -0.5209  0.1216
11804TIP3   OH256826   3.844   2.008  13.624 -0.4774  0.5147  0.0333
11804TIP3    H156827   3.857   2.074  13.556 -1.4346 -0.0032 -0.6594
11804TIP3    H256828   3.931   1.970  13.637 -0.6642 -0.9197 -2.4868
11805TIP3   OH256829   5.255   5.104   2.293 -0.0517  0.0137  0.3463
11805TIP3    H156830   5.232   5.012   2.299  0.9422 -0.2883 -0.4041
11805TIP3    H256831   5.186   5.142   2.238 -0.0332 -0.4291  0.0206
11806TIP3   OH256832   4.425   0.715  13.506 -0.3190 -0.0844  0.4120
11806TIP3    H156833   4.441   0.783  13.570 -3.5295  0.2917  0.9010
11806TIP3    H256834   4.366   0.654  13.550 -1.8701 -0.2723 -1.8364
11807TIP3   OH256835   3.110   0.215   5.249 -0.0887 -0.2117 -0.0539
11807TIP3    H156836   3.026   0.260   5.254 -1.6002 -3.0816  1.2958
11807TIP3    H256837   3.089   0.122   5.257  3.0113 -1.1730 -1.8679
11808TIP3   OH256838   1.796   4.766  10.617  0.2728  0.0063 -0.2863
11808TIP3    H156839   1.830   4.840  10.667 -3.3169  2.0096 -0.6395
11808TIP3    H256840   1.712   4.796  10.583 -0.0245 -3.2945 -2.7864
11809TIP3   OH256841   6.267   4.921  15.946 -0.0571 -0.1419  0.3452
11809TIP3    H156842   6.322   4.942  15.871 -0.4579  0.3603  0.1885
11809TIP3    H256843   6.222   5.003  15.967 -0.5899 -0.4907  0.5946
11810TIP3   OH256844   3.207   0.447  16.136  0.1272  0.2278  0.1931
11810TIP3    H156845   3.251   0.376  16.184  0.4771 -0.2338 -0.7973
11810TIP3    H256846   3.236   0.527  16.180  1.6495 -0.0925 -0.1848
11811TIP3   OH256847   1.847   1.011   0.631  0.3606  0.3959 -0.2906
11811TIP3    H156848   1.898   0.931   0.616  0.6787 -0.1294  3.1641
11811TIP3    H256849   1.905   1.082   0.605  1.7467 -0.3263  0.7422
11812TIP3   OH256850   5.888   3.958  16.624  0.5349  0.1438 -0.5363
11812TIP3    H156851   5.854   4.006  16.549  0.8365 -0.0894 -0.8200
11812TIP3    H256852   5.959   4.013  16.658  0.2863  0.3324 -0.3162
11813TIP3   OH256853   1.231   2.845   1.852 -0.4670  0.0577 -0.1871
11813TIP3    H156854   1.266   2.819   1.767 -0.3154 -0.8302  0.1367
11813TIP3    H256855   1.273   2.785   1.915 -1.2400  0.1222  0.4037
11814TIP3   OH256856   1.577   2.429  17.110  0.0297 -0.3987 -0.6855
11814TIP3    H156857   1.575   2.507  17.165  0.9168 -0.1808 -0.9652
11814TIP3    H256858   1.497   2.436  17.057  1.0059  1.2644 -1.9896
11815TIP3   OH256859   1.810   6.483  14.342  0.6866  0.0215 -0.0474
11815TIP3    H156860   1.810   6.548  14.272 -0.7137 -1.3599 -1.3887
11815TIP3    H256861   1.746   6.516  14.406 -0.8027 -0.4946 -1.2215
11816TIP3   OH256862   0.568   6.203   3.480  0.1751  0.3600 -0.6702
11816TIP3    H156863   0.531   6.204   3.568  1.0175 -0.6328 -0.2971
11816TIP3    H256864   0.564   6.111   3.454  0.7526  0.5190 -1.3185
11817TIP3   OH256865   2.636   0.710   5.351  0.7509  0.5521 -0.2026
11817TIP3    H156866   2.599   0.690   5.437  2.0238  0.0777  0.2460
11817TIP3    H256867   2.570   0.679   5.288  1.6395 -3.0088  0.5018
11818TIP3   OH256868   6.455   3.549   4.675 -0.4324  0.0923 -0.4574
11818TIP3    H156869   6.521   3.511   4.733 -1.7274  0.8704  1.5499
11818TIP3    H256870   6.415   3.473   4.632 -0.9782 -0.6345  1.3060
11819TIP3   OH256871   1.150   6.303   1.341  0.8762  0.2777  0.2010
11819TIP3    H156872   1.140   6.398   1.329  1.2371  0.0398 -2.3704
11819TIP3    H256873   1.228   6.294   1.395  0.3749  1.4572  1.1535
11820TIP3   OH256874   5.134   2.227  11.769  0.1339 -0.1933  0.0819
11820TIP3    H156875   5.104   2.159  11.709  0.0560 -0.5027  0.4726
11820TIP3    H256876   5.096   2.203  11.854 -2.9556  2.3272 -0.4795
11821TIP3   OH256877   4.575   1.023   0.846 -0.2524 -0.0321 -0.2949
11821TIP3    H156878   4.497   1.061   0.887 -1.7939 -3.1472 -0.2277
11821TIP3    H256879   4.592   1.081   0.771 -2.9908  0.3812 -0.6572
11822TIP3   OH256880   6.525   6.467   6.535  0.7185 -0.5935 -0.1180
11822TIP3    H156881   6.498   6.559   6.530  0.8519 -0.5103  0.5330
11822TIP3    H256882   6.613   6.466   6.497 -0.3315 -0.9362 -2.5865
11823TIP3   OH256883   2.002   2.239   0.874 -0.0435  0.5322 -0.4880
11823TIP3    H156884   1.988   2.209   0.784  0.0394 -0.6335 -0.1161
11823TIP3    H256885   1.916   2.232   0.915 -0.0823  1.0674 -0.4724
11824TIP3   OH256886   3.140   0.316   2.408 -0.3684 -0.3531  0.0526
11824TIP3    H156887   3.120   0.402   2.445 -1.2902 -0.8720  0.7736
11824TIP3    H256888   3.059   0.288   2.365  0.1067 -0.6089 -0.6833
11825TIP3   OH256889   1.335   5.945   4.654  0.5601 -0.1407 -0.0044
11825TIP3    H156890   1.342   5.924   4.561 -0.6851 -3.5458  0.5814
11825TIP3    H256891   1.425   5.949   4.685  1.0642  2.8520 -1.6688
11826TIP3   OH256892   6.208   1.571  15.152 -0.4125 -0.6569  0.1340
11826TIP3    H156893   6.128   1.532  15.116  0.4710 -1.6215 -0.7760
11826TIP3    H256894   6.176   1.649  15.199 -1.9067 -1.1147 -0.0779
11827TIP3   OH256895   1.627   5.697  13.175  0.4692 -0.4610  0.4396
11827TIP3    H156896   1.599   5.788  13.176 -1.7480 -1.0549 -2.4006
11827TIP3    H256897   1.691   5.692  13.104  0.6333 -1.1168  0.6259
11828TIP3   OH256898   3.553   0.918  13.390 -0.5056 -0.4401 -0.2272
11828TIP3    H156899   3.537   1.004  13.352 -1.4131  0.8033  2.7469
11828TIP3    H256900   3.469   0.873  13.383 -1.2915  0.5581  1.9850
11829TIP3   OH256901   1.004   3.256   3.172 -0.3404 -0.0119  0.2169
11829TIP3    H156902   0.958   3.260   3.088 -0.3823 -0.4959  0.2153
11829TIP3    H256903   0.981   3.338   3.216 -0.2632  0.2710 -0.2704
11830TIP3   OH256904   0.362   6.720   2.207  0.3820  0.2124 -0.7588
11830TIP3    H156905   0.445   6.719   2.159  1.2621 -0.6955  0.7271
11830TIP3    H256906   0.360   6.636   2.253 -0.0567  1.3662  1.3947
11831TIP3   OH256907   1.811   6.465  11.085  0.4458 -0.3033  0.7566
11831TIP3    H156908   1.754   6.388  11.091 -0.2272 -0.0182 -1.6663
11831TIP3    H256909   1.752   6.540  11.089  0.5896 -0.0079 -2.0384
11832TIP3   OH256910   4.267   3.421   1.658 -0.0749  0.4043 -0.6189
11832TIP3    H156911   4.195   3.384   1.607 -1.0386 -1.1640  1.7669
11832TIP3    H256912   4.310   3.346   1.697  0.9060  1.5267  0.5150
11833TIP3   OH256913   1.987   2.115   2.862 -0.2883  0.2708  0.2484
11833TIP3    H156914   1.963   2.113   2.769 -0.1739 -1.1307  0.2405
11833TIP3    H256915   1.903   2.118   2.908 -0.4684 -2.1765  0.1585
11834TIP3   OH256916   1.623   5.609   0.248  0.6356  0.2318  0.3307
11834TIP3    H156917   1.658   5.537   0.300  0.9395 -0.7119 -1.1465
11834TIP3    H256918   1.652   5.590   0.158 -0.1846  1.6249 -0.2477
11835TIP3   OH256919   0.160   4.161  10.905 -0.5965 -0.0741 -0.6684
11835TIP3    H156920   0.097   4.220  10.945 -0.0490 -0.0357  0.1624
11835TIP3    H256921   0.240   4.213  10.896 -0.6558 -0.1452 -1.6336
11836TIP3   OH256922   1.773   0.845  11.677 -0.6699 -0.1940  0.3933
11836TIP3    H156923   1.765   0.834  11.583  0.2031 -1.8334  0.5006
11836TIP3    H256924   1.868   0.847  11.694 -0.8015 -2.1888  1.4764
11837TIP3   OH256925   4.016   2.536   4.103  0.1985  0.2682  0.1926
11837TIP3    H156926   4.027   2.461   4.044  0.9347 -0.0671  0.7617
11837TIP3    H256927   4.085   2.597   4.077 -1.3505  1.4468 -1.3183
11838TIP3   OH256928   3.430   5.003  16.557 -0.0465 -0.5560 -0.3391
11838TIP3    H156929   3.454   5.056  16.482  0.9390  0.9304  0.9857
11838TIP3    H256930   3.338   5.025  16.574 -0.0531 -0.3420 -0.6505
11839TIP3   OH256931   5.769   5.873  13.975 -0.0096  0.2187 -0.4555
11839TIP3    H156932   5.720   5.794  13.997 -0.4194  0.5015 -0.3286
11839TIP3    H256933   5.762   5.928  14.053 -0.1864  0.6007 -0.7418
11840TIP3   OH256934   6.388   2.823   4.969  0.0334 -0.3436 -0.4497
11840TIP3    H156935   6.472   2.814   5.015 -0.3328 -0.3924  0.2106
11840TIP3    H256936   6.413   2.840   4.878  0.7748  1.3457  0.0527
11841TIP3   OH256937   4.882   0.425  12.432  0.0009 -0.0412  0.0203
11841TIP3    H156938   4.861   0.357  12.495  0.7726 -0.6232 -0.3475
11841TIP3    H256939   4.924   0.379  12.359  0.6174  0.8309 -0.1869
11842TIP3   OH256940   3.578   4.473   3.358  0.9625  0.0236 -0.4114
11842TIP3    H156941   3.606   4.382   3.369 -0.0885 -0.3992 -1.1633
11842TIP3    H256942   3.595   4.493   3.266  0.9667  0.5185 -0.3095
11843TIP3   OH256943   5.089   4.062   1.478  0.5099  0.3777  0.1813
11843TIP3    H156944   5.041   4.142   1.457  0.3207  0.0959 -0.4930
11843TIP3    H256945   5.024   4.005   1.519  0.5943  0.4895  0.4744
11844TIP3   OH256946   5.230   6.502  13.322  0.8874  0.1782  0.2573
11844TIP3    H156947   5.226   6.406  13.321 -1.0415  0.1939 -2.4880
11844TIP3    H256948   5.315   6.523  13.283  0.1115 -0.4741 -1.8907
11845TIP3   OH256949   2.527   6.154  13.712 -0.2170 -0.1789 -0.1104
11845TIP3    H156950   2.589   6.209  13.760  0.3987 -1.0320  0.0864
11845TIP3    H256951   2.442   6.195  13.728  0.1309  0.2512  0.7010
11846TIP3   OH256952   1.244   2.148  12.893 -0.2089  0.2160 -0.5025
11846TIP3    H156953   1.176   2.203  12.932  0.5035  1.3292 -0.8002
11846TIP3    H256954   1.324   2.201  12.900  0.2608 -0.3091 -1.8509
11847TIP3   OH256955   2.140   6.115  15.832 -0.4502  0.6498  0.2446
11847TIP3    H156956   2.210   6.068  15.788 -0.3595  2.0447 -1.1331
11847TIP3    H256957   2.184   6.186  15.880 -0.7839  0.6887  0.4990
11848TIP3   OH256958   0.263   3.185   2.078  0.1696  0.3952 -0.7067
11848TIP3    H156959   0.275   3.117   2.013  1.0695 -0.2147  0.0733
11848TIP3    H256960   0.347   3.231   2.081 -0.9058  2.5678 -2.3452
11849TIP3   OH256961   5.361   4.918  11.873  0.2856  0.0805 -0.9594
11849TIP3    H156962   5.299   4.980  11.834  0.9012  0.7146 -0.9522
11849TIP3    H256963   5.407   4.969  11.941 -0.0719 -0.7331 -0.0966
11850TIP3   OH256964   2.403   4.593  12.838 -0.6123 -0.3954  0.1151
11850TIP3    H156965   2.472   4.533  12.811 -0.4950 -0.1523 -0.1337
11850TIP3    H256966   2.353   4.610  12.758 -0.5532 -0.0446  0.1495
11851TIP3   OH256967   4.283   6.702  14.696 -0.0674  0.7732  0.4422
11851TIP3    H156968   4.231   6.722  14.618  1.1478  1.3570 -0.2385
11851TIP3    H256969   4.310   6.787  14.729  0.1721  0.4893  0.9827
11852TIP3   OH256970   2.464   1.185   4.647 -0.0583 -0.0532 -0.1598
11852TIP3    H156971   2.471   1.108   4.591 -2.4686  0.4424 -1.1945
11852TIP3    H256972   2.526   1.248   4.609  1.3587 -1.1860  0.2383
11853TIP3   OH256973   2.485   2.291   2.418  0.4991 -0.4523 -0.3199
11853TIP3    H156974   2.525   2.208   2.442 -1.5218 -1.4016 -0.1344
11853TIP3    H256975   2.493   2.295   2.323 -0.1278 -1.2659 -0.4156
11854TIP3   OH256976   5.861   3.608  11.756  0.9042 -0.3310  0.5426
11854TIP3    H156977   5.769   3.589  11.775  0.5413  0.1134 -0.7418
11854TIP3    H256978   5.866   3.703  11.751  1.2483 -0.3876 -0.2993
11855TIP3   OH256979   3.444   6.283   5.654 -0.3824 -0.7868  0.0995
11855TIP3    H156980   3.403   6.354   5.605 -2.1774 -0.4883  1.9838
11855TIP3    H256981   3.419   6.203   5.608 -0.7882 -0.4101 -0.3310
11856TIP3   OH256982   6.616   4.663   0.172 -0.0164  0.8927  0.6684
11856TIP3    H156983   6.608   4.717   0.251  1.0888  0.9593  0.7484
11856TIP3    H256984   6.595   4.575   0.201 -0.9221  1.1283  0.7425
11857TIP3   OH256985   6.626   5.446  12.759  0.2764 -0.0525 -0.0839
11857TIP3    H156986   6.664   5.527  12.793  1.0231 -0.8887  1.0903
11857TIP3    H256987   6.672   5.432  12.676 -1.9401  2.2764 -1.8320
11858TIP3   OH256988   5.437   4.931   2.898 -0.5501  0.0130  0.3642
11858TIP3    H156989   5.409   5.019   2.873 -0.5780  0.4138  1.7760
11858TIP3    H256990   5.358   4.878   2.893 -0.6690  0.2112  0.1340
11859TIP3   OH256991   5.173   2.364  14.267  0.1747  0.5556 -0.5379
11859TIP3    H156992   5.229   2.429  14.224  0.7966  0.1253 -0.3881
11859TIP3    H256993   5.218   2.344  14.349  0.8128 -1.1923 -1.2748
11860TIP3   OH256994   3.252   4.381   1.742  0.3067 -0.1668 -0.3602
11860TIP3    H156995   3.182   4.335   1.696  1.9151 -0.7574 -2.2990
11860TIP3    H256996   3.214   4.465   1.767 -2.2491 -1.9333  1.9826
11861TIP3   OH256997   1.246   1.160   3.467  0.4286 -0.0203  0.0246
11861TIP3    H156998   1.297   1.230   3.509  0.2229 -0.7121  1.4371
11861TIP3    H256999   1.308   1.088   3.458  0.3299 -0.0519 -0.4094
11862TIP3   OH257000   2.907   0.409   0.368 -0.0277  0.1382  0.5850
11862TIP3    H157001   2.840   0.427   0.435 -0.4993 -0.5775  0.3133
11862TIP3    H257002   2.859   0.364   0.298  0.5215  0.6302 -0.1142
11863TIP3   OH257003   5.733   6.732   2.478 -0.6432  0.1807  0.4769
11863TIP3    H157004   5.765   6.673   2.410 -1.3377 -0.0840  0.3795
11863TIP3    H257005   5.712   6.813   2.431 -2.6861 -0.5394  0.0925
11864TIP3   OH257006   4.062   5.359   3.322  0.0111  0.0678 -0.4403
11864TIP3    H157007   4.064   5.363   3.227 -2.7737 -1.1969 -0.6025
11864TIP3    H257008   4.102   5.275   3.344 -0.0735 -0.0028 -0.5543
11865TIP3   OH257009   3.689   4.305  16.531 -0.1810 -0.0238 -0.1499
11865TIP3    H157010   3.695   4.401  16.530 -1.6397  0.0907 -2.6652
11865TIP3    H257011   3.753   4.276  16.466 -0.6371 -0.6718 -0.3206
11866TIP3   OH257012   1.926   5.904  14.601  0.0889  0.3810 -0.4418
11866TIP3    H157013   1.846   5.853  14.611  0.3323 -0.1145 -1.0675
11866TIP3    H257014   1.984   5.871  14.670 -0.0467  0.3805 -0.3274
11867TIP3   OH257015   3.049   1.113  14.749 -0.2087  0.2868 -0.4515
11867TIP3    H157016   3.039   1.073  14.835 -0.1524  2.6850  0.7169
11867TIP3    H257017   3.132   1.079  14.716  0.7986  0.8922  1.3506
11868TIP3   OH257018   5.187   3.534   6.042  0.2507  0.4305 -0.6611
11868TIP3    H157019   5.245   3.549   5.968  0.4513 -2.0524 -1.0693
11868TIP3    H257020   5.145   3.450   6.022 -1.8890  1.1554  0.6428
11869TIP3   OH257021   3.444   4.507   4.409 -0.7822 -0.1775 -0.3466
11869TIP3    H157022   3.483   4.587   4.445  0.4848 -0.9441  0.0211
11869TIP3    H257023   3.446   4.519   4.315  0.3644 -0.2160 -0.3263
11870TIP3   OH257024   4.408   2.117  14.593 -0.0990  0.0275  0.2587
11870TIP3    H157025   4.363   2.032  14.597  0.5560 -0.2720  1.5544
11870TIP3    H257026   4.368   2.169  14.663 -0.2510  0.6592 -0.3001
11871TIP3   OH257027   6.270   3.664  11.823 -0.1480  0.1980  0.3544
11871TIP3    H157028   6.194   3.678  11.880  0.6351  3.1605  0.7645
11871TIP3    H257029   6.267   3.738  11.762  2.0885  0.0413  0.0375
11872TIP3   OH257030   2.085   3.628   4.253  0.6524  0.8657 -0.1394
11872TIP3    H157031   2.093   3.706   4.197  0.7610  0.1484 -1.1276
11872TIP3    H257032   2.082   3.663   4.342  1.1389  1.9797 -0.5523
11873TIP3   OH257033   0.304   2.771  16.315  0.2910 -0.3937 -0.9418
11873TIP3    H157034   0.354   2.717  16.254  0.1776  0.2013 -1.5639
11873TIP3    H257035   0.214   2.741  16.304 -0.0986  1.3433 -2.8386
11874TIP3   OH257036   4.199   2.210   0.753 -0.0626  0.3780 -0.6881
11874TIP3    H157037   4.208   2.248   0.666  0.5731  0.2208 -0.6914
11874TIP3    H257038   4.190   2.116   0.738  0.8111  0.2705 -0.5396
11875TIP3   OH257039   2.688   3.659  14.843  0.4414  0.1755 -0.1462
11875TIP3    H157040   2.767   3.622  14.882  2.1033  1.9170 -1.6909
11875TIP3    H257041   2.660   3.594  14.778  0.4726 -0.5503  0.5635
11876TIP3   OH257042   0.730   4.122  15.750 -0.2678 -0.1991  0.3669
11876TIP3    H157043   0.752   4.207  15.788 -2.5253  0.3893  0.3837
11876TIP3    H257044   0.673   4.080  15.815  0.0627 -1.3448 -0.0627
11877TIP3   OH257045   5.234   2.440  15.875  0.0503 -0.3832 -0.3692
11877TIP3    H157046   5.246   2.473  15.964 -2.3164  2.1582 -0.9272
11877TIP3    H257047   5.189   2.356  15.887  0.3200 -0.3670  0.8356
11878TIP3   OH257048   2.877   1.051  11.613 -0.1950 -0.5895  0.2742
11878TIP3    H157049   2.938   1.030  11.684 -0.1982 -1.6486 -0.0289
11878TIP3    H257050   2.915   1.128  11.571 -0.3790  0.2725  1.6364
11879TIP3   OH257051   2.984   6.156  12.012 -0.1717  0.1853  0.1159
11879TIP3    H157052   3.020   6.068  12.000 -0.5298 -0.0441  0.7240
11879TIP3    H257053   3.020   6.185  12.096 -0.5614  0.3761  0.2165
11880TIP3   OH257054   3.313   3.406  13.527  0.4034  0.1192  0.4889
11880TIP3    H157055   3.399   3.444  13.539  1.0840 -1.1054 -0.3660
11880TIP3    H257056   3.300   3.349  13.603  0.1426  0.6639  0.8546
11881TIP3   OH257057   2.822   5.981  13.291  0.6431 -0.1537  0.1023
11881TIP3    H157058   2.842   6.049  13.355  1.5972 -1.8395  1.6534
11881TIP3    H257059   2.899   5.923  13.293 -0.0397 -1.1412 -1.3682
11882TIP3   OH257060   3.204   2.203   1.966 -0.7257 -0.7429  0.1939
11882TIP3    H157061   3.271   2.269   1.947 -2.8919  1.6127  0.4976
11882TIP3    H257062   3.205   2.145   1.890  0.6037  0.1792 -0.5024
11883TIP3   OH257063   5.082   5.174   2.087  0.4091 -0.1534  0.4915
11883TIP3    H157064   5.007   5.116   2.101  0.5644 -0.8375 -1.4795
11883TIP3    H257065   5.122   5.143   2.006  2.0914  1.0049  0.8600
11884TIP3   OH257066   2.483   5.075   1.953  0.0728  0.7622  0.0238
11884TIP3    H157067   2.496   4.985   1.983  1.4990  0.4174 -1.5554
11884TIP3    H257068   2.452   5.122   2.030  0.1037 -0.9063  1.0653
11885TIP3   OH257069   0.554   3.613  13.195 -0.2265 -0.7096  0.5565
11885TIP3    H157070   0.554   3.520  13.218 -1.2077 -1.0195 -0.6633
11885TIP3    H257071   0.545   3.614  13.100  2.0306  0.5877  0.3024
11886TIP3   OH257072   1.129   3.809   0.581  0.2777  0.0298  0.3533
11886TIP3    H157073   1.163   3.795   0.669  0.2922  0.1707  0.3716
11886TIP3    H257074   1.200   3.854   0.535  0.6164 -0.8754 -0.0073
11887TIP3   OH257075   0.303   3.862   2.057 -0.1397  0.6201 -0.0984
11887TIP3    H157076   0.345   3.804   1.994  2.4780  0.8853  1.3416
11887TIP3    H257077   0.246   3.804   2.108 -0.6872  0.0593 -1.3215
11888TIP3   OH257078   5.312   1.556   6.003 -0.0031 -0.3461 -0.2813
11888TIP3    H157079   5.342   1.499   6.074  0.0227 -0.6688 -0.5493
11888TIP3    H257080   5.314   1.644   6.040  0.0718 -0.5086  0.0983
11889TIP3   OH257081   1.859   5.139  15.453 -0.2617  0.2718  0.1343
11889TIP3    H157082   1.915   5.093  15.392 -1.8436  0.0776 -1.2055
11889TIP3    H257083   1.861   5.086  15.533  1.4856  0.3148  0.1285
11890TIP3   OH257084   5.955   0.869   0.544  0.0279 -0.0433 -0.8640
11890TIP3    H157085   5.962   0.964   0.535 -0.6136  0.0022 -0.9404
11890TIP3    H257086   6.009   0.834   0.474  0.6200  0.2600 -0.5667
11891TIP3   OH257087   5.054   2.881   2.213 -0.1760  0.6354  0.2256
11891TIP3    H157088   5.006   2.962   2.233  1.2547  1.5485  0.0108
11891TIP3    H257089   5.106   2.864   2.291 -0.9210 -0.4166  0.4984
11892TIP3   OH257090   0.012   4.314  14.919  0.5026  0.3682  0.2310
11892TIP3    H157091  -0.042   4.251  14.966 -0.5413  0.7242 -0.4665
11892TIP3    H257092   0.078   4.341  14.982  0.6733 -1.0594  0.6870
11893TIP3   OH257093   0.369   4.474   2.294  0.0113 -1.0150 -0.2955
11893TIP3    H157094   0.444   4.416   2.287  1.9836  1.5129 -0.7629
11893TIP3    H257095   0.406   4.560   2.318 -2.9219 -0.2175  1.7383
11894TIP3   OH257096   5.141   6.527  13.943 -0.1657 -0.0702 -0.3341
11894TIP3    H157097   5.185   6.449  13.976 -0.4303  0.8295  2.2425
11894TIP3    H257098   5.118   6.577  14.021 -3.1691  0.8888 -1.7520
11895TIP3   OH257099   4.360   2.904  13.771  0.0741  0.4147 -0.5019
11895TIP3    H157100   4.344   2.993  13.801  0.1114  0.3266 -0.2215
11895TIP3    H257101   4.410   2.915  13.691  0.4629  0.6356 -0.2292
11896TIP3   OH257102   3.706   5.330   5.298  0.1379 -0.1062 -0.3776
11896TIP3    H157103   3.676   5.277   5.224  2.1914 -0.5807 -0.9105
11896TIP3    H257104   3.786   5.286   5.328  0.4383  1.2332  0.8210
11897TIP3   OH257105   5.082   2.859  15.133  0.5184 -0.4839  0.0511
11897TIP3    H157106   5.100   2.938  15.184 -2.5093  1.2597 -1.4495
11897TIP3    H257107   5.034   2.802  15.193 -0.2513  0.2306  0.1214
11898TIP3   OH257108   6.750   0.034  16.111 -0.5112  0.0926  0.0562
11898TIP3    H157109   6.688   0.087  16.161  0.5446  0.4543  1.0018
11898TIP3    H257110   6.717  -0.056  16.119 -0.9148  0.2827  0.5474
11899TIP3   OH257111   6.018   0.807  14.383  0.1474 -0.0025 -0.3251
11899TIP3    H157112   6.095   0.861  14.364 -0.7217  2.5602  2.9618
11899TIP3    H257113   5.947   0.847  14.332  0.7519 -1.8001 -2.6299
11900TIP3   OH257114   6.038   2.401  15.848  0.2207  0.0650  0.1552
11900TIP3    H157115   6.081   2.460  15.787  0.3275  0.2191  0.3796
11900TIP3    H257116   5.956   2.445  15.871 -0.1688 -0.3298 -0.4485
11901TIP3   OH257117   5.498   1.626   2.156  0.3011  0.1082 -0.3118
11901TIP3    H157118   5.502   1.648   2.248 -0.5306  2.0640 -0.7271
11901TIP3    H257119   5.562   1.555   2.145 -0.3747 -0.8885  1.9459
11902TIP3   OH257120   5.702   1.657   2.703  0.1283 -0.4217  0.3108
11902TIP3    H157121   5.722   1.636   2.611  1.1035 -0.6874  0.5808
11902TIP3    H257122   5.746   1.741   2.718 -0.7240  0.0270  0.2964
11903TIP3   OH257123   1.590   1.911  14.213  0.5838 -0.6195 -0.0282
11903TIP3    H157124   1.653   1.860  14.162 -0.1685 -2.7314  1.0922
11903TIP3    H257125   1.562   1.981  14.154  1.8188 -1.3588 -1.5267
11904TIP3   OH257126   1.601   0.986  10.968  0.3887  0.5906 -0.4281
11904TIP3    H157127   1.568   1.053  10.908  0.3963  2.8211  1.9606
11904TIP3    H257128   1.523   0.947  11.007  0.4270  0.9595  0.0234
11905TIP3   OH257129   6.309   0.025  10.640  0.4698  0.2314  0.3200
11905TIP3    H157130   6.384   0.078  10.612  0.2904  1.5178  2.1666
11905TIP3    H257131   6.295  -0.036  10.568 -0.1900  3.6111 -2.5781
11906TIP3   OH257132   1.705   5.116   5.113 -0.2948  0.4143 -0.0179
11906TIP3    H157133   1.641   5.186   5.129 -1.7236 -0.6030 -1.0754
11906TIP3    H257134   1.667   5.039   5.154  0.1347 -0.2568 -0.8619
11907TIP3   OH257135   6.096   2.288   0.416  0.3321 -0.2816  0.1599
11907TIP3    H157136   6.095   2.370   0.367 -0.2471  0.5229  1.4963
11907TIP3    H257137   6.010   2.249   0.398  0.5076 -0.4808 -0.2648
11908TIP3   OH257138   2.591   2.706   0.472  0.2439  0.1753  0.3831
11908TIP3    H157139   2.503   2.697   0.509  0.5120 -1.8105  0.5613
11908TIP3    H257140   2.576   2.721   0.379 -0.3061  0.8437  0.5735
11909TIP3   OH257141   2.696   3.598  11.208  0.2256  0.0911 -0.6325
11909TIP3    H157142   2.730   3.588  11.119 -0.6941 -6.5037 -0.4721
11909TIP3    H257143   2.772   3.582  11.265 -0.1679 -0.4358 -0.2483
11910TIP3   OH257144   5.125   0.517   2.726 -0.4132  0.3888 -0.8175
11910TIP3    H157145   5.113   0.425   2.702  0.8800 -0.3393  1.1553
11910TIP3    H257146   5.036   0.552   2.733 -0.9466 -0.9824 -0.5845
11911TIP3   OH257147   4.860   5.130   3.081 -0.2157  0.0375  0.0537
11911TIP3    H157148   4.928   5.090   3.027 -1.4002 -1.3634 -0.4397
11911TIP3    H257149   4.786   5.141   3.021 -1.0083 -0.0667  1.0120
11912TIP3   OH257150   2.524   3.107  13.517 -0.5109  0.2820  0.2337
11912TIP3    H157151   2.548   3.021  13.483 -0.3364  0.7283 -0.7842
11912TIP3    H257152   2.560   3.109  13.606  0.1296 -0.4140 -0.0088
11913TIP3   OH257153   5.653   5.365  16.873 -0.2023 -0.3576 -0.1764
11913TIP3    H157154   5.576   5.324  16.833  0.0100 -0.9240 -0.0082
11913TIP3    H257155   5.645   5.345  16.967 -0.7435  1.0374  0.0871
11914TIP3   OH257156   1.799   5.448  13.082  0.4226 -0.8708 -0.5862
11914TIP3    H157157   1.779   5.458  13.175 -1.0279 -1.4734 -0.8299
11914TIP3    H257158   1.888   5.411  13.081  1.7767  2.1843  0.4819
11915TIP3   OH257159   1.348   6.686   5.182 -0.3250 -0.4267 -0.3368
11915TIP3    H157160   1.314   6.765   5.140  0.8767  1.3097  1.8371
11915TIP3    H257161   1.283   6.619   5.164 -0.8822  0.7861 -3.0913
11916TIP3   OH257162   4.689   0.908   3.055  0.5924 -0.2071 -0.0014
11916TIP3    H157163   4.672   0.874   3.143  1.1777  0.7822  0.5001
11916TIP3    H257164   4.618   0.970   3.039  0.0496 -0.9553 -0.5454
11917TIP3   OH257165   4.307   4.129   4.511  0.1026 -0.1869 -0.5876
11917TIP3    H157166   4.355   4.182   4.574  2.1867  0.2917 -2.5141
11917TIP3    H257167   4.358   4.049   4.503 -0.6722 -0.6526 -0.9300
11918TIP3   OH257168   3.502   1.827  12.728 -0.7406  0.4852 -0.3751
11918TIP3    H157169   3.508   1.741  12.769 -1.0460  0.8687  0.4773
11918TIP3    H257170   3.409   1.850  12.733 -0.7901  0.5045 -1.3393
11919TIP3   OH257171   2.992   3.783   0.011 -0.6486  0.0329  0.3514
11919TIP3    H157172   3.008   3.692   0.035 -1.8998 -0.2559  0.1059
11919TIP3    H257173   3.063   3.832   0.053 -1.8551 -0.6496  3.3134
11920TIP3   OH257174   4.335   2.884   3.402 -0.1684  0.4445  0.6619
11920TIP3    H157175   4.253   2.930   3.422 -0.6375 -1.2484  2.7823
11920TIP3    H257176   4.309   2.811   3.346 -0.1897 -0.3170  1.6473
11921TIP3   OH257177   1.998   6.337   0.179  0.1892 -0.2609 -0.4252
11921TIP3    H157178   2.031   6.256   0.140  2.6006  0.2510  0.4676
11921TIP3    H257179   1.961   6.310   0.262  1.7746 -0.3686  0.2680
11922TIP3   OH257180   5.656   3.300   2.530  0.0845  0.2573  0.5152
11922TIP3    H157181   5.590   3.282   2.597  0.0791  0.4260  0.5553
11922TIP3    H257182   5.648   3.394   2.512 -1.2702 -0.1725 -1.1841
11923TIP3   OH257183   1.361   6.643   1.236 -0.0326  0.5028  0.1846
11923TIP3    H157184   1.414   6.568   1.265  0.5010  0.5390 -0.6751
11923TIP3    H257185   1.404   6.719   1.275 -0.0648  0.4389  0.3456
11924TIP3   OH257186   1.667   0.369   4.016  0.1710  0.1778 -0.3058
11924TIP3    H157187   1.697   0.289   4.058  0.3731 -0.0930 -0.9577
11924TIP3    H257188   1.728   0.383   3.944 -1.8525 -0.9784 -2.3174
11925TIP3   OH257189   4.950   5.261  16.723 -0.2627 -0.2976 -0.1097
11925TIP3    H157190   4.934   5.355  16.717 -1.4806 -0.6881 -3.6453
11925TIP3    H257191   4.880   5.229  16.781 -1.2997  0.6246 -0.8383
11926TIP3   OH257192   6.037   0.557  15.395 -0.0544  0.3737 -0.4775
11926TIP3    H157193   6.097   0.580  15.466  0.2763  0.4274 -0.7695
11926TIP3    H257194   6.092   0.512  15.331  0.1433  2.4060 -1.7733
11927TIP3   OH257195   3.404   2.995  15.164  0.2629 -0.3874  0.2179
11927TIP3    H157196   3.371   3.084  15.147  0.0491 -0.4070  0.5168
11927TIP3    H257197   3.327   2.947  15.197  0.2855 -0.7927 -0.3160
11928TIP3   OH257198   6.321   5.490   1.759  0.1855 -0.0801  0.0253
11928TIP3    H157199   6.414   5.513   1.751  0.2860  0.0139  1.3639
11928TIP3    H257200   6.320   5.395   1.753  0.3223 -0.0532 -0.4321
11929TIP3   OH257201   3.386   5.828   3.304 -0.0425  0.4315  0.6210
11929TIP3    H157202   3.379   5.807   3.211  1.9501 -1.5814  0.8970
11929TIP3    H257203   3.295   5.834   3.333 -0.6886  1.8082 -1.5983
11930TIP3   OH257204   5.165   5.890  15.415 -0.3661  0.5353 -0.7822
11930TIP3    H157205   5.239   5.914  15.471 -0.1948  1.6407 -1.4732
11930TIP3    H257206   5.089   5.896  15.473  0.0480 -0.3582 -0.1327
11931TIP3   OH257207   5.720   5.694  11.781 -0.1748  0.4350  0.6079
11931TIP3    H157208   5.812   5.712  11.804  0.7877  0.2313 -2.8417
11931TIP3    H257209   5.681   5.781  11.772  0.1314  0.5512  0.3735
11932TIP3   OH257210   3.411   0.924   3.247  0.3759  0.0178 -0.3112
11932TIP3    H157211   3.465   0.869   3.303  0.1548 -0.1817 -0.2897
11932TIP3    H257212   3.332   0.872   3.232  0.1040  0.3888 -0.1766
11933TIP3   OH257213   1.705   1.007   3.668 -0.1621 -0.3511  0.1699
11933TIP3    H157214   1.712   1.059   3.748  0.0900  0.3032 -0.2773
11933TIP3    H257215   1.628   0.952   3.682  0.6994 -1.2585  1.4429
11934TIP3   OH257216   4.446   3.037  15.740  0.0949 -0.0227 -0.3133
11934TIP3    H157217   4.357   3.060  15.712  0.8233  2.0491 -0.9421
11934TIP3    H257218   4.447   3.055  15.834  0.6028  2.4406 -0.7605
11935TIP3   OH257219   1.584   6.465   0.606 -0.1009  0.1789 -0.4748
11935TIP3    H157220   1.544   6.526   0.544 -2.1980 -1.2327 -0.5566
11935TIP3    H257221   1.526   6.388   0.605  2.4336 -1.7997 -0.3455
11936TIP3   OH257222   1.690   2.523  16.714 -0.1027  0.1325  0.4705
11936TIP3    H157223   1.605   2.546  16.752  0.1790 -1.3379  2.0488
11936TIP3    H257224   1.740   2.488  16.787  1.2877 -0.5970 -0.8073
11937TIP3   OH257225   4.768   1.555   3.197 -0.5532 -0.1769 -0.2290
11937TIP3    H157226   4.690   1.522   3.241 -0.1241 -1.0403 -0.1208
11937TIP3    H257227   4.772   1.507   3.115  0.9889 -1.5977  0.6561
11938TIP3   OH257228   3.172   5.784  14.964  0.8075  0.2992  0.1672
11938TIP3    H157229   3.255   5.738  14.972  0.8348  0.3305  0.0569
11938TIP3    H257230   3.160   5.827  15.049  1.3324  1.0199 -0.1260
11939TIP3   OH257231   2.547   3.795   2.179  0.7001  0.1133  0.1810
11939TIP3    H157232   2.516   3.772   2.267  1.7259  0.7565  0.7203
11939TIP3    H257233   2.526   3.718   2.125  0.7851 -0.6039  1.1608
11940TIP3   OH257234   1.090   6.173  11.301 -0.0571  0.4409 -0.2491
11940TIP3    H157235   1.059   6.096  11.254 -1.1365  1.2319 -0.8503
11940TIP3    H257236   1.170   6.199  11.255  0.2043 -0.2025 -0.1561
11941TIP3   OH257237   5.703   5.340  15.210 -0.4610  0.2187  0.4894
11941TIP3    H157238   5.748   5.308  15.288 -0.3781  0.2674  0.4630
11941TIP3    H257239   5.672   5.427  15.234 -1.1148 -0.0803  0.7192
11942TIP3   OH257240   4.985   2.596   2.382  0.7092 -0.0492 -0.4463
11942TIP3    H157241   4.924   2.587   2.455 -0.5948  0.3988 -1.4732
11942TIP3    H257242   5.023   2.683   2.393 -0.5671  0.6018 -1.1147
11943TIP3   OH257243   6.645   1.730  13.619  0.1330  0.1182 -0.4379
11943TIP3    H157244   6.673   1.820  13.637  0.9514 -0.6695  2.4709
11943TIP3    H257245   6.550   1.732  13.630  0.0084  0.8345 -1.4855
11944TIP3   OH257246   2.998   5.352  16.894 -0.1102  0.4318  0.2018
11944TIP3    H157247   2.942   5.341  16.817  0.4980  2.6477 -0.6172
11944TIP3    H257248   3.025   5.444  16.890  1.4848  0.0648  2.0154
11945TIP3   OH257249   2.557   1.748   2.869 -0.2100  0.2356 -0.2605
11945TIP3    H157250   2.643   1.712   2.850  0.1540  0.8395  0.1996
11945TIP3    H257251   2.558   1.834   2.827 -0.5139  0.3186 -0.0988
11946TIP3   OH257252   3.576   5.692  12.183 -0.3770  0.2131  0.2023
11946TIP3    H157253   3.534   5.660  12.103 -1.5479  1.5563  0.2606
11946TIP3    H257254   3.649   5.745  12.153 -0.4681  0.2408  0.0324
11947TIP3   OH257255   0.276   3.994   1.194  0.4012 -0.5765  0.7487
11947TIP3    H157256   0.306   3.940   1.121 -0.1448  0.4681 -0.2819
11947TIP3    H257257   0.200   3.948   1.229  0.6159 -1.0448  0.5990
11948TIP3   OH257258   3.901   3.736   2.194 -0.4461  0.3214 -0.1631
11948TIP3    H157259   3.864   3.755   2.280  0.0150 -0.0970  0.1318
11948TIP3    H257260   3.971   3.673   2.211 -0.7251 -0.2063 -0.9077
11949TIP3   OH257261   6.728   6.619  10.407  0.2928 -0.0493  0.5734
11949TIP3    H157262   6.785   6.638  10.332 -0.9476  0.4083 -0.2602
11949TIP3    H257263   6.675   6.545  10.379 -0.7796  0.6733  0.6558
11950TIP3   OH257264   3.124   3.156  11.893  0.5927 -0.0581  0.0898
11950TIP3    H157265   3.056   3.097  11.861  0.9305 -0.1833 -0.3877
11950TIP3    H257266   3.164   3.193  11.815 -0.0929  1.3633  0.3888
11951TIP3   OH257267   2.618   0.929   6.804  0.1014 -0.0972 -0.1870
11951TIP3    H157268   2.656   0.847   6.772  0.0508 -0.9247  1.8082
11951TIP3    H257269   2.684   0.995   6.783  1.3310 -1.0665  0.5453
11952TIP3   OH257270   4.219   1.940  11.356  0.8977 -0.5587 -0.0769
11952TIP3    H157271   4.144   1.931  11.297  1.7905 -2.0420 -1.0260
11952TIP3    H257272   4.290   1.972  11.300  0.8100  1.5561  0.9640
11953TIP3   OH257273   5.843   5.975   0.833  0.4351  0.2495 -0.4784
11953TIP3    H157274   5.863   6.050   0.777 -1.3396 -0.2162 -1.7798
11953TIP3    H257275   5.851   5.899   0.775 -1.6486 -0.2261 -0.1925
11954TIP3   OH257276   3.536   2.739  17.140 -1.4571 -0.4578  0.1558
11954TIP3    H157277   3.442   2.760  17.136 -1.3985 -0.3560 -1.2041
11954TIP3    H257278   3.575   2.796  17.073 -1.0195 -3.4838 -2.2749
11955TIP3   OH257279   3.486   5.983  16.081  0.2344  0.7900  0.6852
11955TIP3    H157280   3.418   6.049  16.065  0.5368  1.0320  0.3948
11955TIP3    H257281   3.452   5.931  16.154 -1.4181 -0.6736 -1.0820
11956TIP3   OH257282   1.231   2.530   3.134  0.6005 -0.1574  0.1410
11956TIP3    H157283   1.216   2.624   3.123 -0.0501 -0.4396 -1.5640
11956TIP3    H257284   1.285   2.524   3.213  0.8913  1.6686  0.1234
11957TIP3   OH257285   0.180   4.502   0.248 -0.6304  1.0659  0.3652
11957TIP3    H157286   0.252   4.556   0.280 -0.5683  1.9826 -1.2833
11957TIP3    H257287   0.101   4.545   0.281 -0.4669  0.1373  2.0542
11958TIP3   OH257288   4.623   4.803   0.685 -0.0878  0.3750  0.5273
11958TIP3    H157289   4.556   4.818   0.751  0.6948 -0.9437  1.6378
11958TIP3    H257290   4.701   4.779   0.735  1.0794  1.3769 -0.7700
11959TIP3   OH257291   6.074   6.038   1.449  0.0786 -0.8658 -0.3158
11959TIP3    H157292   6.043   6.121   1.412 -0.2168 -1.9557 -2.6469
11959TIP3    H257293   5.994   5.988   1.464  0.3235 -1.1498  0.0273
11960TIP3   OH257294   1.674   4.303   5.547  0.0023 -0.3793 -0.3609
11960TIP3    H157295   1.599   4.266   5.594  0.3378 -1.7541 -0.8902
11960TIP3    H257296   1.695   4.383   5.596 -0.1264 -1.3902  1.4107
11961TIP3   OH257297   2.334   3.450   1.076 -0.0738  0.2153  0.1986
11961TIP3    H157298   2.259   3.507   1.058  0.5031  0.9595  0.0826
11961TIP3    H257299   2.313   3.367   1.034 -0.8513  0.4107  0.2078
11962TIP3   OH257300   4.617   5.996  15.036  0.0644 -0.0809  0.4176
11962TIP3    H157301   4.682   5.931  15.061  1.3988  0.3333 -1.8658
11962TIP3    H257302   4.550   5.946  14.989  0.0958 -0.1076  0.4018
11963TIP3   OH257303   2.283   2.407  12.327 -0.3245  0.1842 -0.0317
11963TIP3    H157304   2.348   2.374  12.265  1.3926 -0.1462  1.8745
11963TIP3    H257305   2.331   2.469  12.381 -1.0990 -1.3777  2.5537
11964TIP3   OH257306   2.633   3.737  16.703  0.0826  0.4107 -0.5998
11964TIP3    H157307   2.661   3.814  16.753  0.3482 -1.5832  2.5013
11964TIP3    H257308   2.713   3.706  16.661  0.6906  0.0092  0.7958
11965TIP3   OH257309   6.373   1.267  11.804 -0.0938 -0.2268 -0.5442
11965TIP3    H157310   6.388   1.218  11.723 -1.6042 -1.0716 -0.3321
11965TIP3    H257311   6.302   1.329  11.782 -0.5376 -0.4868  0.1320
11966TIP3   OH257312   0.973   2.311  17.013  0.1024 -0.2535 -0.6740
11966TIP3    H157313   1.037   2.254  17.055 -1.9524 -0.7599  1.9362
11966TIP3    H257314   0.973   2.391  17.066 -0.6209  0.1824 -1.3116
11967TIP3   OH257315   6.150   0.576   2.408  0.4004  0.0527  0.1724
11967TIP3    H157316   6.115   0.532   2.486 -1.4034  0.9575 -0.0882
11967TIP3    H257317   6.196   0.652   2.442  2.1561 -1.1549  0.5254
11968TIP3   OH257318   4.869   6.614  10.423 -0.6315 -0.0176  0.5215
11968TIP3    H157319   4.839   6.692  10.377 -1.0771 -0.2482  0.4153
11968TIP3    H257320   4.823   6.616  10.507 -1.0918 -0.4658  0.2864
11969TIP3   OH257321   6.290   2.508   6.037  0.0286 -0.4925 -0.2686
11969TIP3    H157322   6.279   2.419   6.070 -1.7607  0.9084  3.2212
11969TIP3    H257323   6.369   2.540   6.080  0.4964 -0.2847 -1.2726
11970TIP3   OH257324   3.604   1.764  17.006  0.3623  0.0335 -0.1450
11970TIP3    H157325   3.700   1.762  17.013  0.4695  2.9387 -0.4744
11970TIP3    H257326   3.574   1.783  17.095  0.2167  1.5929 -0.5129
11971TIP3   OH257327   0.297   4.709   1.389  0.2294 -0.0593 -0.2864
11971TIP3    H157328   0.294   4.633   1.332 -0.1707 -0.0032 -0.3413
11971TIP3    H257329   0.258   4.780   1.337 -0.3955 -0.0763  0.1610
11972TIP3   OH257330   0.652   2.225  17.137 -0.6427  0.0699  0.4923
11972TIP3    H157331   0.646   2.231  17.232 -1.6538  0.3864  0.4152
11972TIP3    H257332   0.712   2.296  17.112  3.0668 -2.6656  1.2234
11973TIP3   OH257333   1.253   5.709  11.708  0.3672 -0.5573 -0.1410
11973TIP3    H157334   1.338   5.733  11.671 -0.3185  0.4396 -1.1158
11973TIP3    H257335   1.190   5.760  11.658 -0.9839 -2.8156 -0.8202
11974TIP3   OH257336   2.087   4.356  14.015  0.4718 -0.6531  0.1477
11974TIP3    H157337   2.105   4.290  13.948  1.8089 -0.9331  0.7588
11974TIP3    H257338   2.157   4.345  14.079  1.3778  2.0665 -0.2786
11975TIP3   OH257339   1.223   3.118   4.232  0.0964 -0.1937  0.2340
11975TIP3    H157340   1.207   3.072   4.149  0.5645 -0.7370  0.4449
11975TIP3    H257341   1.312   3.151   4.223  1.0478 -2.3104  1.4841
11976TIP3   OH257342   2.383   2.624   5.244  0.1785 -0.3540  0.0638
11976TIP3    H157343   2.331   2.626   5.164  1.3059  0.0521 -0.6705
11976TIP3    H257344   2.467   2.665   5.220  1.1113 -1.6451  1.0144
11977TIP3   OH257345   2.538   5.960  15.050 -0.2680 -0.4063 -0.0162
11977TIP3    H157346   2.631   5.976  15.032 -0.7963  1.8821 -0.8719
11977TIP3    H257347   2.534   5.941  15.143  0.8373  1.5008  0.4411
11978TIP3   OH257348   6.106   2.547   0.731  0.0676  0.4894 -0.1947
11978TIP3    H157349   6.090   2.640   0.746  0.1947  0.1538  2.2704
11978TIP3    H257350   6.020   2.510   0.710 -0.2558  0.8921  0.4209
11979TIP3   OH257351   3.208   2.042   1.299 -0.3549  0.0905  0.2659
11979TIP3    H157352   3.162   2.060   1.381 -1.5169  0.6653 -0.4940
11979TIP3    H257353   3.266   2.117   1.288  0.2689 -0.2998  0.8842
11980TIP3   OH257354   5.224   0.314  11.075 -0.0155  0.1976  0.2017
11980TIP3    H157355   5.306   0.273  11.103  0.0117 -0.1814 -0.4340
11980TIP3    H257356   5.221   0.396  11.124  0.3918 -0.1206  0.7744
11981TIP3   OH257357   5.908   2.386   2.538  0.1296 -0.0031  0.1406
11981TIP3    H157358   5.961   2.354   2.611  1.2232 -0.6927 -0.9451
11981TIP3    H257359   5.907   2.313   2.475 -0.6578  0.6473 -0.6077
11982TIP3   OH257360   2.851   2.752   3.862 -0.5493  0.6508  0.7612
11982TIP3    H157361   2.819   2.762   3.773  2.2597 -2.0506 -0.6431
11982TIP3    H257362   2.772   2.741   3.915 -2.1605 -0.4402 -1.7771
11983TIP3   OH257363   1.330   6.150   3.600  0.5790 -0.4803 -0.3522
11983TIP3    H157364   1.333   6.057   3.621  0.4836 -0.5576 -0.6694
11983TIP3    H257365   1.416   6.169   3.563  0.8747 -0.2624  0.4373
11984TIP3   OH257366   4.775   4.980   5.424 -0.4465  0.1371  0.6575
11984TIP3    H157367   4.729   4.906   5.385  2.3559 -2.0814  1.3779
11984TIP3    H257368   4.834   5.010   5.355  2.1470 -1.7034  1.9548
11985TIP3   OH257369   1.010   1.592  15.476  0.8365 -0.4021 -0.1774
11985TIP3    H157370   0.933   1.634  15.515 -0.3256 -0.2691 -2.4872
11985TIP3    H257371   1.032   1.522  15.537 -0.6413  0.0506  0.9203
11986TIP3   OH257372   0.789   3.651  12.793 -0.6081  0.4815  0.3326
11986TIP3    H157373   0.756   3.739  12.775 -1.0366  0.4333  0.8647
11986TIP3    H257374   0.768   3.601  12.715 -1.3660  0.5726  0.4767
11987TIP3   OH257375   1.806   3.640   0.769  0.4578 -0.2284 -0.0190
11987TIP3    H157376   1.862   3.691   0.828 -1.4826 -0.3532  1.9833
11987TIP3    H257377   1.748   3.705   0.729  0.3806 -0.4192 -0.2176
11988TIP3   OH257378   3.068   6.281  10.451  0.2556 -0.1989 -0.0972
11988TIP3    H157379   3.004   6.267  10.381  0.1707 -0.8700  0.1079
11988TIP3    H257380   3.151   6.295  10.406 -0.0102  0.5345 -0.3609
11989TIP3   OH257381   4.519   3.191  15.335  0.6141 -0.2039 -0.1413
11989TIP3    H157382   4.472   3.271  15.360  1.9894  0.1855  1.2805
11989TIP3    H257383   4.597   3.222  15.290  1.6288 -0.7256  1.2522
11990TIP3   OH257384   2.285   6.700  13.643 -0.1686  0.4577  0.0654
11990TIP3    H157385   2.325   6.777  13.603  0.3664  0.0931 -0.1122
11990TIP3    H257386   2.215   6.675  13.582 -0.3096  0.7770  0.0978
11991TIP3   OH257387   1.448   3.103   2.343  0.2891  0.3048 -0.2447
11991TIP3    H157388   1.440   3.152   2.425  0.6495 -0.0374 -0.0001
11991TIP3    H257389   1.537   3.066   2.346 -0.2441 -1.0092 -0.0597
11992TIP3   OH257390   5.608   2.581   5.038  0.1840 -0.5308 -0.4813
11992TIP3    H157391   5.696   2.544   5.039  0.4217  0.0451  0.4072
11992TIP3    H257392   5.556   2.518   5.088  0.6948  0.5714  1.4780
11993TIP3   OH257393   6.540   3.782  15.887 -0.3678 -0.2709 -0.5379
11993TIP3    H157394   6.538   3.821  15.974 -0.7302  0.6768 -0.9651
11993TIP3    H257395   6.585   3.698  15.899  0.8152  0.4712  0.3071
11994TIP3   OH257396   4.805   3.675   0.806  0.1269 -0.2595  0.4849
11994TIP3    H157397   4.740   3.722   0.858 -0.1162  0.7979 -0.7524
11994TIP3    H257398   4.826   3.735   0.734  0.5696 -1.6316 -0.5459
11995TIP3   OH257399   5.296   0.740   2.712 -0.3695 -0.3920 -0.4084
11995TIP3    H157400   5.224   0.800   2.732  0.6924  0.1662  1.9031
11995TIP3    H257401   5.262   0.653   2.735  0.1379  0.0225  1.9896
11996TIP3   OH257402   1.706   2.237  11.976 -0.8851 -0.4861 -0.0924
11996TIP3    H157403   1.782   2.226  11.918 -0.2983 -0.7516  0.7073
11996TIP3    H257404   1.631   2.243  11.917 -0.3147 -0.9036 -0.8734
11997TIP3   OH257405   4.335   6.534   4.317  0.2018 -0.2439 -0.2254
11997TIP3    H157406   4.429   6.546   4.329  0.3714 -0.9224 -0.8463
11997TIP3    H257407   4.298   6.622   4.321  0.7174 -0.0949  1.2661
11998TIP3   OH257408   0.248   3.400  13.356  0.2134 -0.6491  0.2891
11998TIP3    H157409   0.194   3.472  13.322 -1.6239 -1.8218  0.6396
11998TIP3    H257410   0.310   3.381  13.285 -0.3714  0.1629 -0.4558
11999TIP3   OH257411   2.906   3.023  16.002  0.5846 -0.2719  0.7643
11999TIP3    H157412   2.972   3.008  16.069  0.4411 -2.0453  0.5251
11999TIP3    H257413   2.907   2.944  15.948  2.0669  1.8986 -2.5649
12000TIP3   OH257414   4.749   0.427   5.855  0.3985 -0.0566 -0.1681
12000TIP3    H157415   4.815   0.441   5.923  0.5138 -1.4009  0.0116
12000TIP3    H257416   4.673   0.393   5.902  0.0164  0.2680 -0.5432
12001TIP3   OH257417   6.508   3.758  15.625 -0.0134  0.1190  0.2684
12001TIP3    H157418   6.506   3.761  15.720  0.6322  1.9422  0.2384
12001TIP3    H257419   6.455   3.833  15.597  1.1631  0.5697 -0.7921
12002TIP3   OH257420   0.013   3.427   5.900  0.3433  0.0560  0.3642
12002TIP3    H157421   0.034   3.476   5.979  0.8488  0.1733  0.1558
12002TIP3    H257422   0.073   3.352   5.902  1.5991  0.9903 -0.8136
12003TIP3   OH257423   1.373   5.824  15.878 -0.1243  0.2913 -0.0017
12003TIP3    H157424   1.359   5.783  15.963 -1.3857  1.9403  0.6212
12003TIP3    H257425   1.392   5.915  15.898  0.6685  0.4622 -1.4497
12004TIP3   OH257426   1.590   2.225   0.627 -0.2496  0.2945  0.3338
12004TIP3    H157427   1.666   2.174   0.599 -0.9946 -0.4175 -0.4166
12004TIP3    H257428   1.586   2.298   0.565 -0.2959  0.2292  0.2605
12005TIP3   OH257429   2.762   0.174  11.526 -0.1599  0.4654 -0.4327
12005TIP3    H157430   2.710   0.100  11.557 -1.1403  0.3430 -2.2652
12005TIP3    H257431   2.804   0.210  11.604 -1.5534 -0.5744  0.8035
12006TIP3   OH257432   0.216   0.129  12.850 -0.1677 -0.5237  0.1849
12006TIP3    H157433   0.141   0.184  12.873  0.2512 -0.4950  1.5428
12006TIP3    H257434   0.226   0.070  12.924  2.2983  0.7246  0.9094
12007TIP3   OH257435   6.709   2.290   2.196  0.2829  0.5133 -0.5039
12007TIP3    H157436   6.642   2.252   2.140  1.0250  0.0496 -1.0918
12007TIP3    H257437   6.732   2.220   2.257 -0.1468  0.8460  0.0484
12008TIP3   OH257438   0.234   0.093  14.867  0.1364  0.4026 -0.0123
12008TIP3    H157439   0.184   0.107  14.948  0.8490 -0.9469  0.6873
12008TIP3    H257440   0.167   0.079  14.800 -0.4571  0.6612  0.5150
12009TIP3   OH257441   5.302   1.593  10.960  0.4998  0.1325  0.2188
12009TIP3    H157442   5.297   1.688  10.959  2.4229  0.2656 -1.6998
12009TIP3    H257443   5.211   1.564  10.954 -0.2432  1.8070  2.8901
12010TIP3   OH257444   3.023   3.508   1.514 -0.0619  1.2176  0.2856
12010TIP3    H157445   2.951   3.525   1.453  0.6990  4.1881  0.1822
12010TIP3    H257446   2.984   3.524   1.600 -0.5199 -0.8164  0.4814
12011TIP3   OH257447   6.613   4.077   0.088 -0.2509  0.1017 -0.2753
12011TIP3    H157448   6.641   4.037   0.006 -2.2566  1.2292 -1.5514
12011TIP3    H257449   6.649   4.166   0.084 -0.1674  0.0881  0.1695
12012TIP3   OH257450   5.625   4.098   0.056  0.2166  0.1667  0.9283
12012TIP3    H157451   5.610   4.061   0.143 -2.8159 -0.9908 -0.0299
12012TIP3    H257452   5.607   4.025  -0.004  0.3048  1.5114 -0.7582
12013TIP3   OH257453   5.696   5.234   2.407 -0.0465 -0.0569  0.0753
12013TIP3    H157454   5.771   5.178   2.389  0.7089  0.7476  0.7016
12013TIP3    H257455   5.622   5.173   2.411  0.9936 -1.2801  2.4933
12014TIP3   OH257456   0.700   0.873   5.861  0.3784 -0.0893 -0.1910
12014TIP3    H157457   0.608   0.889   5.884  0.7974  1.0636  0.7460
12014TIP3    H257458   0.737   0.830   5.937  1.4001  2.3774  0.7658
12015TIP3   OH257459   3.679   0.525  12.524 -0.9885 -0.4007 -0.2110
12015TIP3    H157460   3.680   0.431  12.543  0.3931 -0.1084  1.2294
12015TIP3    H257461   3.731   0.564  12.593 -0.0348  1.2509 -1.8166
12016TIP3   OH257462   5.067   5.410   4.662 -0.4918 -0.4331  0.0834
12016TIP3    H157463   5.001   5.346   4.685 -0.0128 -0.5360  1.1814
12016TIP3    H257464   5.146   5.359   4.643 -0.4295 -0.2423 -0.1915
12017TIP3   OH257465   3.275   5.103   4.986 -0.6296 -0.7771  0.3391
12017TIP3    H157466   3.235   5.034   5.039 -1.8766  0.5434  1.1199
12017TIP3    H257467   3.254   5.079   4.896 -1.7530 -0.9905  0.6552
12018TIP3   OH257468   0.838   6.449  11.174 -0.3770 -0.1278 -0.1168
12018TIP3    H157469   0.930   6.434  11.150 -0.4614 -1.3747  0.3162
12018TIP3    H257470   0.816   6.532  11.132  1.3303  0.8294  0.8301
12019TIP3   OH257471   3.600   0.794   5.471 -0.3501  0.1570 -0.2766
12019TIP3    H157472   3.614   0.802   5.566 -0.8026  0.8173 -0.2612
12019TIP3    H257473   3.506   0.811   5.460 -0.3303 -0.1033 -0.8216
12020TIP3   OH257474   5.450   1.849  15.685 -0.7520 -0.4060 -0.3972
12020TIP3    H157475   5.511   1.910  15.726 -3.0780  1.2445  0.6972
12020TIP3    H257476   5.505   1.792  15.632  1.8356  0.3852  1.3696
12021TIP3   OH257477   5.408   2.332  14.433 -0.5361  0.5229  0.7069
12021TIP3    H157478   5.500   2.357  14.441 -0.3398  0.3530 -0.9529
12021TIP3    H257479   5.409   2.237  14.429 -0.7463  0.5349  0.2974
12022TIP3   OH257480   5.783   5.339  12.744  0.4863  0.6898 -0.0842
12022TIP3    H157481   5.765   5.422  12.789 -0.1662 -0.5047  1.9709
12022TIP3    H257482   5.851   5.359  12.681  1.0173  2.5980  1.0577
12023TIP3   OH257483   4.581   1.229   3.367  0.1513  0.0948 -0.3306
12023TIP3    H157484   4.624   1.236   3.282  0.5665  2.0274  0.0092
12023TIP3    H257485   4.502   1.178   3.349  1.3505 -1.4467 -1.4162
12024TIP3   OH257486   6.689   3.785   6.587 -0.6702 -0.4740  0.1310
12024TIP3    H157487   6.743   3.706   6.581 -0.2072  0.0130 -2.3958
12024TIP3    H257488   6.602   3.752   6.612  0.1768 -1.4929  1.8385
12025TIP3   OH257489   6.536   6.298   3.229 -0.0425  0.0052  0.0228
12025TIP3    H157490   6.572   6.386   3.221  0.3320 -0.0928  0.5702
12025TIP3    H257491   6.555   6.256   3.145  0.4443  0.2047  0.0331
12026TIP3   OH257492   2.390   0.715  16.363 -0.4797 -0.2786 -0.2516
12026TIP3    H157493   2.351   0.707  16.276  1.5998  1.3251 -1.3844
12026TIP3    H257494   2.430   0.802  16.363  2.2280 -1.4848  1.1884
12027TIP3   OH257495   2.864   5.514  16.180  0.2509  0.3324  0.5548
12027TIP3    H157496   2.944   5.566  16.169  0.2892  0.1461 -0.1314
12027TIP3    H257497   2.805   5.547  16.112  0.1831 -0.3368  0.2873
12028TIP3   OH257498   2.380   5.681   0.041  0.2124  0.1577  0.1442
12028TIP3    H157499   2.469   5.695   0.011  0.4885 -1.0638  0.3807
12028TIP3    H257500   2.350   5.768   0.068  1.0143  0.7275 -0.7542
12029TIP3   OH257501   0.315   0.377   1.464  0.3924  0.3770 -0.1086
12029TIP3    H157502   0.285   0.463   1.437  0.0623  0.1495 -0.4746
12029TIP3    H257503   0.277   0.364   1.551  0.3012  0.5270 -0.1267
12030TIP3   OH257504   4.069   4.445  11.241  0.4674  0.2363 -0.0313
12030TIP3    H157505   3.996   4.455  11.180 -0.5762  0.4032  1.1965
12030TIP3    H257506   4.042   4.496  11.318  1.5106 -0.3957  0.7705
12031TIP3   OH257507   6.774   1.582   5.614  0.2559 -0.2303  0.0309
12031TIP3    H157508   6.864   1.615   5.603  0.8303 -1.2755  1.4107
12031TIP3    H257509   6.741   1.627   5.691 -1.1523  1.6555 -1.6354
12032TIP3   OH257510   3.397   4.021  12.920 -0.4116 -0.1188  0.5891
12032TIP3    H157511   3.437   4.081  12.982  1.0059  0.5168 -0.8929
12032TIP3    H257512   3.326   4.072  12.880 -0.4504 -0.0700  0.7217
12033TIP3   OH257513   0.000   1.996   0.149 -0.8690  0.3651 -0.2391
12033TIP3    H157514  -0.034   2.079   0.118  0.0596  0.8249 -0.0265
12033TIP3    H257515  -0.036   1.987   0.237 -2.8095 -0.5392 -1.0955
12034TIP3   OH257516   0.934   1.306  14.764 -0.7244 -0.2445 -0.4839
12034TIP3    H157517   1.016   1.273  14.728  0.7948  2.6731  0.1295
12034TIP3    H257518   0.895   1.357  14.693 -1.8171 -1.2319 -0.6162
12035TIP3   OH257519   3.635   6.125  15.024 -0.1297 -0.2835 -0.5808
12035TIP3    H157520   3.567   6.057  15.016 -0.3626 -0.3168  1.4385
12035TIP3    H257521   3.588   6.204  15.048  0.6010 -0.4595  1.4978
12036TIP3   OH257522   0.677   0.890   1.525 -0.4323  0.3445 -0.3425
12036TIP3    H157523   0.601   0.903   1.580  0.1453  0.2618  0.4808
12036TIP3    H257524   0.752   0.894   1.585  0.2037  0.3123 -1.1173
12037TIP3   OH257525   4.029   5.145   4.651 -0.6125 -0.0092 -0.2080
12037TIP3    H157526   3.967   5.089   4.697 -1.7144  0.4569 -1.0865
12037TIP3    H257527   4.048   5.216   4.712 -0.3768 -0.5383  0.3398
12038TIP3   OH257528   3.727   0.831  11.998 -0.1747 -0.2539  0.3370
12038TIP3    H157529   3.647   0.786  11.971  1.5230 -2.6655 -0.8554
12038TIP3    H257530   3.773   0.767  12.054  1.0105  1.0029  0.8352
12039TIP3   OH257531   1.321   4.230   1.913  0.3432 -0.0772 -0.4859
12039TIP3    H157532   1.399   4.269   1.872  1.4048 -1.1925  0.4308
12039TIP3    H257533   1.337   4.238   2.007  0.0402 -1.6486 -0.2891
12040TIP3   OH257534   5.412   4.402   3.127 -0.2966  0.3017 -0.2161
12040TIP3    H157535   5.350   4.329   3.124 -0.5739  0.5209  0.1312
12040TIP3    H257536   5.487   4.372   3.077 -0.2807 -0.3510  0.1935
12041TIP3   OH257537   4.214   1.119   4.612  0.5445  0.2277  0.1555
12041TIP3    H157538   4.235   1.191   4.552 -0.3227 -0.5841 -1.1490
12041TIP3    H257539   4.121   1.105   4.600  0.9553 -1.9890 -0.6052
12042TIP3   OH257540   5.641   0.743  10.654 -0.1038 -0.4043 -0.1592
12042TIP3    H157541   5.705   0.774  10.590 -0.4412 -2.4830 -1.5714
12042TIP3    H257542   5.686   0.749  10.738  1.4460 -0.4662 -0.9560
12043TIP3   OH257543   2.498   1.293   3.538  0.0064 -0.1660 -0.3368
12043TIP3    H157544   2.476   1.373   3.587 -0.2369  0.6227 -1.7149
12043TIP3    H257545   2.593   1.290   3.539 -0.0141 -1.3829  2.1176
12044TIP3   OH257546   4.416   5.213  11.798  0.3595  0.1172  0.0826
12044TIP3    H157547   4.361   5.225  11.721 -0.5666  0.0545  0.7291
12044TIP3    H257548   4.461   5.297  11.808  0.7791 -0.0028 -0.7519
12045TIP3   OH257549   3.380   6.244   2.457  0.0884  0.0877  1.0285
12045TIP3    H157550   3.302   6.195   2.431  0.4653  0.3643 -0.6912
12045TIP3    H257551   3.443   6.176   2.482  0.0369 -0.2438  0.2831
12046TIP3   OH257552   5.001   1.818  15.033  0.2786  0.3257  0.0941
12046TIP3    H157553   5.092   1.793  15.046  0.2763  0.0981 -0.3432
12046TIP3    H257554   4.951   1.759  15.090  0.4511  0.8938  0.8446
12047TIP3   OH257555   6.399   4.953  15.421 -0.2415 -0.0541 -0.0396
12047TIP3    H157556   6.489   4.967  15.394 -0.9295  0.7457 -2.0167
12047TIP3    H257557   6.379   4.864  15.392 -0.0854 -0.2462  0.4339
12048TIP3   OH257558   1.448   1.126  12.339  0.1220  0.6586 -0.7202
12048TIP3    H157559   1.382   1.189  12.367 -0.0106 -0.3042  1.1743
12048TIP3    H257560   1.401   1.070  12.277 -1.2923 -0.9211  1.6982
12049TIP3   OH257561   2.132   3.332   3.564  0.7933 -0.9387  0.5573
12049TIP3    H157562   2.089   3.310   3.647  1.3642 -1.1886  0.7858
12049TIP3    H257563   2.071   3.391   3.521  0.6236 -0.5821  1.2822
12050TIP3   OH257564   4.659   2.667  13.292 -0.3791 -0.0083  0.3010
12050TIP3    H157565   4.749   2.641  13.272 -0.4893 -1.1156  1.2299
12050TIP3    H257566   4.615   2.667  13.207  0.8685  2.0878 -0.4027
12051TIP3   OH257567   5.030   1.118   3.915  0.4168  0.4395 -0.2667
12051TIP3    H157568   4.937   1.123   3.937  0.3099  0.2566 -0.6614
12051TIP3    H257569   5.073   1.178   3.976 -0.0794  1.3247 -0.7810
12052TIP3   OH257570   5.408   2.235   5.473  0.1555 -0.2817 -0.8333
12052TIP3    H157571   5.493   2.276   5.489  0.5129  0.0733 -3.4054
12052TIP3    H257572   5.366   2.233   5.559  0.9533  3.6502 -0.2421
12053TIP3   OH257573   5.394   1.820   3.105 -0.1896 -0.4052  0.1523
12053TIP3    H157574   5.465   1.779   3.056 -0.3963  0.1108 -0.5846
12053TIP3    H257575   5.315   1.797   3.055 -0.0907  2.8144 -1.5729
12054TIP3   OH257576   0.909   0.515  11.112 -0.5804 -0.1081  0.2802
12054TIP3    H157577   0.924   0.420  11.107  1.8517  0.2252  0.9538
12054TIP3    H257578   0.992   0.554  11.087 -2.1089  1.9268 -1.8659
12055TIP3   OH257579   2.087   5.383   6.620  0.6282 -0.9094  0.1762
12055TIP3    H157580   2.131   5.298   6.620  1.8512 -0.3094  2.4982
12055TIP3    H257581   2.018   5.375   6.685  0.2184 -0.3763 -0.1826
12056TIP3   OH257582   1.979   5.698  13.926 -0.2956 -0.1490 -0.6930
12056TIP3    H157583   1.996   5.724  13.835  1.0186  0.1128 -0.3847
12056TIP3    H257584   2.050   5.637  13.947  0.3426  1.0337  0.6614
12057TIP3   OH257585   0.793   0.826  14.088  0.3705 -0.4231 -0.0346
12057TIP3    H157586   0.720   0.863  14.038 -0.2518 -1.5513  0.0005
12057TIP3    H257587   0.868   0.829  14.029  0.3569  0.9463  0.0016
12058TIP3   OH257588   1.470   6.208   2.128 -0.6533 -0.3237 -0.0261
12058TIP3    H157589   1.405   6.145   2.160 -0.8782 -0.1044 -0.0509
12058TIP3    H257590   1.456   6.211   2.034  0.0458 -1.0104 -0.1529
12059TIP3   OH257591   6.119   1.555  14.509  0.9058  0.4950 -0.6143
12059TIP3    H157592   6.182   1.556  14.582  1.4810  0.9863 -1.1131
12059TIP3    H257593   6.100   1.463  14.495 -1.2867  0.4960  1.9304
12060TIP3   OH257594   6.581   2.117  14.067 -0.2519 -0.3041  0.5385
12060TIP3    H157595   6.512   2.183  14.068  0.7568  0.8244 -0.9573
12060TIP3    H257596   6.535   2.034  14.076 -1.7202  0.4786  0.4479
12061TIP3   OH257597   0.419   3.678  15.402 -0.1024  0.2821 -0.6021
12061TIP3    H157598   0.432   3.583  15.404  0.4957  0.3740  0.5151
12061TIP3    H257599   0.411   3.703  15.494 -0.7711  1.2523 -0.9092
12062TIP3   OH257600   3.580   1.508   3.784 -0.2645  0.1235  0.5758
12062TIP3    H157601   3.619   1.498   3.871 -1.5915 -2.0488  0.9707
12062TIP3    H257602   3.504   1.564   3.799  0.4466  1.1135  0.5103
12063TIP3   OH257603   2.843   3.383   5.098  0.4866  0.3428  0.5109
12063TIP3    H157604   2.821   3.476   5.093 -1.0846  0.0553  1.6696
12063TIP3    H257605   2.799   3.344   5.023  1.8284  0.6525 -0.4457
12064TIP3   OH257606   4.796   2.960   4.083  0.3231  0.5976 -0.1083
12064TIP3    H157607   4.714   2.910   4.088  1.5117 -1.3770  0.0309
12064TIP3    H257608   4.791   3.005   3.999 -0.3660 -0.4724 -0.6494
12065TIP3   OH257609   5.145   6.272  14.505  0.1005  0.0138 -0.3978
12065TIP3    H157610   5.069   6.302  14.456  0.2522  0.9084 -0.0919
12065TIP3    H257611   5.198   6.225  14.441 -0.6277 -0.4809 -0.6495
12066TIP3   OH257612   4.995   3.570   4.554  0.3492  0.2848 -0.2030
12066TIP3    H157613   4.969   3.487   4.515  1.0281 -0.0526  0.0608
12066TIP3    H257614   5.056   3.608   4.492  0.0520  0.5795 -0.3147
12067TIP3   OH257615   4.271   1.045   5.315 -0.1894 -0.0913 -0.3980
12067TIP3    H157616   4.178   1.052   5.295 -0.9629 -1.2977  2.4987
12067TIP3    H257617   4.287   1.115   5.378 -0.0688 -2.3086  2.1061
12068TIP3   OH257618   3.512   2.294   1.936 -0.0670  0.3894  0.0914
12068TIP3    H157619   3.583   2.234   1.915  1.1570  1.6488  0.5973
12068TIP3    H257620   3.530   2.324   2.025 -0.5593  1.6531 -0.2157
12069TIP3   OH257621   5.165   1.106  13.149 -0.0871 -0.0400  0.0419
12069TIP3    H157622   5.234   1.167  13.175 -1.6188  0.0235  4.4669
12069TIP3    H257623   5.099   1.161  13.108  0.9488  0.4240 -1.0182
12070TIP3   OH257624   1.869   4.627   1.612  0.5302 -0.2146  0.7306
12070TIP3    H157625   1.844   4.697   1.551  0.9717 -0.3567  0.3871
12070TIP3    H257626   1.954   4.597   1.581 -0.0835 -1.5595  0.2846
12071TIP3   OH257627   6.185   6.711  13.034 -0.8812  0.8379 -0.2284
12071TIP3    H157628   6.138   6.770  13.093 -2.4435  1.0368 -1.6369
12071TIP3    H257629   6.202   6.633  13.088  0.2904  2.1249  1.3324
12072TIP3   OH257630   3.650   6.352  12.577 -0.2847 -0.6805  0.1505
12072TIP3    H157631   3.690   6.269  12.599  0.4413 -0.5045 -0.4841
12072TIP3    H257632   3.657   6.357  12.481  2.3522  1.4558  0.4100
12073TIP3   OH257633   1.011   0.248  14.565 -0.2548 -0.0892 -0.8784
12073TIP3    H157634   1.040   0.336  14.542 -1.6513  0.4007 -0.8235
12073TIP3    H257635   0.997   0.205  14.480  0.5644 -0.3052 -0.9038
12074TIP3   OH257636   1.970   5.770   1.895  0.4565  0.0250 -0.0903
12074TIP3    H157637   2.033   5.840   1.875  0.7232  0.3983  1.9581
12074TIP3    H257638   1.963   5.771   1.991 -2.7244  0.0353 -0.2724
12075TIP3   OH257639   3.137   0.201  15.672 -0.1622  0.1432 -0.1858
12075TIP3    H157640   3.171   0.157  15.750 -0.0479  1.5509  0.5730
12075TIP3    H257641   3.053   0.158  15.655 -0.9675  0.9434  1.7005
12076TIP3   OH257642   4.652   1.648   4.701  0.3423  0.6037 -0.3095
12076TIP3    H157643   4.731   1.641   4.754 -0.0364  1.3301  0.3554
12076TIP3    H257644   4.636   1.559   4.669 -0.3124 -0.1520  2.0418
12077TIP3   OH257645   0.594   0.972   3.776  0.1405  0.1049 -0.3997
12077TIP3    H157646   0.526   1.037   3.795 -0.2628 -0.1280 -1.0481
12077TIP3    H257647   0.673   1.008   3.817 -0.2646  0.6101 -0.0580
12078TIP3   OH257648   1.330   4.432  15.695  0.4319  0.3918 -1.0249
12078TIP3    H157649   1.342   4.512  15.746  2.9574 -1.5354  1.6005
12078TIP3    H257650   1.238   4.408  15.708 -0.0877  2.3309 -1.0561
12079TIP3   OH257651   3.619   4.283   4.916  0.3795 -0.4555 -0.1234
12079TIP3    H157652   3.577   4.249   4.837 -2.2352  1.2806  0.4429
12079TIP3    H257653   3.633   4.375   4.897  1.8468 -0.5280  0.5976
12080TIP3   OH257654   0.304   5.827   1.641 -0.0557  0.6147  0.5130
12080TIP3    H157655   0.325   5.886   1.569 -2.1473  0.1502 -0.5314
12080TIP3    H257656   0.268   5.884   1.709  0.5752  0.8825  0.6214
12081TIP3   OH257657   5.246   6.605  13.586  0.0445 -0.4662  0.2375
12081TIP3    H157658   5.258   6.594  13.492 -1.1542  1.4042 -0.1528
12081TIP3    H257659   5.243   6.699  13.600  1.7521 -0.6888  2.3777
12082TIP3   OH257660   3.038   0.337   1.224  0.2486  0.1063 -0.2553
12082TIP3    H157661   2.993   0.253   1.230 -0.4886  0.5081 -0.0025
12082TIP3    H257662   3.104   0.335   1.293  0.7550 -0.5716 -0.7573
12083TIP3   OH257663   2.088   4.347   5.940  0.5213  0.2110  0.4550
12083TIP3    H157664   2.016   4.391   5.895  1.0367  0.5931 -0.0003
12083TIP3    H257665   2.052   4.326   6.026 -0.2253  0.1449  0.1322
12084TIP3   OH257666   0.979   4.401   0.699 -0.1082  0.1386  0.2418
12084TIP3    H157667   0.934   4.319   0.718  0.8188 -0.1350  1.2720
12084TIP3    H257668   1.042   4.378   0.630 -0.8091  0.2966 -0.4600
12085TIP3   OH257669   0.569   1.274  12.387 -0.3288 -0.8277  0.2493
12085TIP3    H157670   0.497   1.333  12.410 -0.7003 -1.5758  1.0253
12085TIP3    H257671   0.594   1.301  12.299 -1.2768 -0.2769  0.1351
12086TIP3   OH257672   6.672   4.013  12.336 -0.6176 -0.2856  0.9055
12086TIP3    H157673   6.673   4.096  12.383 -1.0049 -0.1067  0.6072
12086TIP3    H257674   6.580   3.987  12.336 -0.9812  0.8692 -1.7338
12087TIP3   OH257675   5.558   0.275   2.923  0.4841 -0.6047  0.6743
12087TIP3    H157676   5.481   0.255   2.976  0.2525  0.7662  0.8669
12087TIP3    H257677   5.551   0.368   2.904  0.7379 -0.9882 -1.4754
12088TIP3   OH257678   5.384   5.399  14.550  0.6480 -0.0003 -0.1763
12088TIP3    H157679   5.366   5.320  14.498  0.1490  0.0163 -0.0349
12088TIP3    H257680   5.435   5.368  14.625  0.1794 -0.2431  0.0469
12089TIP3   OH257681   4.509   4.254   2.558 -0.0678 -0.8625  0.0895
12089TIP3    H157682   4.487   4.191   2.627  0.0212 -1.7709 -0.7114
12089TIP3    H257683   4.451   4.232   2.485  0.9416 -0.9255 -0.7081
12090TIP3   OH257684   1.242   0.034  13.305 -0.1634  0.0260  0.4078
12090TIP3    H157685   1.153   0.059  13.329 -0.2815 -0.7294  0.7624
12090TIP3    H257686   1.265   0.092  13.233 -1.5685 -0.9447 -0.8427
12091TIP3   OH257687   4.685   6.466  12.365  0.0262 -0.3070 -0.1409
12091TIP3    H157688   4.704   6.425  12.281 -0.5212  1.2374 -1.0536
12091TIP3    H257689   4.604   6.515  12.349 -1.2925 -1.7412  1.8926
12092TIP3   OH257690   5.875   4.064   2.281  0.0450 -0.2197  0.0410
12092TIP3    H157691   5.904   4.143   2.327  0.6648  0.4317 -1.4149
12092TIP3    H257692   5.934   3.995   2.310  0.2109  0.1047  0.4749
12093TIP3   OH257693   4.088   4.821   3.724 -0.5414  0.2759 -0.0508
12093TIP3    H157694   4.105   4.914   3.739  0.8375 -0.0317  0.3669
12093TIP3    H257695   4.111   4.778   3.807 -0.4978 -0.5095 -0.4602
12094TIP3   OH257696   0.042   0.934   1.209 -0.0727 -0.0506 -0.0620
12094TIP3    H157697   0.005   1.012   1.167 -0.0589 -0.7245 -1.3725
12094TIP3    H257698   0.030   0.864   1.144  1.0836 -0.8483  0.5565
12095TIP3   OH257699   4.567   0.363  11.974 -0.4022  0.1278  0.3494
12095TIP3    H157700   4.602   0.390  11.889  1.3358  0.3226  1.0949
12095TIP3    H257701   4.547   0.270  11.962  1.2555 -0.2357  0.1352
12096TIP3   OH257702   6.213   4.388   3.915  0.0774  0.0794  0.0338
12096TIP3    H157703   6.290   4.445   3.920  0.5363 -0.4171 -1.0787
12096TIP3    H257704   6.139   4.444   3.940  0.6851  0.7929  0.2500
12097TIP3   OH257705   3.048   0.062  16.174 -0.1331 -0.9894 -0.4599
12097TIP3    H157706   3.064   0.095  16.086 -2.7089  1.0368 -0.2392
12097TIP3    H257707   2.959   0.090  16.194  0.4747 -1.2143  2.8757
12098TIP3   OH257708   5.618   0.328  12.941  0.0670 -0.9792  0.6995
12098TIP3    H157709   5.531   0.365  12.953  0.2430  0.2018 -1.4671
12098TIP3    H257710   5.608   0.236  12.964 -1.5461 -0.6788  1.2722
12099TIP3   OH257711   6.194   4.712  16.376  0.0994 -0.6652  0.1240
12099TIP3    H157712   6.134   4.716  16.303 -1.2272  1.5513  1.2928
12099TIP3    H257713   6.161   4.641  16.432  0.5186 -1.6526 -0.8565
12100TIP3   OH257714   3.011   6.593   5.595  0.1049  0.3530  0.4448
12100TIP3    H157715   3.071   6.667   5.593 -2.0576  2.2399  2.4915
12100TIP3    H257716   3.031   6.548   5.678 -0.2881  0.1133  0.4129
12101TIP3   OH257717   2.332   3.502  16.300 -0.4312  0.7040  0.2492
12101TIP3    H157718   2.402   3.517  16.237 -0.2814  0.8717  0.4540
12101TIP3    H257719   2.275   3.437  16.258 -0.0353  0.4063  0.1798
12102TIP3   OH257720   4.333   0.402  11.009  0.3139 -0.1825 -0.0554
12102TIP3    H157721   4.392   0.472  10.981  1.1573 -0.9017 -0.0866
12102TIP3    H257722   4.251   0.421  10.963  0.3169  1.1688  0.4589
12103TIP3   OH257723   3.886   2.072  11.221 -0.0378 -0.1545  0.3799
12103TIP3    H157724   3.899   2.102  11.131  0.2004 -1.0837  0.1010
12103TIP3    H257725   3.791   2.074  11.234 -0.0434  0.3692  0.2392
12104TIP3   OH257726   2.743   1.395   4.772 -0.0826 -0.2781  0.1301
12104TIP3    H157727   2.747   1.434   4.859 -1.7993  1.7699 -0.6461
12104TIP3    H257728   2.787   1.458   4.715  0.1721 -1.1256 -0.6256
12105TIP3   OH257729   6.375   2.644  14.011  1.3923  0.0113 -0.0330
12105TIP3    H157730   6.421   2.723  14.039 -1.9254  2.0194  0.0148
12105TIP3    H257731   6.332   2.612  14.091 -0.8637  0.7061 -0.9419
12106TIP3   OH257732   5.465   0.363   0.272  0.0557  0.0938  0.6005
12106TIP3    H157733   5.377   0.363   0.234  0.4459 -1.3403 -0.3671
12106TIP3    H257734   5.498   0.451   0.256 -0.9674  0.4444  0.3858
12107TIP3   OH257735   5.781   6.383  12.322 -0.2604  0.2514 -0.0475
12107TIP3    H157736   5.799   6.340  12.239  0.0304 -0.9319  0.6173
12107TIP3    H257737   5.695   6.351  12.348 -1.2307  2.1236 -0.8245
12108TIP3   OH257738   6.499   3.223   1.650 -0.0144 -0.2649  0.2825
12108TIP3    H157739   6.592   3.242   1.650  0.1989 -1.2371 -0.5316
12108TIP3    H257740   6.485   3.166   1.725 -0.0942  0.4961  0.8515
12109TIP3   OH257741   2.237   1.032   0.931  0.5168 -0.2440  0.1161
12109TIP3    H157742   2.298   1.015   0.859 -0.3790  0.9907 -0.9744
12109TIP3    H257743   2.206   0.946   0.958  2.3934 -0.8486  0.3848
12110TIP3   OH257744   6.045   6.597   1.600 -0.1504 -0.3340  0.1449
12110TIP3    H157745   5.983   6.665   1.576 -0.7260 -0.0219  2.4036
12110TIP3    H257746   5.991   6.521   1.621  0.1872 -0.0431  2.1777
12111TIP3   OH257747   6.368   2.207   5.485  0.0073 -0.1125 -0.1081
12111TIP3    H157748   6.352   2.192   5.578 -0.8549  2.0603  0.1250
12111TIP3    H257749   6.360   2.120   5.445 -4.4070 -0.4275  1.1632
12112TIP3   OH257750   0.000   5.682  15.993  0.3525  0.4426  0.1921
12112TIP3    H157751   0.021   5.633  15.913  0.9074  0.2397  0.4535
12112TIP3    H257752  -0.095   5.685  15.995  0.2396 -1.9641  0.9521
12113TIP3   OH257753   4.888   4.996   2.441 -0.1532 -0.2651 -0.4202
12113TIP3    H157754   4.836   4.923   2.476  0.1404 -1.7996 -3.0555
12113TIP3    H257755   4.838   5.074   2.464 -1.7077 -1.4515  0.3636
12114TIP3   OH257756   4.454   3.211   5.765  0.5742 -0.1719  0.0964
12114TIP3    H157757   4.428   3.298   5.736 -1.2060 -1.2765 -1.7313
12114TIP3    H257758   4.375   3.174   5.805  1.1397 -1.1601  0.3169
12115TIP3   OH257759   3.771   4.985  11.121 -0.4699  0.4265  0.8217
12115TIP3    H157760   3.811   5.069  11.101  0.3966  0.4153  2.4279
12115TIP3    H257761   3.803   4.926  11.053 -1.2515  1.4189 -0.4458
12116TIP3   OH257762   1.620   4.051   5.372  0.3477  0.3197  0.0489
12116TIP3    H157763   1.597   4.114   5.304  1.2197  0.6809  0.0733
12116TIP3    H257764   1.609   4.100   5.454  0.1380  0.1594  0.1139
12117TIP3   OH257765   1.874   3.287   4.459  0.4859  0.0446  0.0813
12117TIP3    H157766   1.859   3.249   4.546  1.9129  0.6560  0.6002
12117TIP3    H257767   1.937   3.228   4.418 -0.1678 -0.2290 -0.5470
12118TIP3   OH257768   4.900   5.868   4.344 -0.4134 -0.1069  0.5895
12118TIP3    H157769   4.960   5.887   4.415 -0.0550 -1.1829  0.5912
12118TIP3    H257770   4.955   5.831   4.275 -0.7580  0.9168 -0.2474
12119TIP3   OH257771   2.842   3.679   2.476 -0.0331 -0.2254  0.3319
12119TIP3    H157772   2.924   3.652   2.434 -0.8411 -2.2116 -0.0314
12119TIP3    H257773   2.862   3.764   2.514  1.2144  0.8999 -2.6552
12120TIP3   OH257774   3.033   1.361  17.235  0.2313 -0.1937 -0.5596
12120TIP3    H157775   3.045   1.294  17.167  0.9258 -2.2522  1.5596
12120TIP3    H257776   3.078   1.327  17.311  0.8155  2.8440  0.5162
12121TIP3   OH257777   2.491   2.990   3.063 -0.3979 -0.5702  0.2456
12121TIP3    H157778   2.551   2.973   2.990 -0.6883  0.1245 -0.1683
12121TIP3    H257779   2.526   2.939   3.136 -0.3520 -1.6234 -0.5017
12122TIP3   OH257780   6.040   0.842  16.373  0.2715 -0.3052 -0.2911
12122TIP3    H157781   6.133   0.836  16.352  0.3843  1.3012 -0.2948
12122TIP3    H257782   5.996   0.838  16.288  0.4705  1.3676 -0.4797
12123TIP3   OH257783   0.576   2.259   5.603  0.2401 -0.6699  0.1535
12123TIP3    H157784   0.544   2.171   5.585 -2.1396 -0.3913  2.6427
12123TIP3    H257785   0.644   2.248   5.669  0.8432 -0.7213 -0.4666
12124TIP3   OH257786   1.210   6.443   5.197  0.2395  0.7052  0.2476
12124TIP3    H157787   1.233   6.438   5.104 -1.6648 -3.0943 -0.1185
12124TIP3    H257788   1.118   6.471   5.197  0.5043  1.6167  1.0583
12125TIP3   OH257789   6.506   2.833   3.665 -0.0659  0.0876  0.0935
12125TIP3    H157790   6.477   2.802   3.579 -0.9570  1.8850 -0.2865
12125TIP3    H257791   6.601   2.819   3.665 -0.0324  0.2556 -1.2688
12126TIP3   OH257792   4.606   4.592   3.492  0.6016  0.5321  0.3203
12126TIP3    H157793   4.613   4.598   3.396 -0.3354  0.6638  0.2591
12126TIP3    H257794   4.689   4.553   3.519  1.3988  1.6271 -0.4445
12127TIP3   OH257795   2.155   3.382  14.501 -0.6574  0.2476 -0.2710
12127TIP3    H157796   2.137   3.473  14.527  0.6069  0.4060  0.0658
12127TIP3    H257797   2.118   3.329  14.572  0.1774  0.5698  0.4110
12128TIP3   OH257798   1.326   6.449   2.897 -0.5095 -0.1543 -0.2049
12128TIP3    H157799   1.307   6.509   2.825 -1.5314  0.9989  0.9980
12128TIP3    H257800   1.422   6.447   2.901 -0.4515  0.2285 -1.2147
12129TIP3   OH257801   2.293   0.303  16.969 -0.3862  0.3782  0.4021
12129TIP3    H157802   2.258   0.251  17.041  0.1987  0.1944  0.5542
12129TIP3    H257803   2.301   0.392  17.004  2.6280 -0.2571  1.5215
12130TIP3   OH257804   5.404   1.868   3.764 -0.2764  0.3977  0.2713
12130TIP3    H157805   5.397   1.783   3.806 -0.2657 -0.8613 -2.2037
12130TIP3    H257806   5.424   1.929   3.836 -1.0213 -1.5394  2.1601
12131TIP3   OH257807   1.781   5.901   1.492  0.0683 -0.2814 -0.2284
12131TIP3    H157808   1.809   5.908   1.401  2.0246  1.8887  0.4996
12131TIP3    H257809   1.725   5.978   1.505  0.4278 -0.1548  0.5979
12132TIP3   OH257810   4.769   2.416  16.473 -1.3950 -0.0607  0.0610
12132TIP3    H157811   4.694   2.440  16.418 -1.4459 -1.2472 -0.3959
12132TIP3    H257812   4.839   2.398  16.410 -0.7883  0.7841  0.4776
12133TIP3   OH257813   2.207   2.801  13.150  0.4322  0.6559 -0.5095
12133TIP3    H157814   2.167   2.724  13.109  0.1849  0.3983  0.2125
12133TIP3    H257815   2.153   2.819  13.227  0.7708  1.2674 -0.4046
12134TIP3   OH257816   1.609   5.745   2.429  0.4204  0.1050  0.3922
12134TIP3    H157817   1.564   5.764   2.347 -1.0967  0.4090  1.2769
12134TIP3    H257818   1.609   5.650   2.435 -0.4338  0.1163  0.5700
12135TIP3   OH257819   1.278   3.903  11.554  0.0694  0.5074 -0.3360
12135TIP3    H157820   1.343   3.846  11.596  0.9796  0.1162 -2.2033
12135TIP3    H257821   1.304   3.991  11.579 -0.9336  0.1656  2.0031
12136TIP3   OH257822   2.217   6.167   0.331 -0.2193 -0.0581 -0.3804
12136TIP3    H157823   2.143   6.168   0.391 -0.9700  2.2987 -1.2729
12136TIP3    H257824   2.200   6.093   0.272 -1.3973 -0.0580 -0.0350
12137TIP3   OH257825   3.716   0.612   2.718  0.0446 -0.5361  0.0662
12137TIP3    H157826   3.763   0.530   2.730 -0.6802 -0.7310  1.7916
12137TIP3    H257827   3.666   0.623   2.799 -2.4179 -0.0493 -1.4445
12138TIP3   OH257828   0.037   5.577   6.323 -0.4641 -0.5116  0.3961
12138TIP3    H157829   0.069   5.659   6.287 -1.1859  0.1254  1.1886
12138TIP3    H257830  -0.057   5.590   6.334 -0.6977 -1.6886 -0.1095
12139TIP3   OH257831   5.019   1.451   4.693 -0.6734  0.5402  0.3953
12139TIP3    H157832   5.073   1.528   4.711  0.5720 -0.4208  0.8902
12139TIP3    H257833   5.064   1.380   4.737 -0.9799 -0.7558 -1.3325
12140TIP3   OH257834   0.310   1.832  13.258  0.0503 -0.0082 -0.2831
12140TIP3    H157835   0.275   1.838  13.347  0.3130  0.1666 -0.1918
12140TIP3    H257836   0.346   1.918  13.240 -0.5749  0.1515 -0.8010
12141TIP3   OH257837   1.200   0.565  13.602 -0.5768  0.3776 -0.0956
12141TIP3    H157838   1.220   0.501  13.534 -0.0281  0.2112  0.2248
12141TIP3    H257839   1.284   0.607  13.622 -0.8630  0.9300 -0.0292
12142TIP3   OH257840   5.522   2.184   5.202 -0.1101 -0.4828 -0.6449
12142TIP3    H157841   5.442   2.131   5.212  0.1654 -0.9797 -1.0425
12142TIP3    H257842   5.536   2.223   5.288 -1.2657  0.3018 -0.7991
12143TIP3   OH257843   5.437   2.354   2.337 -0.1394  0.3273  0.6342
12143TIP3    H157844   5.465   2.265   2.361 -1.8188 -0.6490 -0.8531
12143TIP3    H257845   5.474   2.410   2.405  0.6428 -1.5558  1.8148
12144TIP3   OH257846   6.255   3.595  12.166 -0.1552 -0.1577  0.4453
12144TIP3    H157847   6.240   3.655  12.239  0.1359  0.8133 -0.2815
12144TIP3    H257848   6.202   3.629  12.095 -0.1905 -0.9162  0.1000
12145TIP3   OH257849   0.742   6.184   6.424 -0.2613  0.0150  0.0323
12145TIP3    H157850   0.759   6.091   6.406  1.0812  0.4097 -0.8234
12145TIP3    H257851   0.669   6.206   6.367 -0.4897 -0.4903  0.1265
12146TIP3   OH257852   1.869   3.791   2.140 -0.0137  0.5384 -0.6660
12146TIP3    H157853   1.785   3.745   2.140  1.2409 -1.8336 -0.0534
12146TIP3    H257854   1.929   3.732   2.095  0.9638  2.9577 -2.6208
12147TIP3   OH257855   3.078   3.710   5.225  0.8691 -0.0598  0.2314
12147TIP3    H157856   3.064   3.617   5.212  2.8146 -0.5207  1.2494
12147TIP3    H257857   3.130   3.716   5.306 -0.6950  1.9944  1.1292
12148TIP3   OH257858   6.728   1.496  11.589  0.5903  0.2435  0.2817
12148TIP3    H157859   6.749   1.558  11.519  0.3693  0.6248  0.5496
12148TIP3    H257860   6.633   1.490  11.588  0.7512 -2.9987 -2.2316
12149TIP3   OH257861   3.770   4.828   5.297 -0.3289  0.1276 -0.6593
12149TIP3    H157862   3.757   4.751   5.241 -2.2607 -0.0233 -0.0475
12149TIP3    H257863   3.730   4.803   5.381  2.3358  0.4265  0.7402
12150TIP3   OH257864   1.362   3.898  15.667 -0.2343 -0.7179  0.5819
12150TIP3    H157865   1.283   3.845  15.679 -0.4563 -0.6812 -0.6708
12150TIP3    H257866   1.409   3.854  15.597  0.9982 -0.8853  1.5010
12151TIP3   OH257867   1.371   0.082  15.094  0.1528  0.0984  0.1422
12151TIP3    H157868   1.456   0.055  15.058  0.1384 -0.3435  0.4347
12151TIP3    H257869   1.345   0.157  15.040  0.7438  0.2583  0.0729
12152TIP3   OH257870   3.693   0.523  15.199 -0.1023 -0.4150 -0.1568
12152TIP3    H157871   3.641   0.460  15.149  1.0816 -2.3910  1.0347
12152TIP3    H257872   3.776   0.529  15.152 -0.3975  0.6880 -0.5582
12153TIP3   OH257873   6.780   4.283  13.365  0.0625  0.2944 -0.1940
12153TIP3    H157874   6.736   4.216  13.312 -2.8657  0.6461  1.6439
12153TIP3    H257875   6.815   4.345  13.302 -1.4039 -0.4700 -1.7941
12154TIP3   OH257876   5.665   6.591   2.263  0.6282  0.1077 -0.4785
12154TIP3    H157877   5.642   6.657   2.198 -2.1138  0.0324  0.3429
12154TIP3    H257878   5.683   6.512   2.212 -1.5596  0.0258 -1.1810
12155TIP3   OH257879   1.023   5.632   2.455 -0.2049  0.3107  0.1504
12155TIP3    H157880   0.990   5.544   2.436 -0.1457  0.6477 -1.5560
12155TIP3    H257881   1.118   5.622   2.453 -0.1977  0.3861  0.1311
12156TIP3   OH257882   5.792   0.688  14.127  0.6996  0.2414  0.2119
12156TIP3    H157883   5.800   0.779  14.098 -0.4735  0.7212  1.3494
12156TIP3    H257884   5.874   0.671  14.172  1.6057  0.2021 -1.3979
12157TIP3   OH257885   3.833   1.097   1.079 -0.5737 -0.7320 -0.4073
12157TIP3    H157886   3.870   1.009   1.067  0.1671 -0.6608  1.1920
12157TIP3    H257887   3.771   1.107   1.006  1.4431 -1.4373 -2.2847
12158TIP3   OH257888   5.588   2.699  13.949  0.3504  0.6871 -0.5305
12158TIP3    H157889   5.544   2.783  13.939  0.5200  0.7948 -0.3759
12158TIP3    H257890   5.675   2.713  13.912  0.2922  0.5062 -0.7366
12159TIP3   OH257891   0.507   0.417   4.868 -0.1921  0.1399 -0.4408
12159TIP3    H157892   0.440   0.412   4.800 -0.6712 -1.3868  0.1292
12159TIP3    H257893   0.458   0.440   4.948  0.0200 -0.5098 -0.1196
12160TIP3   OH257894   3.348   0.529   2.918  0.3414 -0.6398 -0.6600
12160TIP3    H157895   3.392   0.536   2.833  1.8611  0.8474  0.2414
12160TIP3    H257896   3.418   0.508   2.980 -0.6827 -1.2284  0.3182
12161TIP3   OH257897   3.455   0.176  17.019 -0.2134 -0.8964  0.8719
12161TIP3    H157898   3.512   0.105  16.988  1.1776  0.8225 -0.6211
12161TIP3    H257899   3.496   0.206  17.100  1.1048  0.4016 -0.2498
12162TIP3   OH257900   0.936   1.888   4.830  0.5668  0.3442  0.0385
12162TIP3    H157901   0.850   1.879   4.790  0.6015  0.7172 -0.1282
12162TIP3    H257902   0.931   1.838   4.911  0.3452 -0.0279 -0.2049
12163TIP3   OH257903   2.727   1.795  12.491 -0.0206 -0.4255 -0.9322
12163TIP3    H157904   2.695   1.799  12.402 -1.1094  1.1591 -0.4839
12163TIP3    H257905   2.665   1.739  12.537  0.9505 -1.8446 -1.3208
12164TIP3   OH257906   5.349   0.631   3.882 -0.1538  0.1652 -0.6843
12164TIP3    H157907   5.258   0.603   3.871 -0.3912  1.0068 -0.8262
12164TIP3    H257908   5.353   0.719   3.847  0.6261  0.3028 -0.2812
12165TIP3   OH257909   5.793   2.106  12.198  0.6197 -0.0091 -0.1931
12165TIP3    H157910   5.722   2.107  12.263 -0.7487 -1.7006 -1.6433
12165TIP3    H257911   5.787   2.021  12.156  2.6825  0.3470 -1.2838
12166TIP3   OH257912   5.616   3.241  15.035 -0.4640 -0.0957 -0.0534
12166TIP3    H157913   5.647   3.328  15.061 -1.1206 -0.0770  0.6763
12166TIP3    H257914   5.689   3.204  14.985 -0.2544  0.9481 -0.5426
12167TIP3   OH257915   5.747   5.534  14.686 -0.6237 -0.1498  0.1957
12167TIP3    H157916   5.659   5.562  14.661  0.4705  1.8385 -1.5385
12167TIP3    H257917   5.774   5.595  14.754  0.0230  0.2070 -0.3820
12168TIP3   OH257918   2.427   3.233   3.177  0.3671 -0.3022  0.8294
12168TIP3    H157919   2.406   3.176   3.250  0.4434 -1.0636  0.2622
12168TIP3    H257920   2.417   3.178   3.099 -1.6760  1.0101  0.1051
12169TIP3   OH257921   0.843   4.173   0.740  0.3401  0.0066  0.6508
12169TIP3    H157922   0.813   4.177   0.649 -3.1356  1.3496  1.7967
12169TIP3    H257923   0.861   4.081   0.755 -1.0624 -0.5264 -0.8050
12170TIP3   OH257924   1.423   5.223  14.125  0.3794  0.4020  0.5435
12170TIP3    H157925   1.458   5.135  14.136  0.2443  0.3760  0.7748
12170TIP3    H257926   1.500   5.280  14.125  0.4598  0.2936  0.4843
12171TIP3   OH257927   3.072   5.061  11.775 -0.6013 -0.5249  0.6424
12171TIP3    H157928   3.112   5.104  11.699  0.1554 -0.0995  1.2758
12171TIP3    H257929   3.087   4.968  11.760 -1.6243 -0.5411 -0.3857
12172TIP3   OH257930   0.647   6.768  13.856 -0.8879  0.0898 -0.4313
12172TIP3    H157931   0.668   6.854  13.891  1.5265 -0.2444 -0.9587
12172TIP3    H257932   0.732   6.727  13.840 -1.9838 -2.0050 -1.1457
12173TIP3   OH257933   5.596   3.048   2.890  0.0017 -0.0549  0.3837
12173TIP3    H157934   5.681   3.079   2.923  0.0293 -1.4842  1.7678
12173TIP3    H257935   5.584   2.963   2.934 -2.6198  0.6116  1.0093
12174TIP3   OH257936   0.477   4.844  15.191 -0.3587  0.1651  0.2730
12174TIP3    H157937   0.553   4.900  15.204  1.4306 -2.2250  0.3084
12174TIP3    H257938   0.478   4.824  15.097  0.7946 -2.2778  0.7903
12175TIP3   OH257939   5.910   4.886  14.020  0.7149  0.3289  0.2737
12175TIP3    H157940   5.900   4.956  13.956  0.2091  0.6453  0.6947
12175TIP3    H257941   5.838   4.826  14.002  0.3150  0.6417  0.8284
12176TIP3   OH257942   5.646   2.409  14.010 -0.0985 -0.1555 -0.7357
12176TIP3    H157943   5.583   2.478  13.990  0.8884  0.6117 -1.3045
12176TIP3    H257944   5.696   2.444  14.084 -0.2656 -0.7055 -0.3649
12177TIP3   OH257945   3.950   1.111  11.660 -0.5441 -0.1719 -0.5484
12177TIP3    H157946   3.950   1.197  11.618 -3.4813 -0.0677 -0.4136
12177TIP3    H257947   3.921   1.051  11.592 -0.0188 -0.8355 -0.1908
12178TIP3   OH257948   2.434   0.642   0.156  0.1891 -0.1058 -0.1393
12178TIP3    H157949   2.510   0.605   0.113 -0.1933  0.4442 -1.2921
12178TIP3    H257950   2.465   0.663   0.244  1.4487  0.3939 -0.6913
12179TIP3   OH257951   1.950   3.866  11.997  0.6068  0.7789 -0.3487
12179TIP3    H157952   1.965   3.821  11.914  2.7388 -0.6218  0.7509
12179TIP3    H257953   1.935   3.796  12.060 -0.9757  1.8263  0.4814
12180TIP3   OH257954   2.538   4.800   2.005  0.0643  0.3251 -0.2633
12180TIP3    H157955   2.476   4.793   2.077 -0.2632  2.0748 -0.3489
12180TIP3    H257956   2.532   4.716   1.960 -1.1728 -0.0593  0.5829
12181TIP3   OH257957   1.585   2.557  15.735 -1.1126 -0.3616  0.2431
12181TIP3    H157958   1.617   2.544  15.645 -0.2619 -0.0997  0.4955
12181TIP3    H257959   1.656   2.523  15.790 -0.2149  2.3125  0.8554
12182TIP3   OH257960   3.140   1.137  11.768 -0.0016 -0.2683  0.1055
12182TIP3    H157961   3.192   1.209  11.732 -0.2102  0.0464  0.4288
12182TIP3    H257962   3.197   1.061  11.764  0.6935  0.1997  1.0264
12183TIP3   OH257963   1.073   3.330   0.552  0.0151  0.0744 -0.5793
12183TIP3    H157964   1.076   3.241   0.519  0.9340  0.5651 -1.8668
12183TIP3    H257965   1.143   3.375   0.505  0.6755  1.0507  1.3025
12184TIP3   OH257966   3.961   3.084  15.296 -0.0794 -0.3016  0.3906
12184TIP3    H157967   4.010   3.004  15.276 -1.1230 -0.5226 -1.3957
12184TIP3    H257968   3.869   3.059  15.287 -0.3990  1.3889 -1.5122
12185TIP3   OH257969   4.039   2.562   0.604 -0.8089  0.1838  0.6811
12185TIP3    H157970   3.974   2.498   0.635  0.6774 -1.1878  1.0801
12185TIP3    H257971   4.098   2.511   0.548 -0.1934  1.4378  0.1720
12186TIP3   OH257972   2.521   3.220   1.514  0.3812  0.5946  0.0725
12186TIP3    H157973   2.609   3.207   1.548  0.0025 -1.7649  0.2439
12186TIP3    H257974   2.463   3.197   1.588 -0.3862 -0.3230 -0.7932
12187TIP3   OH257975   3.777   5.023  13.339  0.2734  0.2399 -0.1722
12187TIP3    H157976   3.723   4.975  13.276  0.7504  0.1904 -0.5545
12187TIP3    H257977   3.715   5.062  13.400 -0.1782  0.0071 -0.4827
12188TIP3   OH257978   0.493   3.080   4.357  0.0654  0.2972  0.1426
12188TIP3    H157979   0.582   3.112   4.342 -0.3228  1.0305 -0.5864
12188TIP3    H257980   0.480   3.089   4.452  0.3186  1.3589  0.0836
12189TIP3   OH257981   2.900   0.357   5.264 -0.2751 -0.0872  0.5096
12189TIP3    H157982   2.853   0.365   5.347 -1.4150  2.8314 -0.3630
12189TIP3    H257983   2.833   0.369   5.197  1.2414  1.2972 -0.7909
12190TIP3   OH257984   0.264   6.671  11.627 -0.1731 -0.2597  0.0239
12190TIP3    H157985   0.278   6.576  11.625 -1.0538 -0.4076  0.7954
12190TIP3    H257986   0.215   6.687  11.708 -1.4726  0.6673 -0.9352
12191TIP3   OH257987   0.101   1.697  14.657 -0.6884 -0.2868 -0.0594
12191TIP3    H157988   0.019   1.650  14.674 -1.4374  0.7205 -0.8755
12191TIP3    H257989   0.111   1.695  14.562  1.2571 -2.0935  0.1350
12192TIP3   OH257990   3.280   4.835   4.425 -0.6032 -0.3698 -0.4372
12192TIP3    H157991   3.259   4.902   4.359 -0.6303 -1.1354 -1.2222
12192TIP3    H257992   3.220   4.763   4.405 -1.3149 -0.2126  1.0773
12193TIP3   OH257993   1.662   5.903   3.571  0.3120  0.5129  0.0369
12193TIP3    H157994   1.665   5.995   3.542  0.1324  0.0972 -1.3374
12193TIP3    H257995   1.571   5.877   3.556  0.0674  0.4551  1.5549
12194TIP3   OH257996   4.269   0.016   4.749  0.8923  0.3414  0.3442
12194TIP3    H157997   4.291  -0.071   4.781 -0.5317 -0.5053 -0.8967
12194TIP3    H257998   4.336   0.035   4.683  0.8081 -0.1092  0.1269
12195TIP3   OH257999   6.713   1.852   2.846 -0.5075  0.1125 -0.5568
12195TIP3    H158000   6.728   1.839   2.939  0.7865 -0.6473 -0.8521
12195TIP3    H258001   6.728   1.946   2.832  1.2243 -0.1137 -0.3247
12196TIP3   OH258002   3.389   2.404   0.223 -0.0278 -0.1231 -0.5262
12196TIP3    H158003   3.338   2.327   0.246  0.6841 -0.8447 -1.3415
12196TIP3    H258004   3.435   2.428   0.303  0.7744 -1.3329 -0.6150
12197TIP3   OH258005   1.278   2.718   1.136  0.2700  0.5512 -0.6334
12197TIP3    H158006   1.369   2.704   1.162  0.1859  0.2325 -0.5078
12197TIP3    H258007   1.245   2.783   1.198 -0.7571 -2.2742  1.9132
12198TIP3   OH258008   6.288   6.073   3.157 -0.0465  0.4072  0.4742
12198TIP3    H158009   6.340   6.064   3.237  0.4389  0.8112  0.1999
12198TIP3    H258010   6.205   6.031   3.179 -0.2492  1.3114  1.5048
12199TIP3   OH258011   2.454   1.610   5.940 -0.0507 -0.4789 -0.3964
12199TIP3    H158012   2.467   1.694   5.985 -0.1373  0.1648 -1.5630
12199TIP3    H258013   2.512   1.549   5.986 -0.0520  0.2009  0.5111
12200TIP3   OH258014   1.385   5.082   4.984  0.5926  0.1844 -0.6446
12200TIP3    H158015   1.341   5.120   4.907 -2.7567 -1.7301  0.2319
12200TIP3    H258016   1.327   5.104   5.057  0.4636 -3.3834  0.4077
12201TIP3   OH258017   1.285   2.627  11.473 -0.0263  0.5484 -0.5264
12201TIP3    H158018   1.353   2.575  11.515 -0.0910  0.3044 -0.7256
12201TIP3    H258019   1.206   2.573  11.480 -0.5221  1.4227  0.9602
12202TIP3   OH258020   1.637   5.298  15.302  0.1590 -0.2039 -0.4454
12202TIP3    H158021   1.610   5.352  15.376  1.9112 -1.4144  1.1249
12202TIP3    H258022   1.721   5.261  15.329  0.2182 -1.6777 -2.5441
12203TIP3   OH258023   2.684   4.933  14.511  0.1656  0.0841 -0.4915
12203TIP3    H158024   2.664   4.931  14.418 -1.8076  2.2260 -0.1605
12203TIP3    H258025   2.624   4.870  14.550 -0.9996  1.2905 -0.3342
12204TIP3   OH258026   2.723   4.907   1.019  0.2461 -0.2169 -0.2492
12204TIP3    H158027   2.717   4.987   0.967  0.0344  0.5416  0.9100
12204TIP3    H258028   2.756   4.936   1.104  0.9072 -1.4782 -0.0600
12205TIP3   OH258029   5.772   6.121  13.222  0.1184 -0.3558 -0.3387
12205TIP3    H158030   5.798   6.213  13.226 -2.1174  0.3915 -2.0396
12205TIP3    H258031   5.828   6.084  13.154  0.8924 -0.2435  0.2197
12206TIP3   OH258032   5.676   5.857   2.313 -0.3180  0.1550 -0.1313
12206TIP3    H158033   5.685   5.950   2.291 -2.2076  0.4563  0.2775
12206TIP3    H258034   5.589   5.833   2.280  0.9851 -2.0155 -2.1173
12207TIP3   OH258035   2.110   5.276   5.363  0.2587 -0.4644 -0.2216
12207TIP3    H158036   2.074   5.239   5.443 -1.7303  1.2130 -0.3058
12207TIP3    H258037   2.202   5.294   5.384  0.3110 -2.0347  0.9610
12208TIP3   OH258038   3.323   3.577  13.092 -0.1257  0.0247 -0.4047
12208TIP3    H158039   3.308   3.487  13.121  2.0817  0.0285  0.8811
12208TIP3    H258040   3.289   3.632  13.162  2.5132  0.0854  0.8762
12209TIP3   OH258041   2.280   4.730   0.148  0.2178  0.1284 -0.4707
12209TIP3    H158042   2.301   4.779   0.227 -0.8676 -0.1674  0.0095
12209TIP3    H258043   2.187   4.747   0.133  0.0183 -1.1575 -0.7444
12210TIP3   OH258044   1.195   3.394   1.041 -0.8332  0.3813 -0.0277
12210TIP3    H158045   1.145   3.413   0.962 -1.6922  1.4852  0.7571
12210TIP3    H258046   1.130   3.387   1.110 -0.2802 -2.7577  0.2305
12211TIP3   OH258047   2.747   1.250  12.851  0.0523 -0.8859 -0.3875
12211TIP3    H158048   2.780   1.285  12.768  0.1967  0.6335  0.3043
12211TIP3    H258049   2.659   1.286  12.859  1.4344  2.1126  1.9627
12212TIP3   OH258050   3.552   6.720  13.413 -0.3212 -0.2226  0.4385
12212TIP3    H158051   3.474   6.665  13.405  1.1600 -2.1585 -1.3418
12212TIP3    H258052   3.624   6.659  13.429  1.0162  1.4304  0.9588
12213TIP3   OH258053   5.036   4.122   3.870  0.1864 -0.8485  0.3870
12213TIP3    H158054   4.949   4.091   3.843  0.1715 -0.3752 -0.1166
12213TIP3    H258055   5.093   4.045   3.860  0.3020 -0.5253 -1.6098
12214TIP3   OH258056   4.503   1.120   1.638  0.1041  0.1556  0.3237
12214TIP3    H158057   4.521   1.084   1.551  2.8649  2.5339 -0.1717
12214TIP3    H258058   4.567   1.078   1.695  0.6658  1.2486  0.5071
12215TIP3   OH258059   4.609   3.212   3.052  0.4776  0.1254  0.7996
12215TIP3    H158060   4.570   3.196   3.138  0.2587  1.0788  0.8789
12215TIP3    H258061   4.693   3.166   3.055 -0.0148 -0.7834  1.1193
12216TIP3   OH258062   2.971   5.135  12.917 -0.3707 -0.4417  0.5971
12216TIP3    H158063   3.053   5.113  12.962  1.0250 -2.5767 -2.7387
12216TIP3    H258064   2.905   5.079  12.958  0.0372  0.4512  2.5342
12217TIP3   OH258065   4.538   0.270   3.175 -0.2307  0.4255 -0.2615
12217TIP3    H158066   4.551   0.357   3.137 -1.4161  0.3248 -0.9416
12217TIP3    H258067   4.460   0.236   3.130  0.7024 -1.3240 -0.6063
12218TIP3   OH258068   1.777   2.035   4.765  0.6729 -0.4006 -0.0757
12218TIP3    H158069   1.692   1.990   4.764  0.0214  0.8289 -0.6763
12218TIP3    H258070   1.832   1.982   4.707 -0.5283  0.4048 -1.9865
12219TIP3   OH258071   0.923   0.764  15.354 -0.6668 -0.0285 -0.0900
12219TIP3    H158072   0.832   0.785  15.331  0.1881  3.5836 -0.5185
12219TIP3    H258073   0.927   0.778  15.448 -0.3492  0.7336 -0.2126
12220TIP3   OH258074   1.160   1.893  17.185  0.1451 -0.3785 -0.1482
12220TIP3    H158075   1.091   1.910  17.250 -2.0797 -1.3341 -2.2033
12220TIP3    H258076   1.217   1.829  17.228 -0.4304  0.1411  1.4447
12221TIP3   OH258077   2.202   1.779   2.632 -0.1664  0.1364  0.7248
12221TIP3    H158078   2.172   1.700   2.677  0.2233  0.2011  1.1021
12221TIP3    H258079   2.289   1.756   2.600 -0.6886 -0.1217 -0.5428
12222TIP3   OH258080   6.151   3.168  14.358 -0.0419  0.3891  0.4752
12222TIP3    H158081   6.195   3.099  14.408  0.5539  0.5889  0.2238
12222TIP3    H258082   6.167   3.145  14.266 -0.8608  0.2035  0.3697
12223TIP3   OH258083   2.095   2.129  11.492  0.5298  0.2079  0.2042
12223TIP3    H158084   2.037   2.054  11.506  0.4013  0.3223  0.2853
12223TIP3    H258085   2.079   2.155  11.402  0.4740  0.2234  0.2183
12224TIP3   OH258086   2.195   4.180  11.640 -0.1467  0.3995  0.0703
12224TIP3    H158087   2.270   4.215  11.687 -0.6296  0.2209  0.9948
12224TIP3    H258088   2.137   4.255  11.626 -0.0073  0.4516 -0.2239
12225TIP3   OH258089   6.352   4.896  14.894  0.4176 -0.3244  0.3032
12225TIP3    H158090   6.342   4.982  14.854 -3.0924 -0.9285 -0.2521
12225TIP3    H258091   6.418   4.852  14.840  2.1001  1.8752  0.4792
12226TIP3   OH258092   4.515   0.600  13.900 -0.2665  0.5986  0.0050
12226TIP3    H158093   4.449   0.648  13.850 -1.3092  0.1501  0.9211
12226TIP3    H258094   4.553   0.666  13.958 -0.3598  0.7218 -0.0728
12227TIP3   OH258095   1.949   3.207  16.946  0.5198  0.3014  0.7605
12227TIP3    H158096   1.944   3.265  17.022  1.3788  0.2380  0.8684
12227TIP3    H258097   1.999   3.132  16.977  1.8628  0.7918 -0.1976
12228TIP3   OH258098   5.043   1.434   1.905  0.1253  0.0617  0.9030
12228TIP3    H158099   4.968   1.428   1.845  0.5661 -1.8073  0.5160
12228TIP3    H258100   5.112   1.475   1.852 -0.3821  1.0948  1.0310
12229TIP3   OH258101   0.902   1.539  15.811 -0.4921  0.3661 -0.0591
12229TIP3    H158102   0.878   1.613  15.866  1.4015  0.1559  1.1247
12229TIP3    H258103   0.939   1.475  15.873  0.7385 -0.2892 -1.4416
12230TIP3   OH258104   5.581   0.895   0.750  0.2517 -0.3565  0.4539
12230TIP3    H158105   5.677   0.888   0.749  0.3677  1.1239 -0.4271
12230TIP3    H258106   5.561   0.944   0.829  0.4408  1.8750 -0.8439
12231TIP3   OH258107   2.115   1.873   2.900 -0.3660 -0.2400  0.2029
12231TIP3    H158108   2.089   1.965   2.898 -0.0818 -0.1768 -0.5274
12231TIP3    H258109   2.125   1.848   2.808 -1.0291 -1.1714  0.3793
12232TIP3   OH258110   3.256   4.668  12.689 -0.2255  0.8141  0.1865
12232TIP3    H158111   3.182   4.617  12.722  0.5802  0.3575  1.3351
12232TIP3    H258112   3.325   4.603  12.675  0.9243  1.6013  1.9945
12233TIP3   OH258113   5.440   0.431   2.570 -0.7109 -0.3223 -0.0554
12233TIP3    H158114   5.378   0.359   2.561  0.6756 -1.4742 -0.4777
12233TIP3    H258115   5.482   0.438   2.485 -1.6871  1.8228 -0.4117
12234TIP3   OH258116   4.559   5.679   1.156 -0.0653 -0.6745  0.3628
12234TIP3    H158117   4.570   5.660   1.063 -1.8121  2.9625 -0.6895
12234TIP3    H258118   4.464   5.690   1.166  0.3215  1.1530  2.1163
12235TIP3   OH258119   5.202   0.920  16.622  0.3120  0.2313  0.1915
12235TIP3    H158120   5.222   1.014  16.627 -1.3912  0.6699 -0.9284
12235TIP3    H258121   5.233   0.893  16.536 -2.2635  0.5387 -0.8620
12236TIP3   OH258122   6.071   0.382  13.147 -0.1212  0.0805  0.2660
12236TIP3    H158123   5.988   0.404  13.105  0.0095  1.6489  0.7799
12236TIP3    H258124   6.067   0.426  13.232  1.6449  1.0072 -0.1144
12237TIP3   OH258125   2.731   2.757   2.859 -0.1936  0.0405  0.1880
12237TIP3    H158126   2.708   2.839   2.815  0.1281  0.0546  0.0407
12237TIP3    H258127   2.668   2.693   2.826  0.8686 -0.2665 -1.3432
12238TIP3   OH258128   3.522   5.557  12.434  0.2584  0.4180 -0.1602
12238TIP3    H158129   3.553   5.565  12.344  0.3423 -0.0015 -0.1711
12238TIP3    H258130   3.574   5.620  12.484  1.0560 -0.2012 -0.1982
12239TIP3   OH258131   6.538   4.725   4.663  0.0222 -0.3383 -0.2734
12239TIP3    H158132   6.523   4.721   4.758 -0.8784  1.1504 -0.3393
12239TIP3    H258133   6.633   4.732   4.655  0.0625  0.1984  0.5526
12240TIP3   OH258134   5.253   1.054  11.714  0.1833 -0.2191  0.4364
12240TIP3    H158135   5.170   1.035  11.757 -1.2633 -0.3782 -2.3147
12240TIP3    H258136   5.259   1.149  11.712 -2.0585 -0.0607 -3.0962
12241TIP3   OH258137   6.270   3.117  14.730 -0.2506 -0.1778 -0.3068
12241TIP3    H158138   6.196   3.066  14.695  1.7557 -2.1099 -1.8926
12241TIP3    H258139   6.284   3.081  14.817  0.3298 -1.5196 -0.9293
12242TIP3   OH258140   5.213   5.176  15.906 -0.5465 -0.2086 -0.0582
12242TIP3    H158141   5.251   5.255  15.945  0.6316 -1.2208  0.9405
12242TIP3    H258142   5.121   5.179  15.930 -0.6974  1.2875 -0.7746
12243TIP3   OH258143   5.152   2.346  12.324  0.4980  0.1971  0.4913
12243TIP3    H158144   5.190   2.386  12.403 -0.3914 -0.5089  1.2851
12243TIP3    H258145   5.228   2.314  12.275  1.0365  0.2521  1.2685
12244TIP3   OH258146   4.523   3.202   4.520 -0.4935  0.4093 -0.2252
12244TIP3    H158147   4.522   3.270   4.588 -1.6221 -0.1896  0.3624
12244TIP3    H258148   4.616   3.186   4.505 -0.1876  2.6705 -0.9585
12245TIP3   OH258149   4.361   4.861   0.029  0.7898 -0.2285  0.4390
12245TIP3    H158150   4.338   4.954   0.035  1.0596 -0.1150 -0.2439
12245TIP3    H258151   4.313   4.820   0.101  1.0660  0.5154  1.0598
12246TIP3   OH258152   3.478   3.043  11.120  0.1059  0.0657 -0.8844
12246TIP3    H158153   3.496   2.985  11.194  0.1156  2.1477  0.7901
12246TIP3    H258154   3.564   3.082  11.099 -0.5718  2.4999  0.6554
12247TIP3   OH258155   3.647   0.018   4.864  0.4502  0.1920 -0.7533
12247TIP3    H158156   3.569   0.071   4.879  0.5890  0.3278 -0.5084
12247TIP3    H258157   3.636  -0.057   4.924  1.1056  0.8403  0.1795
12248TIP3   OH258158   0.243   3.140   1.400  0.3195  0.0067  0.2290
12248TIP3    H158159   0.335   3.149   1.427  0.2136 -0.5518  0.7884
12248TIP3    H258160   0.195   3.125   1.482 -0.2360  0.0590 -0.0873
12249TIP3   OH258161   5.787   4.302   2.699  0.0329 -0.3034 -0.0231
12249TIP3    H158162   5.848   4.255   2.643 -0.4534 -0.1249 -0.6978
12249TIP3    H258163   5.740   4.233   2.745  1.2865 -0.4423  1.1094
12250TIP3   OH258164   3.418   3.269  13.970 -0.3337 -0.7785 -0.2590
12250TIP3    H158165   3.456   3.181  13.975 -0.9883 -1.0269  0.4056
12250TIP3    H258166   3.371   3.280  14.052 -2.3130 -0.7515 -1.3443
12251TIP3   OH258167   6.279   6.501   0.542 -0.3479  0.1775 -0.3544
12251TIP3    H158168   6.312   6.576   0.592 -2.0133  0.8127 -0.1753
12251TIP3    H258169   6.350   6.479   0.482  0.5188  1.3061  0.2331
12252TIP3   OH258170   0.340   3.664   1.326  0.0030  0.7034  0.7446
12252TIP3    H158171   0.378   3.616   1.399  0.1688 -0.4340 -0.0722
12252TIP3    H258172   0.360   3.756   1.344 -0.6688  0.5130  2.5351
12253TIP3   OH258173   1.506   5.228  16.013  0.4934  0.0658 -0.1400
12253TIP3    H158174   1.581   5.275  16.051  0.9819 -1.3702  0.7295
12253TIP3    H258175   1.535   5.203  15.925  0.1121  1.6609 -0.7221
12254TIP3   OH258176   2.533   0.490  13.016 -0.0421 -0.2317 -0.4650
12254TIP3    H158177   2.590   0.540  12.959  0.5613 -1.3887 -0.8791
12254TIP3    H258178   2.583   0.411  13.039 -1.1789 -0.9184 -0.2694
12255TIP3   OH258179   6.517   5.550  11.371 -0.6141 -0.0477 -0.0344
12255TIP3    H158180   6.498   5.592  11.455 -0.0318  1.2283 -0.5442
12255TIP3    H258181   6.499   5.457  11.387 -0.6695  0.2065  1.4552
12256TIP3   OH258182   5.269   3.017   0.097 -0.2606 -0.1494  0.1096
12256TIP3    H158183   5.173   3.024   0.097 -0.2747 -0.3652  0.4749
12256TIP3    H258184   5.287   2.923   0.093 -0.0707 -0.2341  2.2911
12257TIP3   OH258185   5.481   1.625   4.739  0.0244  1.0251 -0.2721
12257TIP3    H158186   5.539   1.630   4.815 -0.4626 -0.4792  0.2293
12257TIP3    H258187   5.537   1.594   4.668 -0.2695 -1.0063  0.3562
12258TIP3   OH258188   3.546   3.088   2.457  0.3969  0.2540 -0.5737
12258TIP3    H158189   3.538   3.077   2.363  2.9392  2.4036 -1.1015
12258TIP3    H258190   3.637   3.112   2.471 -0.2875  1.4095  2.2942
12259TIP3   OH258191   5.082   4.324  12.650  0.0555 -0.0317 -0.0809
12259TIP3    H158192   5.050   4.355  12.565 -0.1639 -0.9347 -0.3320
12259TIP3    H258193   5.163   4.372  12.664 -1.7189  2.8141  0.8709
12260TIP3   OH258194   4.653   2.874  14.890 -0.2081 -0.8382 -0.0735
12260TIP3    H158195   4.644   2.943  14.824  1.7804 -2.1302 -1.7475
12260TIP3    H258196   4.604   2.800  14.853 -0.9953 -0.8506  0.9782
12261TIP3   OH258197   2.944   2.240   0.810 -0.4726 -0.1326  0.6099
12261TIP3    H158198   2.959   2.330   0.784 -0.4245 -0.1379  0.6215
12261TIP3    H258199   3.000   2.226   0.887 -1.0010  0.0416  1.0329
12262TIP3   OH258200   3.623   2.448  11.086 -0.5356 -0.0714  0.5329
12262TIP3    H158201   3.559   2.513  11.115  1.9009  3.2162 -1.2707
12262TIP3    H258202   3.707   2.479  11.120  0.5249 -2.9316  0.6645
12263TIP3   OH258203   5.729   0.198   1.731 -0.2062 -0.6425  0.6716
12263TIP3    H158204   5.711   0.291   1.744 -0.0173 -0.6112  0.7121
12263TIP3    H258205   5.687   0.155   1.806 -1.0260 -0.6722  0.1973
12264TIP3   OH258206   1.432   2.410  11.050 -0.0811  0.4678 -0.0434
12264TIP3    H158207   1.361   2.432  10.989 -1.2861 -0.4191  1.0306
12264TIP3    H258208   1.466   2.327  11.017  0.1718  0.6687 -0.2945
12265TIP3   OH258209   2.869   5.065  16.811  0.8161 -0.5135  0.4487
12265TIP3    H158210   2.940   5.090  16.869 -0.0083  1.8749  0.5059
12265TIP3    H258211   2.840   4.979  16.842  1.3143  0.1053  2.6704
12266TIP3   OH258212   0.476   6.123   3.174 -0.2026  0.3521  0.2244
12266TIP3    H158213   0.399   6.095   3.222 -0.0737  2.3239  1.6616
12266TIP3    H258214   0.476   6.218   3.181  1.2331  0.5214 -1.5204
12267TIP3   OH258215   5.878   6.401   4.574 -0.0700 -0.4569  0.2679
12267TIP3    H158216   5.877   6.496   4.586  1.9789 -0.3678 -0.0427
12267TIP3    H258217   5.885   6.389   4.479 -0.6145 -0.9353  0.2825
12268TIP3   OH258218   1.567   0.647   2.913  0.3593 -0.1857  0.1253
12268TIP3    H158219   1.560   0.559   2.950 -1.1307  0.6439  1.8438
12268TIP3    H258220   1.487   0.692   2.940  1.1797  1.7742 -0.5765
12269TIP3   OH258221   0.666   2.335  12.186 -0.2090  0.1905  0.2671
12269TIP3    H158222   0.601   2.286  12.137 -2.0659  2.9471 -0.1524
12269TIP3    H258223   0.653   2.426  12.158  0.8491  1.3825  3.4580
12270TIP3   OH258224   3.562   2.697   2.482 -1.0292 -0.7519  0.7778
12270TIP3    H158225   3.520   2.747   2.553  0.0802 -0.3384  1.1469
12270TIP3    H258226   3.489   2.655   2.436 -1.8998  0.4793  1.0221
12271TIP3   OH258227   5.705   3.440   6.555  0.4767 -0.2285 -0.2994
12271TIP3    H158228   5.677   3.350   6.534  1.1709 -0.2742 -1.0557
12271TIP3    H258229   5.788   3.428   6.601 -1.1978 -0.1486  2.8655
12272TIP3   OH258230   0.292   3.610  15.003  0.6966 -0.4495  0.3448
12272TIP3    H158231   0.255   3.533  15.048 -2.0519  0.6148 -0.0268
12272TIP3    H258232   0.334   3.660  15.073 -0.0404 -0.8316  1.0664
12273TIP3   OH258233   3.794   1.781  14.096  0.7393 -0.4675 -0.3538
12273TIP3    H158234   3.713   1.763  14.048  0.3843 -0.4868  0.2501
12273TIP3    H258235   3.854   1.815  14.030  0.8302 -2.1574 -1.1776
12274TIP3   OH258236   0.336   2.281   0.344  0.4595  0.2801  0.8418
12274TIP3    H158237   0.250   2.311   0.314  0.8090  0.6749  0.2112
12274TIP3    H258238   0.385   2.362   0.357  1.3988 -0.0035 -0.8138
12275TIP3   OH258239   6.203   6.743   0.294 -0.2357 -0.0277  0.0723
12275TIP3    H158240   6.114   6.727   0.326 -0.5047  0.2906 -0.5163
12275TIP3    H258241   6.249   6.661   0.311 -0.9573 -0.5995 -0.6831
12276TIP3   OH258242   1.478   4.113   5.628 -0.3700  0.8027  0.1324
12276TIP3    H158243   1.417   4.186   5.621 -1.4100 -0.1318 -0.6254
12276TIP3    H258244   1.446   4.061   5.702 -0.9739 -0.1190 -0.7651
12277TIP3   OH258245   0.696   0.154   4.147 -0.1832  0.4019  0.5815
12277TIP3    H158246   0.644   0.074   4.154 -0.5565  0.2499 -3.1083
12277TIP3    H258247   0.661   0.211   4.216 -2.7253 -1.0750  0.5886
12278TIP3   OH258248   4.440   3.174   0.673  0.2928 -0.1610  0.3251
12278TIP3    H158249   4.414   3.084   0.692 -0.9244  0.2786  0.8495
12278TIP3    H258250   4.525   3.167   0.632  1.6983 -1.3542  3.2875
12279TIP3   OH258251   2.425   3.329  13.900 -0.2171 -0.1218 -0.3309
12279TIP3    H158252   2.389   3.372  13.822  0.8900 -0.2120 -0.8938
12279TIP3    H258253   2.497   3.386  13.927  2.1378 -2.3063 -1.8582
12280TIP3   OH258254   5.292   2.172   4.468 -0.5624  0.6107 -0.0487
12280TIP3    H158255   5.231   2.167   4.542 -1.0212 -3.0663 -0.5473
12280TIP3    H258256   5.372   2.132   4.500 -1.0296 -1.7651 -1.7061
12281TIP3   OH258257   1.287   3.698   4.680  0.3653  0.0999  0.4559
12281TIP3    H158258   1.263   3.669   4.592 -1.3697 -0.1091  0.9853
12281TIP3    H258259   1.246   3.784   4.689  1.4315  0.5919  0.6815
12282TIP3   OH258260   5.657   1.610  13.936 -0.5822  0.1292 -0.0538
12282TIP3    H158261   5.592   1.605  14.005 -0.4793 -0.1464  0.0260
12282TIP3    H258262   5.739   1.584  13.978 -0.6142 -0.5486 -0.3973
12283TIP3   OH258263   6.640   2.378  16.740  0.1294  0.0382  0.1970
12283TIP3    H158264   6.646   2.444  16.809  0.1151 -0.5041  0.7248
12283TIP3    H258265   6.551   2.388  16.706  0.3576  0.7531 -0.1959
12284TIP3   OH258266   1.671   4.598  15.014  0.6711  0.1138  0.1985
12284TIP3    H158267   1.624   4.627  15.092 -0.1464 -0.1023 -0.2056
12284TIP3    H258268   1.653   4.504  15.009 -0.9564  0.4684 -1.3609
12285TIP3   OH258269   0.068   1.483   0.260 -0.5531  1.0472  0.4668
12285TIP3    H158270   0.137   1.458   0.199 -1.8760  1.7981 -1.3797
12285TIP3    H258271   0.113   1.495   0.344  1.2071 -0.5334 -0.2155
12286TIP3   OH258272   6.459   5.878   1.242 -0.0634 -0.0604  0.1894
12286TIP3    H158273   6.447   5.926   1.324  0.7959  1.0983 -0.3557
12286TIP3    H258274   6.372   5.874   1.204  0.0236  2.1121 -0.3216
12287TIP3   OH258275   2.315   4.648  14.683  0.7952 -0.1513 -0.8840
12287TIP3    H158276   2.222   4.635  14.665  0.1127  0.6396  1.8037
12287TIP3    H258277   2.333   4.737  14.652  0.3060  0.2052 -0.1539
12288TIP3   OH258278   4.909   2.618  16.635 -0.1356 -0.3572  0.4838
12288TIP3    H158279   4.867   2.554  16.578  0.8998  1.8589 -2.9877
12288TIP3    H258280   4.857   2.698  16.624  0.5589  0.3421  2.0815
12289TIP3   OH258281   2.150   2.747   1.641  0.2755  0.1406 -0.4123
12289TIP3    H158282   2.072   2.693   1.653  0.2642  0.2291 -0.0807
12289TIP3    H258283   2.220   2.697   1.684  0.5679 -0.3301 -1.4089
12290TIP3   OH258284   3.329   5.344   2.339 -0.0491 -0.3180  0.0650
12290TIP3    H158285   3.288   5.369   2.256  0.4593  0.1113 -0.0597
12290TIP3    H258286   3.264   5.365   2.406 -0.4394 -0.6153 -0.2148
12291TIP3   OH258287   4.725   1.203   0.073  0.2829 -0.2719 -0.3771
12291TIP3    H158288   4.800   1.256   0.046 -0.0230 -0.9147 -2.5865
12291TIP3    H258289   4.761   1.142   0.137  0.8602  1.8500  1.3802
12292TIP3   OH258290   4.644   0.752  11.083 -0.6968  0.7136 -0.0496
12292TIP3    H158291   4.559   0.720  11.115  0.0884 -0.4603  0.9114
12292TIP3    H258292   4.696   0.673  11.071  0.1242  1.4040 -1.0607
12293TIP3   OH258293   5.578   3.826   0.830 -0.4407  0.1833 -0.2812
12293TIP3    H158294   5.518   3.842   0.903  1.1602  1.2007  0.8383
12293TIP3    H258295   5.644   3.767   0.867 -0.3048 -0.2816 -1.2691
12294TIP3   OH258296   3.564   4.650   2.732 -0.0177  0.0884 -0.4457
12294TIP3    H158297   3.599   4.563   2.752 -0.7839 -0.2215 -0.4309
12294TIP3    H258298   3.641   4.706   2.727  0.4945 -0.6166 -0.5735
12295TIP3   OH258299   3.657   0.143  16.006  0.1353  0.7075 -0.5400
12295TIP3    H158300   3.595   0.072  16.021  0.3839  0.5165 -0.4154
12295TIP3    H258301   3.603   0.222  16.005  0.0194  0.6390  0.5434
12296TIP3   OH258302   3.372   0.169   6.352  0.1289 -0.2412  0.0182
12296TIP3    H158303   3.433   0.162   6.425  0.5804  0.0666 -0.3271
12296TIP3    H258304   3.294   0.122   6.381  1.3979 -2.7116 -0.4744
12297TIP3   OH258305   2.634   5.008   4.753  0.1304 -0.2285 -0.2788
12297TIP3    H158306   2.683   4.927   4.736 -0.3606 -0.0559 -2.8542
12297TIP3    H258307   2.575   4.986   4.825  1.2019 -1.6562  0.1759
12298TIP3   OH258308   2.741   5.626   1.150  0.0652 -0.2883 -0.1885
12298TIP3    H158309   2.653   5.645   1.117  0.2514 -0.2853 -0.6943
12298TIP3    H258310   2.794   5.615   1.071  0.3502 -1.0949  0.1073
12299TIP3   OH258311   4.440   2.308  10.965 -0.0158  0.1882  0.4955
12299TIP3    H158312   4.350   2.300  10.995 -0.7941 -0.2580 -1.8041
12299TIP3    H258313   4.448   2.399  10.936 -0.5582 -0.4330 -1.7064
12300TIP3   OH258314   5.791   0.351  10.310  0.0375  0.2789  0.7115
12300TIP3    H158315   5.834   0.430  10.341 -1.2600  0.6643  1.5752
12300TIP3    H258316   5.800   0.289  10.383 -0.1893  0.1050  0.5941
12301TIP3   OH258317   1.367   2.979   3.206 -0.5523 -0.3825 -0.2235
12301TIP3    H158318   1.406   3.042   3.145  0.2558  0.3516  1.0176
12301TIP3    H258319   1.382   2.893   3.165  0.9538  0.0111 -0.5538
12302TIP3   OH258320   3.275   6.589  11.753 -0.0749 -0.5518  0.2444
12302TIP3    H158321   3.360   6.543  11.758 -0.4961 -1.3853 -0.1086
12302TIP3    H258322   3.211   6.523  11.780 -0.7698 -0.4045 -1.0029
12303TIP3   OH258323   2.869   5.738   5.557 -0.3132 -0.8071 -0.1646
12303TIP3    H158324   2.826   5.715   5.474 -1.0405 -2.0612  0.5472
12303TIP3    H258325   2.798   5.740   5.621  0.5087 -1.7089  0.7934
12304TIP3   OH258326   3.746   4.105   5.389 -0.5886 -0.1877 -0.1346
12304TIP3    H158327   3.761   4.118   5.296  1.0473 -0.4672  0.0779
12304TIP3    H258328   3.668   4.050   5.394 -0.6465 -0.2163 -1.3314
12305TIP3   OH258329   0.360   4.980  16.921 -0.6677 -0.2028  0.0926
12305TIP3    H158330   0.406   4.995  16.838 -0.8432 -2.3335 -0.4336
12305TIP3    H258331   0.270   5.006  16.904 -0.6514 -0.4085 -0.3224
12306TIP3   OH258332   1.457   5.977  17.074  0.1989  0.1421 -0.3787
12306TIP3    H158333   1.483   6.016  16.990  2.9869  1.1735  0.8714
12306TIP3    H258334   1.415   5.895  17.051  2.5117 -0.4401 -2.7613
12307TIP3   OH258335   4.613   5.184  15.811 -0.5805 -0.0347 -0.4335
12307TIP3    H158336   4.651   5.096  15.813 -1.6975 -0.5047  0.3586
12307TIP3    H258337   4.519   5.170  15.825 -0.9014  1.2031 -1.2559
12308TIP3   OH258338   0.762   5.898  14.006  0.5433 -0.2227 -0.1467
12308TIP3    H158339   0.786   5.876  13.916 -0.4439 -2.2535  0.0543
12308TIP3    H258340   0.672   5.930  14.001  1.0097  1.1617 -0.0556
12309TIP3   OH258341   3.907   2.358  14.692  0.0611  0.0609 -0.0485
12309TIP3    H158342   3.888   2.347  14.785 -2.4411 -0.0325 -0.5346
12309TIP3    H258343   3.880   2.275  14.652  2.0807 -0.2983 -0.7529
12310TIP3   OH258344   6.355   2.867   4.246  0.1651  0.2574  0.0767
12310TIP3    H158345   6.434   2.920   4.252  0.7160 -0.3606 -1.6193
12310TIP3    H258346   6.370   2.808   4.172 -1.2816 -0.8616  0.6488
12311TIP3   OH258347   6.651   3.533  12.431  0.0724 -0.1553 -0.5102
12311TIP3    H158348   6.732   3.483  12.429 -2.3072 -4.3142  1.5110
12311TIP3    H258349   6.629   3.547  12.339  2.8068  0.6679 -1.0687
12312TIP3   OH258350   4.116   4.924  16.615 -0.2644 -0.1239 -0.3113
12312TIP3    H158351   4.099   4.832  16.632 -1.1493  0.3031  1.1784
12312TIP3    H258352   4.056   4.948  16.544 -0.4971 -0.5274 -0.2491
12313TIP3   OH258353   1.391   1.006   3.183  0.0224  0.7609  0.3035
12313TIP3    H158354   1.486   1.018   3.181  0.2082 -0.4246  1.2788
12313TIP3    H258355   1.359   1.050   3.104  1.4496  0.6241 -0.3594
12314TIP3   OH258356   2.499   2.417   3.060  1.1075 -0.6145  0.2581
12314TIP3    H158357   2.430   2.428   2.995  0.4924 -2.1353  0.6302
12314TIP3    H258358   2.478   2.482   3.128  0.2934 -0.7594  0.1518
12315TIP3   OH258359   5.333   0.419  14.911  0.3279  0.3699  0.1387
12315TIP3    H158360   5.282   0.487  14.957  0.0097 -1.0945  2.0254
12315TIP3    H258361   5.318   0.436  14.818 -1.9514  1.2111  0.6318
12316TIP3   OH258362   1.539   0.284   5.961 -0.9687  0.0594 -0.0235
12316TIP3    H158363   1.616   0.227   5.969  0.5292  1.9383 -0.8504
12316TIP3    H258364   1.521   0.312   6.051  0.6186  1.2942 -0.0798
12317TIP3   OH258365   4.474   1.160  16.968 -0.3028 -0.1495 -0.1243
12317TIP3    H158366   4.427   1.235  16.935 -0.9444 -0.5342 -0.0857
12317TIP3    H258367   4.450   1.088  16.909 -0.1693 -0.4613  0.1982
12318TIP3   OH258368   4.992   3.832   2.835 -0.3624 -0.1744  0.3385
12318TIP3    H158369   5.054   3.838   2.908  0.6299  0.1751 -0.5274
12318TIP3    H258370   4.933   3.907   2.847 -0.0004  0.0681  0.5910
12319TIP3   OH258371   1.074   0.950   0.640  0.1009  0.2411 -0.5056
12319TIP3    H158372   1.047   0.880   0.700 -0.0320  0.7976  0.0865
12319TIP3    H258373   0.997   0.964   0.585  0.0363  0.1016 -0.4536
12320TIP3   OH258374   3.714   2.921  14.478 -0.1093  0.7179 -0.2711
12320TIP3    H158375   3.703   2.852  14.543 -0.5544  1.9917  1.0439
12320TIP3    H258376   3.688   2.881  14.395  1.5656 -1.2666  0.1496
12321TIP3   OH258377   0.095   1.727   3.688  0.3421  0.3557 -0.4239
12321TIP3    H158378   0.043   1.682   3.621  1.2174 -0.7623 -0.3665
12321TIP3    H258379   0.164   1.772   3.639 -0.3557  1.3854 -0.4569
12322TIP3   OH258380   5.738   5.795   3.383 -0.1318  0.5297 -0.0965
12322TIP3    H158381   5.790   5.718   3.360 -0.2052  0.3084  0.4563
12322TIP3    H258382   5.649   5.762   3.391 -0.3113  0.8510 -0.7467
12323TIP3   OH258383   5.665   2.342   5.582  0.4961 -0.4997  0.1750
12323TIP3    H158384   5.739   2.344   5.521  0.3280 -0.3339 -0.0255
12323TIP3    H258385   5.704   2.360   5.668  0.4766  1.1801 -0.1460
12324TIP3   OH258386   1.226   1.257  13.829 -0.2541  0.0186 -0.0375
12324TIP3    H158387   1.192   1.221  13.748 -2.0042 -0.6857  1.0043
12324TIP3    H258388   1.215   1.352  13.820 -0.9367 -0.0991 -0.3907
12325TIP3   OH258389   4.530   6.340   1.990 -0.7750 -0.3902 -0.1245
12325TIP3    H158390   4.454   6.352   1.934 -0.3454 -2.4991 -1.2007
12325TIP3    H258391   4.500   6.281   2.059 -0.4433 -0.2541  0.1399
12326TIP3   OH258392   5.682   4.873  11.883 -0.2286  0.1014  0.0548
12326TIP3    H158393   5.770   4.907  11.896 -0.6205  0.2493  2.7298
12326TIP3    H258394   5.625   4.950  11.893 -0.8235 -0.5012  1.5037
12327TIP3   OH258395   5.427   5.620   4.714  0.2320  0.4442 -0.2556
12327TIP3    H158396   5.336   5.615   4.686 -0.1652  0.1944  1.0555
12327TIP3    H258397   5.472   5.555   4.659  0.2676  2.8546 -3.2339
12328TIP3   OH258398   4.653   0.848  14.788  0.0599 -0.3915  0.0685
12328TIP3    H158399   4.652   0.894  14.872 -0.3646 -2.2572  1.1166
12328TIP3    H258400   4.728   0.885  14.742  2.7157 -2.0156  2.8466
12329TIP3   OH258401   5.655   6.611  16.973 -0.2219 -0.2911  0.4411
12329TIP3    H158402   5.670   6.687  16.918 -2.5837 -0.8063 -0.9509
12329TIP3    H258403   5.617   6.646  17.053 -1.5515 -0.0254 -0.3044
12330TIP3   OH258404   0.701   5.519  13.546  0.3255 -0.2951  0.1637
12330TIP3    H158405   0.707   5.608  13.510  0.3155 -0.2506  0.2717
12330TIP3    H258406   0.669   5.532  13.635 -1.4751 -0.5175 -0.4229
12331TIP3   OH258407   2.647   5.185  13.597  0.5505 -0.7399 -0.7634
12331TIP3    H158408   2.711   5.235  13.546  0.2930 -0.5584 -0.9147
12331TIP3    H258409   2.693   5.162  13.678  0.9360 -0.9658 -1.0494
12332TIP3   OH258410   5.630   2.063  11.320 -0.4163 -0.0473  0.0641
12332TIP3    H158411   5.609   2.005  11.393 -2.1744  0.6898  0.1609
12332TIP3    H258412   5.704   2.020  11.276 -0.5464 -1.4430  1.1650
12333TIP3   OH258413   3.837   6.187   2.656  1.0806 -0.7589  0.5817
12333TIP3    H158414   3.776   6.259   2.673  2.8069  0.7055  0.6898
12333TIP3    H258415   3.854   6.192   2.561  0.5814 -1.5454  0.4449
12334TIP3   OH258416   2.146   5.964  16.252  0.5223  0.5883  0.4199
12334TIP3    H158417   2.106   5.916  16.324  0.0171 -1.4150 -1.1510
12334TIP3    H258418   2.240   5.959  16.269  0.3941  0.3499  1.0641
12335TIP3   OH258419   5.603   3.665  13.048  0.1628 -0.3481 -0.1232
12335TIP3    H158420   5.573   3.632  13.133 -0.0723  0.8735  0.2729
12335TIP3    H258421   5.670   3.730  13.070 -0.0963  0.1706 -0.8626
12336TIP3   OH258422   0.701   6.443   3.427 -0.5927  0.3759 -0.0861
12336TIP3    H158423   0.627   6.382   3.430  0.4025 -0.8159  0.7960
12336TIP3    H258424   0.746   6.421   3.346  0.4570 -0.9038  0.8332
12337TIP3   OH258425   3.511   2.211   6.304 -0.0713 -0.1385  0.2921
12337TIP3    H158426   3.575   2.283   6.303 -0.6733  0.4031 -2.3569
12337TIP3    H258427   3.564   2.133   6.289  0.4987 -0.2448  2.5315
12338TIP3   OH258428   1.342   1.291   6.227  0.1691 -0.0569 -0.5319
12338TIP3    H158429   1.377   1.256   6.309  1.2430 -0.9896 -1.3780
12338TIP3    H258430   1.253   1.256   6.222  0.4693 -0.8736 -0.2814
12339TIP3   OH258431   4.502   4.795   4.563 -0.4884  0.1250  0.2610
12339TIP3    H158432   4.473   4.780   4.474 -0.8969 -3.3639  0.9206
12339TIP3    H258433   4.592   4.762   4.566 -0.1456  1.0731  0.9157
12340TIP3   OH258434   5.587   5.810  11.272 -0.3380  0.2362  0.3590
12340TIP3    H158435   5.674   5.835  11.304 -0.7878  2.5523 -0.1115
12340TIP3    H258436   5.542   5.778  11.350  0.7518 -0.4803  0.7089
12341TIP3   OH258437   4.977   0.004  13.350 -0.1346  0.9463  0.3819
12341TIP3    H158438   5.011  -0.069  13.298  0.7824 -0.8788  3.4442
12341TIP3    H258439   4.921   0.052  13.289  1.5149 -0.6503 -2.5108
12342TIP3   OH258440   1.270   5.425   1.992 -0.4826 -0.4384  0.4812
12342TIP3    H158441   1.192   5.374   2.016 -0.7727 -1.0498 -1.6798
12342TIP3    H258442   1.319   5.368   1.933  0.6428  0.7047  0.2829
12343TIP3   OH258443   1.585   6.127   3.456  0.5934 -0.1937  0.3172
12343TIP3    H158444   1.555   6.069   3.386 -0.2783  1.4752 -0.7454
12343TIP3    H258445   1.659   6.174   3.418  0.9154 -0.1804  0.9535
12344TIP3   OH258446   6.538   0.125  11.337 -0.1662 -0.0868  0.4405
12344TIP3    H158447   6.579   0.042  11.361  0.8172  0.2546 -0.0377
12344TIP3    H258448   6.445   0.112  11.356  0.1113 -0.9857  1.2129
12345TIP3   OH258449   1.311   3.377   3.537 -0.2291  0.0431 -0.1284
12345TIP3    H158450   1.378   3.373   3.606 -2.4672 -0.1702  2.0936
12345TIP3    H258451   1.330   3.302   3.482  1.3391 -0.0458  0.4903
12346TIP3   OH258452   0.578   2.435   2.901  0.3041 -0.0864 -0.0423
12346TIP3    H158453   0.595   2.378   2.976  2.8974 -0.0275 -0.5564
12346TIP3    H258454   0.539   2.377   2.835 -0.9390 -0.3643  0.9107
12347TIP3   OH258455   1.393   3.212   3.027 -0.4187 -0.3728  0.3185
12347TIP3    H158456   1.363   3.271   3.096  0.3453 -1.3020  1.4662
12347TIP3    H258457   1.431   3.270   2.960 -3.4822  0.7154 -0.5456
12348TIP3   OH258458   5.782   1.478   2.142 -0.1624  0.1928  0.4300
12348TIP3    H158459   5.813   1.548   2.084  1.7565 -1.2288 -0.3345
12348TIP3    H258460   5.835   1.489   2.222  0.3830 -0.5816  0.1767
12349TIP3   OH258461   5.628   1.485  16.374  0.2205  0.1629 -0.5680
12349TIP3    H158462   5.588   1.497  16.287  1.3141  0.5507 -1.0231
12349TIP3    H258463   5.559   1.444  16.426 -0.7230  0.6647 -1.3935
12350TIP3   OH258464   2.648   3.949   3.738 -0.0567 -0.0335  0.4960
12350TIP3    H158465   2.580   3.948   3.806 -1.2486  1.8982 -0.6183
12350TIP3    H258466   2.617   3.886   3.673 -0.6963  0.6825  0.0948
12351TIP3   OH258467   5.691   3.415  17.129  0.2235  0.5757  0.4484
12351TIP3    H158468   5.639   3.483  17.086  0.2320  0.7943  0.7805
12351TIP3    H258469   5.686   3.437  17.222 -0.9183 -0.6617  0.7019
12352TIP3   OH258470   4.459   1.788  16.248  0.6325  0.0355  0.1202
12352TIP3    H158471   4.400   1.778  16.323  3.1274 -1.0689  1.9841
12352TIP3    H258472   4.541   1.819  16.286  2.0300 -0.7910 -2.1339
12353TIP3   OH258473   5.838   4.111   5.573  0.3203  0.0409 -0.0556
12353TIP3    H158474   5.750   4.132   5.541 -0.1015 -0.9407  0.4589
12353TIP3    H258475   5.827   4.097   5.667  0.7028 -1.8532 -0.2800
12354TIP3   OH258476   2.355   6.240  14.506  0.0728 -0.3824 -0.1001
12354TIP3    H158477   2.344   6.280  14.592 -0.2779 -1.4857  0.3794
12354TIP3    H258478   2.267   6.217  14.479  0.2249 -0.4105 -0.5798
12355TIP3   OH258479   4.239   6.584   3.118 -0.3002 -0.0244 -0.0470
12355TIP3    H158480   4.318   6.628   3.087  0.3928 -0.5557  0.9469
12355TIP3    H258481   4.180   6.655   3.143  0.9984  0.3695  2.0276
12356TIP3   OH258482   3.440   5.500   4.797  0.0820 -0.3321 -0.4495
12356TIP3    H158483   3.437   5.590   4.828  1.3683 -0.4524  0.0636
12356TIP3    H258484   3.507   5.458   4.851  0.1298 -1.3610 -1.2855
12357TIP3   OH258485   0.729   6.271   5.005 -0.0488 -0.0431 -0.8388
12357TIP3    H158486   0.720   6.176   4.997  2.4534 -0.2791 -1.1429
12357TIP3    H258487   0.772   6.284   5.089 -0.3969  0.8260 -0.7946
12358TIP3   OH258488   0.532   2.539   2.555 -0.2048 -0.2187 -0.0370
12358TIP3    H158489   0.475   2.523   2.631 -1.1276 -1.1123 -0.8961
12358TIP3    H258490   0.490   2.491   2.484  2.5506 -2.3543 -0.3090
12359TIP3   OH258491   0.235   2.397  12.031  0.0677 -0.0940 -0.1278
12359TIP3    H158492   0.258   2.314  11.988  1.6930  0.3519 -0.1471
12359TIP3    H258493   0.173   2.438  11.971 -1.6617 -1.7906  0.4198
12360TIP3   OH258494   2.774   1.272   3.445  0.0467 -0.3917  0.5523
12360TIP3    H158495   2.781   1.340   3.377  0.6760 -1.7778 -0.7906
12360TIP3    H258496   2.798   1.317   3.526  0.3090  1.0333 -0.2955
12361TIP3   OH258497   3.241   6.491  12.383  0.1456  0.1612  0.1436
12361TIP3    H158498   3.290   6.456  12.458  1.1759  1.5755  0.1454
12361TIP3    H258499   3.267   6.583  12.378 -1.2242  0.4990 -0.9144
12362TIP3   OH258500   1.458   6.061   4.330 -0.0573  0.1120 -0.1948
12362TIP3    H158501   1.494   6.150   4.322 -0.0917  0.0864 -0.6646
12362TIP3    H258502   1.508   6.022   4.401 -1.4013  1.1640  1.3672
12363TIP3   OH258503   6.299   4.753   5.433 -0.2831 -0.1308  0.0675
12363TIP3    H158504   6.369   4.793   5.485  0.0573 -0.3166 -0.2495
12363TIP3    H258505   6.239   4.826   5.414 -0.3932 -0.0555  0.6907
12364TIP3   OH258506   3.139   2.123   2.769  0.3599 -0.8644 -0.0110
12364TIP3    H158507   3.129   2.031   2.795 -2.3052 -0.3221  1.0533
12364TIP3    H258508   3.080   2.171   2.827  4.0043  1.9383  1.6028
12365TIP3   OH258509   4.966   0.175   0.826  0.3260  0.1136 -0.0288
12365TIP3    H158510   4.972   0.134   0.739  1.0844 -0.4102  0.2621
12365TIP3    H258511   5.011   0.114   0.884  0.3199  0.7388  0.6379
12366TIP3   OH258512   6.269   6.445  12.232  0.0185  0.1249  0.1736
12366TIP3    H158513   6.357   6.480  12.248  0.5536 -1.5649  1.0055
12366TIP3    H258514   6.275   6.402  12.147  0.5529 -1.7160  1.1224
12367TIP3   OH258515   1.342   5.419   0.752  0.2630 -0.2566 -0.0303
12367TIP3    H158516   1.332   5.325   0.767 -2.7159 -0.2669 -1.6912
12367TIP3    H258517   1.391   5.425   0.670 -0.5269 -0.3760 -0.5133
12368TIP3   OH258518   4.588   6.606  16.491  0.9773 -0.2866 -0.6300
12368TIP3    H158519   4.591   6.702  16.486  0.5192 -0.1463  1.4804
12368TIP3    H258520   4.674   6.578  16.459  1.4494  0.8729 -0.4038
12369TIP3   OH258521   3.612   1.440  13.247  0.1810  0.0051  0.3560
12369TIP3    H158522   3.682   1.411  13.305  0.7261 -0.7539 -0.6690
12369TIP3    H258523   3.655   1.499  13.185 -0.2388  0.1577  0.2086
12370TIP3   OH258524   5.088   4.665   4.877  0.3516 -0.1099 -0.6240
12370TIP3    H158525   5.040   4.706   4.949 -0.9292  0.6001 -1.8637
12370TIP3    H258526   5.180   4.681   4.898  0.1273 -1.8784  2.0179
12371TIP3   OH258527   0.142   5.210  12.286 -0.1424 -1.0508 -0.0187
12371TIP3    H158528   0.104   5.229  12.200 -1.0870 -0.4070  0.5298
12371TIP3    H258529   0.069   5.174  12.337  0.1477 -0.4543  0.8388
12372TIP3   OH258530   4.050   3.568   0.828  0.0612  0.5444 -0.0060
12372TIP3    H158531   4.078   3.641   0.772  0.9198 -1.2892 -2.0180
12372TIP3    H258532   4.087   3.491   0.787 -1.9094 -1.1967  1.3931
12373TIP3   OH258533   6.336   4.470   3.635 -0.5378  0.2212 -0.0071
12373TIP3    H158534   6.279   4.523   3.691 -0.5938  2.2110 -1.8712
12373TIP3    H258535   6.416   4.457   3.687 -1.9621 -1.0745  1.9188
12374TIP3   OH258536   3.755   1.843   4.957 -0.7652  0.4091 -0.7759
12374TIP3    H158537   3.670   1.886   4.967  0.6451  2.7791  1.7253
12374TIP3    H258538   3.819   1.911   4.982  1.6916 -2.1677  0.1525
12375TIP3   OH258539   0.275   0.477   4.709 -0.1457  0.7762  0.3898
12375TIP3    H158540   0.258   0.494   4.617  0.4575  2.0176  0.4850
12375TIP3    H258541   0.219   0.403   4.732  0.1462  0.0844 -1.1172
12376TIP3   OH258542   4.090   4.229   6.538  0.1591 -0.9075  0.8653
12376TIP3    H158543   4.073   4.306   6.591  1.5244  1.2326 -1.6780
12376TIP3    H258544   4.156   4.180   6.587  0.7233  0.5555  1.5821
12377TIP3   OH258545   4.677   4.964  13.496  0.3626  0.2748 -0.1776
12377TIP3    H158546   4.653   4.901  13.429 -1.2252  1.4125 -0.7084
12377TIP3    H258547   4.597   5.014  13.512  1.2505  1.3125  1.1421
12378TIP3   OH258548   3.626   3.821   0.075 -0.0150 -0.2105  0.2517
12378TIP3    H158549   3.694   3.877   0.039 -1.2652  0.0497 -1.7627
12378TIP3    H258550   3.674   3.758   0.130  1.5940  1.4355  0.7992
12379TIP3   OH258551   4.608   5.245   6.006 -0.6509  0.3589 -0.4998
12379TIP3    H158552   4.702   5.250   6.026 -0.5937 -0.7838 -0.4683
12379TIP3    H258553   4.566   5.231   6.091 -0.7611 -0.2154 -0.6481
12380TIP3   OH258554   3.148   0.627  13.833 -0.0577  0.2427 -0.0157
12380TIP3    H158555   3.124   0.706  13.881  1.9859  0.2713  1.0024
12380TIP3    H258556   3.232   0.600  13.871  0.4941 -1.0101 -2.0302
12381TIP3   OH258557   1.547   2.621   3.772  0.0273 -0.0326 -0.3312
12381TIP3    H158558   1.500   2.538   3.767 -0.6678  0.2688  1.1577
12381TIP3    H258559   1.545   2.645   3.864  0.0107  1.7754 -0.7814
12382TIP3   OH258560   2.567   4.456   3.793 -0.5750  0.1440 -0.1919
12382TIP3    H158561   2.574   4.448   3.888 -1.1914  0.6197 -0.1075
12382TIP3    H258562   2.604   4.374   3.759  2.3174  1.1797  0.3546
12383TIP3   OH258563   1.529   5.652  11.323  0.0226 -0.1085  0.1356
12383TIP3    H158564   1.509   5.589  11.254  1.8858 -2.1282  1.3633
12383TIP3    H258565   1.620   5.678  11.306  0.3886 -0.3788  1.5978
12384TIP3   OH258566   1.967   6.744  12.183 -0.2131 -0.4048 -0.7967
12384TIP3    H158567   2.042   6.688  12.199  0.0254 -0.2299 -1.3179
12384TIP3    H258568   2.005   6.828  12.155 -0.5058  0.4212  1.1758
12385TIP3   OH258569   6.638   3.212   4.781 -0.2936 -0.1199 -0.2700
12385TIP3    H158570   6.691   3.174   4.850  0.2339 -1.3755 -1.3362
12385TIP3    H258571   6.635   3.306   4.800 -0.6048 -0.5275  1.7307
12386TIP3   OH258572   4.334   5.381  15.216  0.5481  0.3705  0.4192
12386TIP3    H158573   4.278   5.315  15.257  2.8564 -2.1584 -0.2845
12386TIP3    H258574   4.276   5.426  15.154 -1.0023 -1.2622  0.6273
12387TIP3   OH258575   1.515   3.385   4.969 -0.3451  0.1855  0.0639
12387TIP3    H158576   1.594   3.347   5.009  0.4500  0.2160 -1.4380
12387TIP3    H258577   1.549   3.457   4.915 -1.1444 -1.4450 -2.6392
12388TIP3   OH258578   6.534   3.033   5.829 -0.5828 -0.5148 -0.6667
12388TIP3    H158579   6.585   2.965   5.872 -0.2228 -0.2884 -0.7340
12388TIP3    H258580   6.482   3.072   5.900 -0.1221 -0.2621 -0.4593
12389TIP3   OH258581   2.017   4.597   1.088  0.3111 -0.6062  0.0228
12389TIP3    H158582   2.101   4.619   1.048  0.7547  0.7414  1.6212
12389TIP3    H258583   2.000   4.507   1.061  1.5406 -0.3920 -1.5407
12390TIP3   OH258584   1.350   4.875  13.730 -0.4622  0.8040 -0.4803
12390TIP3    H158585   1.351   4.897  13.823 -1.3953  1.8253 -0.7109
12390TIP3    H258586   1.415   4.933  13.691  1.3048 -0.9375 -0.1853
12391TIP3   OH258587   3.113   0.288   3.534 -0.1417 -0.0991 -0.3063
12391TIP3    H158588   3.109   0.323   3.445 -0.8364  0.0745 -0.2117
12391TIP3    H258589   3.206   0.273   3.551  0.0487  0.5805 -0.7823
12392TIP3   OH258590   3.370   6.367  16.551  0.3619  0.2548 -0.0601
12392TIP3    H158591   3.357   6.347  16.644 -0.7862 -0.2704 -0.3278
12392TIP3    H258592   3.327   6.451  16.538 -0.5226 -0.2543 -0.3878
12393TIP3   OH258593   1.582   6.328  14.259  0.5629 -0.0006  0.5037
12393TIP3    H158594   1.669   6.344  14.294  0.7638 -2.7465  1.3232
12393TIP3    H258595   1.595   6.270  14.185 -0.2996  2.2407 -1.4921
12394TIP3   OH258596   4.613   6.414   0.271 -0.4714  0.2973  0.5448
12394TIP3    H158597   4.520   6.429   0.257 -0.9167 -0.5607  2.5294
12394TIP3    H258598   4.649   6.502   0.285 -0.9849  0.6165 -0.0890
12395TIP3   OH258599   4.160   2.299  15.779 -0.1693 -0.4721  0.0119
12395TIP3    H158600   4.196   2.366  15.721 -2.1319  0.9723  0.4342
12395TIP3    H258601   4.168   2.336  15.866  0.2529 -1.5025  0.4251
12396TIP3   OH258602   6.468   3.085  16.418 -0.9600 -0.0360  0.2116
12396TIP3    H158603   6.527   3.128  16.356 -0.7941 -0.0964  0.3254
12396TIP3    H258604   6.460   2.995  16.386  0.8360 -0.6673  1.4825
12397TIP3   OH258605   0.040   0.935   2.434 -0.3706  0.3013 -0.6503
12397TIP3    H158606   0.095   1.004   2.397  0.9667 -0.0390  0.6929
12397TIP3    H258607   0.088   0.853   2.416 -1.0343 -0.1100 -0.5752
12398TIP3   OH258608   4.651   2.993  11.686  0.0866  0.5499 -0.2636
12398TIP3    H158609   4.721   3.054  11.664 -0.4050  0.5814 -1.7669
12398TIP3    H258610   4.575   3.025  11.636 -0.3910 -0.8098 -0.4168
12399TIP3   OH258611   4.484   1.870  10.735 -0.2397 -0.0516 -0.5251
12399TIP3    H158612   4.568   1.852  10.693  0.1720 -1.4943  0.8524
12399TIP3    H258613   4.423   1.810  10.692 -0.6799  1.3121 -1.8404
12400TIP3   OH258614   0.511   1.152   1.342 -0.4965  0.2636 -0.0059
12400TIP3    H158615   0.539   1.151   1.433  2.4730  1.7289 -0.8412
12400TIP3    H258616   0.438   1.090   1.338 -0.7028  0.2192  3.3473
12401TIP3   OH258617   3.327   5.749   1.674 -0.1357 -0.3515 -0.3352
12401TIP3    H158618   3.356   5.714   1.759  3.0672 -0.9312 -1.5953
12401TIP3    H258619   3.252   5.694   1.650 -0.5559 -0.7255  1.6803
12402TIP3   OH258620   0.363   3.090   2.681 -0.5032  0.7898  0.2096
12402TIP3    H158621   0.325   3.013   2.723 -0.9093  1.1336  0.4906
12402TIP3    H258622   0.413   3.056   2.607  0.4890  0.1401  1.1593
12403TIP3   OH258623   6.325   3.170   3.933 -0.4527 -0.0960  0.2194
12403TIP3    H158624   6.330   3.265   3.923 -0.7423 -0.2559 -1.7686
12403TIP3    H258625   6.260   3.143   3.868  0.0819 -1.7135  0.3338
12404TIP3   OH258626   0.922   2.569   1.621  0.4102  0.2848 -0.0203
12404TIP3    H158627   0.905   2.659   1.592 -1.2197 -0.2722 -0.8463
12404TIP3    H258628   0.927   2.519   1.540 -0.9769 -0.7502  0.5123
12405TIP3   OH258629   0.722   6.661   5.156  0.2148  0.4416 -0.0663
12405TIP3    H158630   0.657   6.599   5.121  0.8744 -0.2550 -0.0767
12405TIP3    H258631   0.702   6.667   5.249  1.3889 -1.3555  0.3308
12406TIP3   OH258632   6.064   3.415  13.441 -0.3403 -0.2894  0.3719
12406TIP3    H158633   5.981   3.368  13.433 -0.3590 -0.5928  2.1644
12406TIP3    H258634   6.082   3.416  13.535  2.1369 -0.9819 -0.0720
12407TIP3   OH258635   0.918   0.243  14.311 -0.7815  0.0435 -0.1270
12407TIP3    H158636   0.870   0.324  14.328 -0.1624  0.8146 -1.9095
12407TIP3    H258637   0.918   0.235  14.216  0.1748 -1.4403 -0.0149
12408TIP3   OH258638   3.071   6.269  14.140  0.5045 -0.0805  0.1187
12408TIP3    H158639   3.129   6.199  14.172  0.7390 -0.1201 -0.3895
12408TIP3    H258640   3.024   6.298  14.218 -2.0239 -3.0776 -0.2027
12409TIP3   OH258641   2.680   0.576   0.087  0.3587 -0.2845 -0.2706
12409TIP3    H158642   2.700   0.627   0.165  0.1627  1.9866 -1.6658
12409TIP3    H258643   2.752   0.513   0.079  1.0111  0.2946  1.0417
12410TIP3   OH258644   5.397   5.580  12.661 -0.1429 -0.5884  0.6113
12410TIP3    H158645   5.456   5.654  12.648 -2.2504  0.6681 -2.4820
12410TIP3    H258646   5.441   5.507  12.617 -0.2712  0.0288 -0.5644
12411TIP3   OH258647   5.998   4.704  12.997  0.0671  0.0274  0.1220
12411TIP3    H158648   6.021   4.697  12.904 -1.7382 -0.0677 -0.3421
12411TIP3    H258649   5.902   4.711  12.997  0.0519 -0.0378  1.9862
12412TIP3   OH258650   2.603   2.383   1.472  0.2079  0.0409 -0.2891
12412TIP3    H158651   2.656   2.437   1.413  0.1409  0.3478 -0.0698
12412TIP3    H258652   2.567   2.314   1.415  0.5503  0.0396 -0.5071
12413TIP3   OH258653   2.267   4.519   3.772 -0.0897 -1.1011  0.3301
12413TIP3    H158654   2.259   4.521   3.867 -1.6428  2.1237  0.2139
12413TIP3    H258655   2.359   4.538   3.755 -0.1895  0.2430  1.1926
12414TIP3   OH258656   3.262   3.130   5.100 -0.5688  0.0239 -0.3678
12414TIP3    H158657   3.209   3.059   5.138 -1.4472 -0.6734 -2.8206
12414TIP3    H258658   3.217   3.153   5.019  1.9566  0.5685 -1.6726
12415TIP3   OH258659   2.821   4.194   0.692 -0.4443  0.3095  0.1574
12415TIP3    H158660   2.744   4.163   0.644 -1.6450 -0.6742  2.6281
12415TIP3    H258661   2.855   4.116   0.736  1.3113  0.9606 -0.0367
12416TIP3   OH258662   6.701   5.335   4.837  0.4195  0.2109 -0.2222
12416TIP3    H158663   6.775   5.279   4.814  0.8458 -0.1473  1.8948
12416TIP3    H258664   6.659   5.291   4.911 -0.9609  1.2073 -0.3924
12417TIP3   OH258665   5.318   6.648  12.319  0.0968  0.0128 -0.0984
12417TIP3    H158666   5.293   6.668  12.410  1.2852  0.1075  0.2173
12417TIP3    H258667   5.251   6.588  12.289 -0.8677  0.7508  0.5227
12418TIP3   OH258668   3.191   4.775   4.689  0.1434 -0.3483  0.5626
12418TIP3    H158669   3.272   4.805   4.649 -0.5936  0.0457 -0.6549
12418TIP3    H258670   3.136   4.853   4.693 -1.0189 -1.0796 -0.7281
12419TIP3   OH258671   6.476   3.224  13.001  0.4911  0.4038  0.1813
12419TIP3    H158672   6.396   3.275  12.991  0.2941 -0.3906 -2.8302
12419TIP3    H258673   6.472   3.190  13.091 -1.7077  1.7081  0.6167
12420TIP3   OH258674   1.990   5.536   2.389 -0.0880 -0.7563  0.3748
12420TIP3    H158675   2.029   5.597   2.452 -1.8675 -0.6451  1.3993
12420TIP3    H258676   2.065   5.492   2.349  1.1331  0.4532  1.2897
12421TIP3   OH258677   6.684   5.282  13.516 -0.3432 -0.9116 -0.3620
12421TIP3    H158678   6.632   5.257  13.593  0.0539 -1.5110 -0.2852
12421TIP3    H258679   6.662   5.216  13.450 -0.2497 -0.7267 -0.5761
12422TIP3   OH258680   4.777   1.435   5.688  0.6475  0.2344  0.0678
12422TIP3    H158681   4.867   1.406   5.699  0.4704  0.1455  1.3067
12422TIP3    H258682   4.745   1.450   5.777 -1.7048 -3.2045 -0.1147
12423TIP3   OH258683   0.138   4.224  13.938  0.3235 -0.4903  0.0962
12423TIP3    H158684   0.128   4.249  13.846  1.1654 -0.2957  0.0558
12423TIP3    H258685   0.101   4.136  13.943  1.8056 -1.1797 -0.7831
12424TIP3   OH258686   1.183   1.702  12.644 -0.3774  0.6494 -0.2075
12424TIP3    H158687   1.266   1.682  12.602 -1.0739 -1.4828 -0.6532
12424TIP3    H258688   1.206   1.726  12.734  0.8307  1.6724 -0.7770
12425TIP3   OH258689   1.741   3.304  11.838 -0.3598 -0.9154  0.2575
12425TIP3    H158690   1.668   3.262  11.792 -0.6986 -0.3288  0.2447
12425TIP3    H258691   1.809   3.313  11.771 -1.5059  1.5607 -0.6515
12426TIP3   OH258692   1.270   0.487  10.584  0.3176 -0.3307  0.1454
12426TIP3    H158693   1.266   0.571  10.629  0.1184  0.0029 -0.4854
12426TIP3    H258694   1.271   0.510  10.491 -1.3482 -1.0829 -0.0825
12427TIP3   OH258695   6.077   1.297  10.675 -0.2281  0.6650  0.7942
12427TIP3    H158696   6.170   1.286  10.655 -0.3565  1.7290 -0.4253
12427TIP3    H258697   6.075   1.311  10.770  0.7671 -0.2127  0.9576
12428TIP3   OH258698   4.252   4.759   3.195  0.6432  0.0716  0.0387
12428TIP3    H158699   4.234   4.807   3.275 -1.5633 -1.3462  0.4442
12428TIP3    H258700   4.288   4.675   3.225 -0.2801 -0.5022 -0.4253
12429TIP3   OH258701   6.646   0.203  15.489  0.3079  0.2616 -0.0872
12429TIP3    H158702   6.597   0.263  15.544 -1.0701  0.3222 -1.3478
12429TIP3    H258703   6.592   0.124  15.485  0.6386  0.0675 -0.9026
12430TIP3   OH258704   0.995   5.472  13.913  0.3992  0.2674  0.5858
12430TIP3    H158705   0.913   5.422  13.914  1.0608 -0.8539 -0.0788
12430TIP3    H258706   0.978   5.548  13.969 -1.8388  1.2272 -1.3461
12431TIP3   OH258707   0.238   6.029   4.869 -0.3547  0.0990  0.4590
12431TIP3    H158708   0.230   6.028   4.965  0.2919 -0.4290  0.5071
12431TIP3    H258709   0.293   6.106   4.851  1.2710 -0.9849  0.6551
12432TIP3   OH258710   4.629   4.504  14.997 -0.2888  0.4247  0.1541
12432TIP3    H158711   4.617   4.580  14.939  2.6925  0.2246 -0.8138
12432TIP3    H258712   4.695   4.451  14.953 -2.0084 -2.5637  1.0367
12433TIP3   OH258713   1.787   5.492  13.896  0.0378  0.3167 -0.0809
12433TIP3    H158714   1.724   5.511  13.826  0.5415 -0.4674 -0.7551
12433TIP3    H258715   1.832   5.576  13.910 -0.8071  0.7548  0.0653
12434TIP3   OH258716   6.460   2.455   5.685  0.3447 -0.2323 -0.3307
12434TIP3    H158717   6.438   2.456   5.592  0.2328  0.6196 -0.2944
12434TIP3    H258718   6.387   2.499   5.728  0.5341 -0.3679  0.1318
12435TIP3   OH258719   2.109   1.776   0.283  0.4366  0.4181 -0.6831
12435TIP3    H158720   2.171   1.743   0.218 -1.4990 -1.6235 -1.5381
12435TIP3    H258721   2.130   1.727   0.362 -0.4073 -0.6516 -1.1131
12436TIP3   OH258722   6.237   3.698   6.223  0.0502 -0.2280 -0.3028
12436TIP3    H158723   6.233   3.630   6.290  1.0214 -0.8101 -0.8296
12436TIP3    H258724   6.304   3.759   6.255  0.3688 -0.4001 -0.6359
12437TIP3   OH258725   2.191   0.119   2.008  0.6398  0.0705  0.0410
12437TIP3    H158726   2.197   0.024   2.016  2.1241  0.1040 -0.5239
12437TIP3    H258727   2.266   0.144   1.953 -0.1845  1.4836 -0.4722
12438TIP3   OH258728   5.432   3.688  13.526  0.1893  0.7077  0.1286
12438TIP3    H158729   5.431   3.742  13.447 -1.2712 -0.6684 -0.8042
12438TIP3    H258730   5.340   3.674  13.548  0.5106 -1.8463  0.0405
12439TIP3   OH258731   5.557   5.045  17.108  0.3022 -0.4276  0.7542
12439TIP3    H158732   5.569   5.037  17.203 -0.2331 -1.5773  0.7265
12439TIP3    H258733   5.640   5.080  17.077  0.2667  0.5822  1.7185
12440TIP3   OH258734   5.629   5.290   3.239  0.1469  0.3963  0.0063
12440TIP3    H158735   5.723   5.305   3.245  0.1116 -0.2341  3.2284
12440TIP3    H258736   5.618   5.238   3.160  2.4201  0.9588 -0.7362
12441TIP3   OH258737   0.344   6.695   1.162  0.7259  0.0056  0.3043
12441TIP3    H158738   0.334   6.603   1.139 -1.5593  0.0895  0.8569
12441TIP3    H258739   0.283   6.709   1.234  1.5763  1.7927  0.7163
12442TIP3   OH258740   1.184   3.537   4.096 -0.6462 -0.5661 -0.7159
12442TIP3    H158741   1.131   3.610   4.127  0.4352  1.2482 -2.9463
12442TIP3    H258742   1.273   3.558   4.123 -0.7346 -2.6133  1.2860
12443TIP3   OH258743   3.687   4.414   1.667 -0.0549  0.0940  0.8921
12443TIP3    H158744   3.712   4.398   1.758  1.7540  0.6981  0.5323
12443TIP3    H258745   3.735   4.493   1.643  0.2023 -0.5734 -0.8517
12444TIP3   OH258746   4.031   2.241  14.909  0.4933  0.5691  0.0906
12444TIP3    H158747   3.968   2.211  14.975  1.9764 -1.3862  0.6593
12444TIP3    H258748   4.068   2.321  14.947  1.0858 -0.3475  1.5089
12445TIP3   OH258749   1.636   3.734   2.458  0.4464  0.1497 -0.2717
12445TIP3    H158750   1.624   3.820   2.498 -0.5512 -0.0988 -0.0344
12445TIP3    H258751   1.611   3.746   2.366  0.7844  0.2281 -0.3553
12446TIP3   OH258752   2.669   4.163  10.491  0.2603  0.3952 -0.1113
12446TIP3    H158753   2.741   4.105  10.516 -1.6565 -0.9301  2.6122
12446TIP3    H258754   2.676   4.237  10.550 -1.0878 -0.1431  0.7366
12447TIP3   OH258755   4.593   0.978  13.503 -0.2540  0.2059 -0.2350
12447TIP3    H158756   4.500   0.982  13.484 -0.4009  0.7097  0.5750
12447TIP3    H258757   4.625   1.067  13.485  0.1547 -0.0706 -0.9114
12448TIP3   OH258758   4.096   3.409   0.247  0.3330  0.2607  0.4231
12448TIP3    H158759   4.016   3.371   0.282  1.2864 -0.6958  1.6205
12448TIP3    H258760   4.165   3.349   0.276  1.3756  0.5534 -1.3986
12449TIP3   OH258761   5.519   6.456   5.031 -0.6991 -0.5540  0.7524
12449TIP3    H158762   5.458   6.472   5.103 -2.2189 -0.0266 -0.6195
12449TIP3    H258763   5.517   6.361   5.019 -2.1658 -0.4400 -0.0376
12450TIP3   OH258764   4.277   3.549  15.917 -0.7198 -0.7031  0.1175
12450TIP3    H158765   4.307   3.574  16.004  0.9556  2.3205 -1.2689
12450TIP3    H258766   4.332   3.474  15.893 -0.6756 -1.0650  1.3208
12451TIP3   OH258767   6.275   5.702   2.589  0.2184  0.0212 -0.0359
12451TIP3    H158768   6.237   5.644   2.524  0.4949  2.2636 -2.2644
12451TIP3    H258769   6.201   5.730   2.643 -0.3449 -0.2435 -0.6688
12452TIP3   OH258770   0.109   1.416  13.072 -0.2971  0.2359 -0.0847
12452TIP3    H158771   0.114   1.496  13.019 -1.2110  0.1429 -0.3154
12452TIP3    H258772   0.148   1.441  13.156  2.3188  0.0369 -1.1802
12453TIP3   OH258773   5.842   3.238  11.443 -0.3654 -0.3859  0.5974
12453TIP3    H158774   5.768   3.272  11.393 -1.0769 -2.1930  0.3672
12453TIP3    H258775   5.884   3.315  11.481 -1.3804  0.7865 -0.6359
12454TIP3   OH258776   6.352   6.164   4.739  0.1705 -0.7892  0.1587
12454TIP3    H158777   6.302   6.229   4.789  1.5582  0.5042 -0.0990
12454TIP3    H258778   6.385   6.103   4.804  1.3946  0.4967  0.7828
12455TIP3   OH258779   6.706   3.892   3.777  0.6005  0.0066  0.5892
12455TIP3    H158780   6.680   3.809   3.817  1.5266 -0.3655  0.4195
12455TIP3    H258781   6.646   3.902   3.703  0.3323 -0.3988  0.7492
12456TIP3   OH258782   2.997   5.017  14.331  0.0993  0.3514  0.2633
12456TIP3    H158783   2.918   5.025  14.385 -0.0307  1.9342 -0.1593
12456TIP3    H258784   2.971   5.050  14.245  1.0790  0.3785 -0.0218
12457TIP3   OH258785   5.872   0.608  14.545 -0.3563 -0.6212  0.1320
12457TIP3    H158786   5.900   0.546  14.613 -1.9361 -1.7812 -0.2399
12457TIP3    H258787   5.919   0.689  14.566 -1.5530 -0.6378  3.2285
12458TIP3   OH258788   1.321   0.017  11.455  0.1546  0.4740  0.0667
12458TIP3    H158789   1.226   0.031  11.457  0.1210  0.1886  0.4042
12458TIP3    H258790   1.344   0.024  11.362 -0.0857  1.2651  0.0573
12459TIP3   OH258791   5.849   2.827   1.989  0.0773  0.1550  0.1524
12459TIP3    H158792   5.882   2.881   2.061  0.9724 -0.8282  0.4912
12459TIP3    H258793   5.920   2.765   1.971 -0.4663 -0.1360 -1.0311
12460TIP3   OH258794   3.807   3.243   3.130 -0.3046  0.5115  0.1925
12460TIP3    H158795   3.849   3.185   3.193  0.6445  0.8334 -0.1446
12460TIP3    H258796   3.716   3.213   3.127 -0.4461  0.7291  1.9887
12461TIP3   OH258797   2.735   2.604  12.482 -0.1003 -0.6409 -0.2975
12461TIP3    H158798   2.720   2.516  12.518  2.3080 -1.8428 -2.0283
12461TIP3    H258799   2.825   2.600  12.450  1.0016  3.3440  2.0086
12462TIP3   OH258800   1.588   4.294   4.470 -0.7364 -0.1867  0.0297
12462TIP3    H158801   1.557   4.274   4.558 -1.2156 -0.2961 -0.1660
12462TIP3    H258802   1.580   4.212   4.422 -2.6328  0.4230 -0.7483
12463TIP3   OH258803   4.458   3.745   2.287 -0.4699  0.4548 -0.1319
12463TIP3    H158804   4.381   3.784   2.244  0.1025  0.4546 -1.1892
12463TIP3    H258805   4.442   3.757   2.380 -2.0698 -0.1541 -0.3111
12464TIP3   OH258806   1.952   1.558  13.503  0.1017 -0.1857  0.7178
12464TIP3    H158807   2.007   1.633  13.530 -0.9524  0.4159  1.2266
12464TIP3    H258808   1.869   1.573  13.547 -1.5815  0.6186 -2.5796
12465TIP3   OH258809   0.644   2.300  11.625  0.4470  0.1133  0.6982
12465TIP3    H158810   0.557   2.326  11.654 -0.7205 -0.9386 -1.7816
12465TIP3    H258811   0.631   2.264  11.538  2.7225 -3.9156  1.8969
12466TIP3   OH258812   1.870   5.728   4.263  0.2425  0.0214  0.3229
12466TIP3    H158813   1.827   5.807   4.295  1.6367  1.4386 -1.1802
12466TIP3    H258814   1.800   5.676   4.224 -0.5296  1.0439  0.3256
12467TIP3   OH258815   0.232   3.503  15.930 -0.2092 -0.4467  0.3287
12467TIP3    H158816   0.260   3.510  15.839 -3.0306 -0.9899 -0.6374
12467TIP3    H258817   0.267   3.419  15.959  1.4519  0.1266  0.0507
12468TIP3   OH258818   2.465   3.595  13.210 -0.0959  0.0174 -0.2365
12468TIP3    H158819   2.380   3.617  13.249 -0.1015  0.8202 -0.6953
12468TIP3    H258820   2.528   3.606  13.281 -0.0560  1.8425 -0.5205
12469TIP3   OH258821   3.720   5.394  12.236 -0.4918 -0.0054 -0.0237
12469TIP3    H158822   3.764   5.389  12.321  2.0092  0.2916 -1.2437
12469TIP3    H258823   3.742   5.481  12.203  1.4950 -1.3383 -2.4365
12470TIP3   OH258824   1.487   0.039   1.371 -0.2067  0.1050  0.4271
12470TIP3    H158825   1.412   0.054   1.429  0.0871  0.5323  0.6959
12470TIP3    H258826   1.509   0.126   1.337  2.2475  0.5127  2.9098
12471TIP3   OH258827   5.076   6.569  10.198 -0.4619  0.0701 -0.5227
12471TIP3    H158828   5.034   6.581  10.283 -0.4005 -2.0561 -0.1419
12471TIP3    H258829   5.118   6.652  10.179 -1.3444  0.8927  1.0488
12472TIP3   OH258830   5.421   0.599  13.924 -0.0064 -0.2931  0.2940
12472TIP3    H158831   5.428   0.668  13.991  0.3613  1.8891 -1.9407
12472TIP3    H258832   5.483   0.532  13.952 -0.6157  0.0873  2.6831
12473TIP3   OH258833   5.257   3.026  12.503  0.2615 -0.3607 -0.3429
12473TIP3    H158834   5.216   3.112  12.509  1.3422  0.2699 -1.8434
12473TIP3    H258835   5.298   3.014  12.589  1.2828  1.2343 -0.5784
12474TIP3   OH258836   3.131   5.787  11.292 -0.7439 -0.6300  0.1999
12474TIP3    H158837   3.206   5.768  11.235 -1.4187 -1.0847 -0.5351
12474TIP3    H258838   3.168   5.842  11.361  0.3376 -1.1009  0.0105
12475TIP3   OH258839   3.853   2.818  12.361  0.5270  0.7423 -0.1182
12475TIP3    H158840   3.851   2.913  12.374 -0.5603  0.4503  2.0696
12475TIP3    H258841   3.893   2.784  12.441 -5.1932 -1.0755  2.2005
12476TIP3   OH258842   2.922   3.405   0.559  0.5013  0.3702  0.4761
12476TIP3    H158843   3.012   3.392   0.589  1.3082  2.5746 -0.8359
12476TIP3    H258844   2.880   3.452   0.630  0.7394  0.4278  0.5814
12477TIP3   OH258845   5.056   1.448   3.707  0.0043 -0.3639  0.7757
12477TIP3    H158846   5.004   1.377   3.744 -1.1875  0.0928  0.0273
12477TIP3    H258847   5.016   1.528   3.741 -1.1394  0.0705 -1.4528
12478TIP3   OH258848   4.876   1.400  11.575  0.1816 -0.0570  0.1808
12478TIP3    H158849   4.867   1.339  11.502  0.4208  1.1921 -0.9109
12478TIP3    H258850   4.799   1.456  11.569  0.9049  0.9384  0.0271
12479TIP3   OH258851   5.911   2.827  11.556 -0.9831 -0.6374 -0.0503
12479TIP3    H158852   5.850   2.816  11.629 -1.7701  0.4886 -0.5168
12479TIP3    H258853   5.947   2.915  11.568 -2.4456  0.2581 -1.9790
12480TIP3   OH258854   3.357   6.291  16.290  0.1203 -0.4263  0.0181
12480TIP3    H158855   3.291   6.304  16.358 -0.0863  1.1117 -0.4450
12480TIP3    H258856   3.424   6.236  16.331  0.7101  1.6455  1.9509
12481TIP3   OH258857   0.527   5.680   2.573  0.0471 -0.0189 -0.0159
12481TIP3    H158858   0.439   5.681   2.611  1.6029 -1.3495  3.9036
12481TIP3    H258859   0.568   5.759   2.608  1.1449 -0.6249  0.0628
12482TIP3   OH258860   5.066   2.538  13.968 -0.2536 -0.9617  0.1121
12482TIP3    H158861   5.034   2.546  14.059 -0.4913  0.7518 -0.1051
12482TIP3    H258862   4.986   2.522  13.917 -0.0085 -2.9634  0.2933
12483TIP3   OH258863   2.863   5.300   4.445 -0.4218 -0.2980  0.1405
12483TIP3    H158864   2.884   5.252   4.525  1.4734  0.1029 -0.1151
12483TIP3    H258865   2.855   5.391   4.473 -2.0917 -0.4489  0.2651
12484TIP3   OH258866   4.583   3.507   4.868 -0.5293  0.6630 -0.1272
12484TIP3    H158867   4.522   3.473   4.934 -0.5712  0.3285 -0.3376
12484TIP3    H258868   4.627   3.580   4.912  0.3925 -0.3748  0.7349
12485TIP3   OH258869   4.702   2.156   4.289  0.5624  0.0675 -0.4952
12485TIP3    H158870   4.727   2.125   4.376  1.8779 -0.2877 -0.9884
12485TIP3    H258871   4.606   2.160   4.292  0.7040  3.7531  2.2239
12486TIP3   OH258872   4.324   2.353  11.651 -0.1209 -0.1732  0.0353
12486TIP3    H158873   4.305   2.296  11.725  0.4564  1.6946  1.6903
12486TIP3    H258874   4.406   2.397  11.675 -2.2336  3.8345  0.4400
12487TIP3   OH258875   1.875   1.400   0.313  0.1576  0.6536 -0.2111
12487TIP3    H158876   1.827   1.440   0.241 -0.9433  2.0387  1.2573
12487TIP3    H258877   1.934   1.337   0.271 -0.8041  1.0928 -2.2608
12488TIP3   OH258878   1.261   2.731  17.226  0.2925  0.4642  0.0202
12488TIP3    H158879   1.277   2.661  17.289  1.5602  0.3689 -0.4027
12488TIP3    H258880   1.165   2.734  17.218  0.1728 -0.2931  1.0655
12489TIP3   OH258881   6.133   0.007  14.239  0.0284  0.2134  0.3223
12489TIP3    H158882   6.090  -0.023  14.159 -2.6944  0.2682  1.7149
12489TIP3    H258883   6.204  -0.056  14.253  0.1861 -0.1231 -1.8116
12490TIP3   OH258884   2.008   5.561   1.739  0.0749  0.3321 -0.0484
12490TIP3    H158885   1.972   5.495   1.799  1.4032 -1.8530 -1.5754
12490TIP3    H258886   1.988   5.645   1.781 -1.8002 -1.0117  1.8810
12491TIP3   OH258887   0.495   4.051  16.053  0.0087 -0.4651 -0.0620
12491TIP3    H158888   0.483   4.036  16.146 -0.9799  0.3218 -0.0585
12491TIP3    H258889   0.582   4.090  16.045 -0.3850  0.5523  0.6407
12492TIP3   OH258890   4.413   1.372   6.291  0.5921  0.0886 -0.2189
12492TIP3    H158891   4.495   1.420   6.283  0.0375  0.8476 -1.3314
12492TIP3    H258892   4.427   1.315   6.367  1.7302  1.0268  0.2947
12493TIP3   OH258893   1.860   2.660   1.835  0.3410 -0.0150  0.0150
12493TIP3    H158894   1.865   2.588   1.898 -0.8864  0.1825  0.3528
12493TIP3    H258895   1.869   2.618   1.750  0.1307 -0.5043  0.2322
12494TIP3   OH258896   1.587   6.578   4.550 -0.2983  1.1453 -0.1121
12494TIP3    H158897   1.510   6.545   4.503 -0.4959  1.6834 -0.1716
12494TIP3    H258898   1.586   6.673   4.534 -0.6460  1.4127  1.3745
12495TIP3   OH258899   5.169   1.094  17.148 -0.1202  0.2120 -0.0859
12495TIP3    H158900   5.122   1.112  17.066  0.2297  0.4641 -0.2334
12495TIP3    H258901   5.249   1.049  17.120 -0.2457 -0.1610  0.1567
12496TIP3   OH258902   1.349   1.417   1.739 -0.5067  0.2614  0.3543
12496TIP3    H158903   1.377   1.507   1.754 -2.0940  0.8935 -0.4342
12496TIP3    H258904   1.404   1.365   1.799  2.4826  1.4166 -1.2765
12497TIP3   OH258905   3.004   5.838   2.623  0.3993  0.5200 -0.2435
12497TIP3    H158906   2.990   5.892   2.701  1.2275  2.1226 -1.1691
12497TIP3    H258907   3.019   5.750   2.657 -0.6846  0.9154  1.3274
12498TIP3   OH258908   2.111   3.463  11.575 -0.5679 -0.6163 -0.1070
12498TIP3    H158909   2.194   3.433  11.539  0.5247  2.3593 -0.2011
12498TIP3    H258910   2.072   3.516  11.506 -0.4152  1.6617  1.4821
12499TIP3   OH258911   2.430   2.118  11.079 -0.1236  0.1465  0.0841
12499TIP3    H158912   2.376   2.081  11.009  0.0256  1.0586 -0.5368
12499TIP3    H258913   2.493   2.174  11.032  0.8495 -0.2939  0.8569
12500TIP3   OH258914   2.936   1.712   1.395 -0.0758 -0.3313 -0.1068
12500TIP3    H158915   3.009   1.710   1.457  0.0964 -1.5726 -0.3453
12500TIP3    H258916   2.974   1.681   1.312 -0.3497  1.1232 -0.7967
12501TIP3   OH258917   5.614   0.334   4.133  0.1336 -0.5298 -0.8010
12501TIP3    H158918   5.568   0.361   4.213 -0.0588 -0.8057 -0.8181
12501TIP3    H258919   5.624   0.415   4.083  2.6934  0.1617  0.7359
12502TIP3   OH258920   4.301   3.389   0.770  0.3967 -0.7222  0.1704
12502TIP3    H158921   4.343   3.340   0.700 -0.8309  0.4374 -1.4227
12502TIP3    H258922   4.228   3.334   0.799  1.0151 -1.2817  0.6638
12503TIP3   OH258923   4.900   4.751   5.057 -0.2860  0.0010  0.3539
12503TIP3    H158924   4.876   4.841   5.036 -1.5326 -0.1472  1.0584
12503TIP3    H258925   4.892   4.746   5.152  1.9387 -0.2607  0.5510
12504TIP3   OH258926   5.114   5.909  12.914  0.2252  0.2201  0.5212
12504TIP3    H158927   5.064   5.931  12.835  1.1320 -1.9401 -0.7164
12504TIP3    H258928   5.085   5.821  12.937  0.8374  0.3679  1.9170
12505TIP3   OH258929   0.906   6.131  10.956  0.4307 -0.5513  0.1207
12505TIP3    H158930   0.877   6.065  10.893  0.0769 -0.0835 -0.2135
12505TIP3    H258931   0.900   6.214  10.908  2.2779 -0.4315  0.0508
12506TIP3   OH258932   3.760   5.532   0.549  0.1868 -0.3034  0.2666
12506TIP3    H158933   3.745   5.512   0.457  1.3599 -1.7216  0.3572
12506TIP3    H258934   3.678   5.509   0.593 -0.4426  0.5703 -0.4407
12507TIP3   OH258935   5.477   0.847   2.177  0.5867 -0.5032 -0.4949
12507TIP3    H158936   5.436   0.868   2.261  0.6137  0.7385 -0.7813
12507TIP3    H258937   5.489   0.752   2.179 -0.3484 -0.6084  0.4801
12508TIP3   OH258938   4.457   3.646   4.494  0.0412 -0.0866  0.4127
12508TIP3    H158939   4.528   3.634   4.556  1.5127 -1.8759 -1.5812
12508TIP3    H258940   4.460   3.569   4.438 -3.6193 -0.3280  0.4056
12509TIP3   OH258941   2.400   4.175   2.632 -0.0904 -0.4112  0.1081
12509TIP3    H158942   2.392   4.160   2.537  2.5425  1.2134 -0.4333
12509TIP3    H258943   2.318   4.217   2.657 -1.2193 -1.7765 -1.2708
12510TIP3   OH258944   5.442   4.043  16.917  0.4552 -0.0884  0.0267
12510TIP3    H158945   5.352   4.071  16.907  0.2529 -1.2053 -1.3847
12510TIP3    H258946   5.494   4.121  16.900 -0.2192  0.4066  0.2142
12511TIP3   OH258947   1.614   0.501  16.930  0.6963  0.8538 -0.6537
12511TIP3    H158948   1.708   0.484  16.936  0.3809 -0.9220 -0.4482
12511TIP3    H258949   1.583   0.442  16.862 -0.2596  1.5363 -0.8299
12512TIP3   OH258950   4.816   3.661  12.362 -0.0113 -0.4316  0.6677
12512TIP3    H158951   4.724   3.645  12.383 -0.0726  0.4703  1.1207
12512TIP3    H258952   4.842   3.587  12.307 -1.7907  0.6751 -1.7375
12513TIP3   OH258953   6.294   2.806  15.758  0.4582  0.6380 -0.2664
12513TIP3    H158954   6.320   2.786  15.669  1.5111 -0.5752  0.3041
12513TIP3    H258955   6.337   2.740  15.812 -3.1187 -0.9356  0.8046
12514TIP3   OH258956   2.172   5.660  12.142 -0.3527 -0.0563 -0.3140
12514TIP3    H158957   2.203   5.586  12.090  1.4862 -0.4417  1.2550
12514TIP3    H258958   2.250   5.689  12.190 -2.0757  0.0274  2.5146
12515TIP3   OH258959   2.523   2.999  15.903  0.0986 -0.1541  0.1890
12515TIP3    H158960   2.577   3.047  15.966  0.6991 -0.2395 -0.2514
12515TIP3    H258961   2.585   2.940  15.859 -0.4531 -0.6163  0.0346
12516TIP3   OH258962   1.111   1.990  11.569  0.2900  0.6592 -0.0659
12516TIP3    H158963   1.192   2.032  11.538  0.5881 -1.0808 -1.7585
12516TIP3    H258964   1.043   2.055  11.551  1.3101  2.2486  1.6029
12517TIP3   OH258965   3.213   4.146  13.298 -0.5004  0.1771  0.0328
12517TIP3    H158966   3.190   4.089  13.225  0.3387  0.1864 -0.2429
12517TIP3    H258967   3.129   4.176  13.332 -0.9378 -0.9095 -0.0637
12518TIP3   OH258968   5.936   4.123   2.016  0.0950  0.0581 -0.7745
12518TIP3    H158969   5.919   4.094   2.106 -0.9588  0.8574 -0.7039
12518TIP3    H258970   6.014   4.075   1.990  1.1155  0.6991  0.9966
12519TIP3   OH258971   6.686   4.237  14.460  0.5174  0.1423 -0.0832
12519TIP3    H158972   6.771   4.195  14.450  0.0519 -1.0898  0.9726
12519TIP3    H258973   6.695   4.291  14.539  0.7187  1.0746 -0.7273
12520TIP3   OH258974   2.441   4.114  12.351  0.5927  0.2616  0.2539
12520TIP3    H158975   2.351   4.097  12.378  0.7021  0.8151  0.9714
12520TIP3    H258976   2.456   4.053  12.278 -0.1700 -0.2294  0.5025
12521TIP3   OH258977   1.710   0.782  12.811  0.3295  0.1248 -0.0660
12521TIP3    H158978   1.742   0.848  12.750 -1.7911  0.0211 -1.3281
12521TIP3    H258979   1.655   0.725  12.758 -0.6327 -0.6393  1.7173
12522TIP3   OH258980   5.226   5.252  15.098 -0.5094  0.4556  0.2891
12522TIP3    H158981   5.308   5.261  15.147 -0.1454  0.6956 -0.3535
12522TIP3    H258982   5.252   5.210  15.016 -0.9533  0.9849 -0.1245
12523TIP3   OH258983   1.523   6.476  12.080 -0.2984  0.2819  0.2531
12523TIP3    H158984   1.489   6.496  11.993  0.5016 -0.4988 -0.2370
12523TIP3    H258985   1.613   6.508  12.079 -0.9455  2.3158  1.5448
12524TIP3   OH258986   6.612   4.678  13.698  0.1733 -0.6860  0.4071
12524TIP3    H158987   6.534   4.670  13.752  0.3215 -0.2572  0.6927
12524TIP3    H258988   6.615   4.597  13.647 -1.6599  0.2063 -1.1984
12525TIP3   OH258989   4.090   3.821  11.680 -0.4160 -0.0679  0.3292
12525TIP3    H158990   4.047   3.873  11.749 -1.5651  0.7145 -0.9361
12525TIP3    H258991   4.153   3.882  11.641  0.0494 -0.4246  0.5353
12526TIP3   OH258992   6.641   2.892   4.782  0.1140 -0.4340 -0.3797
12526TIP3    H158993   6.674   2.946   4.854 -0.4204 -0.8037  0.1497
12526TIP3    H258994   6.715   2.883   4.723 -0.1616  2.0115 -1.1579
12527TIP3   OH258995   1.690   2.114   4.418 -0.0345  0.2159  0.2085
12527TIP3    H158996   1.775   2.096   4.458  0.1603 -0.3571 -0.4596
12527TIP3    H258997   1.672   2.205   4.442  0.9545  0.4725  0.0283
12528TIP3   OH258998   5.457   3.521  13.780  0.2069 -0.1671 -0.8309
12528TIP3    H158999   5.378   3.470  13.792 -0.9950  1.1980 -2.6329
12528TIP3    H259000   5.437   3.579  13.707  2.4612  1.0222 -0.5507
12529TIP3   OH259001   0.623   0.371  12.610 -0.0224  0.4550  0.3953
12529TIP3    H159002   0.591   0.432  12.544 -0.1084  0.0811  0.0900
12529TIP3    H259003   0.687   0.317  12.565 -1.8300 -1.3925 -0.0334
12530TIP3   OH259004   1.173   3.281  16.547  0.3326 -0.7622 -0.2880
12530TIP3    H159005   1.245   3.345  16.541 -0.6417  0.3806 -0.1074
12530TIP3    H259006   1.117   3.302  16.472 -0.1118 -1.2661 -0.0959
12531TIP3   OH259007   1.860   6.041   4.666  0.0010 -0.4599  0.2697
12531TIP3    H159008   1.940   5.989   4.659 -1.2552 -2.3735 -0.2600
12531TIP3    H259009   1.848   6.056   4.759  0.0253 -1.6735  0.4635
12532TIP3   OH259010   1.660   0.665   2.302 -0.1061  0.2300 -0.2948
12532TIP3    H159011   1.721   0.609   2.351  0.5063 -0.2937 -1.6041
12532TIP3    H259012   1.711   0.743   2.281 -0.9129  1.2176  1.3932
12533TIP3   OH259013   0.982   6.100  14.816 -0.4196  0.3735  0.1132
12533TIP3    H159014   1.045   6.129  14.882 -0.6604  1.0374  0.0543
12533TIP3    H259015   0.921   6.044  14.864  1.8514 -2.6719 -0.3701
12534TIP3   OH259016   4.329   5.513   3.118  0.0871  0.1561  0.2525
12534TIP3    H159017   4.251   5.565   3.138  0.1698  0.5842 -0.5469
12534TIP3    H259018   4.327   5.442   3.183 -1.9086 -0.8235 -0.8087
12535TIP3   OH259019   3.444   6.203  13.954 -0.2346 -0.3016  0.2129
12535TIP3    H159020   3.413   6.224  13.866 -1.6543  0.7948  0.9463
12535TIP3    H259021   3.459   6.288  13.996 -0.4707 -0.7925  1.3332
12536TIP3   OH259022   4.066   0.217  16.218 -0.2598  0.3800  0.0018
12536TIP3    H159023   3.981   0.173  16.222 -0.7004  1.1329 -0.8736
12536TIP3    H259024   4.091   0.230  16.310 -2.1240  2.1094  0.2944
12537TIP3   OH259025   0.191   4.446   5.169  0.7141 -0.0907 -0.1083
12537TIP3    H159026   0.172   4.513   5.235  1.3420  0.6060 -0.6352
12537TIP3    H259027   0.272   4.405   5.201  0.8118 -0.0054 -0.2465
12538TIP3   OH259028   5.133   5.083   3.590  0.1628  0.1898  1.1154
12538TIP3    H159029   5.145   4.989   3.572 -0.5206  0.0392  1.4227
12538TIP3    H259030   5.151   5.091   3.684 -3.2822 -0.2581  1.8763
12539TIP3   OH259031   0.902   0.957  12.907  0.7133  0.1732 -0.0410
12539TIP3    H159032   0.967   0.889  12.923  0.7580  0.0569 -0.6754
12539TIP3    H259033   0.838   0.915  12.848  0.7037  0.6530 -0.3723
12540TIP3   OH259034   3.740   2.353   3.553  0.4954  0.2744 -0.7808
12540TIP3    H159035   3.799   2.280   3.572  2.3720  1.5611 -1.5729
12540TIP3    H259036   3.704   2.377   3.639  1.3787 -0.3004 -0.2428
12541TIP3   OH259037   5.486   3.258   2.753  0.4876  0.0963  0.5628
12541TIP3    H159038   5.535   3.184   2.787 -0.9655 -0.1210  2.2574
12541TIP3    H259039   5.398   3.224   2.738  0.8071  0.4452 -2.5642
12542TIP3   OH259040   4.946   2.748   3.942 -0.6258  0.7071  0.2376
12542TIP3    H159041   4.897   2.825   3.968  0.2675  1.6602 -0.8750
12542TIP3    H259042   5.038   2.771   3.956 -0.3457 -0.1350 -0.1561
12543TIP3   OH259043   0.419   2.870   6.379 -0.2352  0.2979 -0.6507
12543TIP3    H159044   0.408   2.819   6.298 -0.3008  1.3194 -1.3055
12543TIP3    H259045   0.330   2.897   6.402 -0.1532  0.5232 -0.5918
12544TIP3   OH259046   0.414   2.959  11.756  0.7732  0.1448 -0.1299
12544TIP3    H159047   0.441   2.989  11.843 -0.1766  0.6052  0.0045
12544TIP3    H259048   0.479   2.892  11.733  0.6012 -0.5172  1.2490
12545TIP3   OH259049   0.817   1.521   0.341 -0.4553  0.1684 -0.3811
12545TIP3    H159050   0.840   1.435   0.377 -0.6019  0.2661 -0.0541
12545TIP3    H259051   0.901   1.565   0.329 -0.5170  1.0424  2.0941
12546TIP3   OH259052   3.389   0.971   2.321 -0.0707 -0.5386 -0.0352
12546TIP3    H159053   3.456   0.912   2.288  0.0959 -1.7420  2.3878
12546TIP3    H259054   3.435   1.053   2.338  0.9758 -1.6029  2.3840
12547TIP3   OH259055   0.112   3.695  15.250  0.4548  0.0018  0.2268
12547TIP3    H159056   0.138   3.626  15.311 -0.3182 -0.2745  0.2563
12547TIP3    H259057   0.078   3.765  15.307  1.0717  0.3378  0.1873
12548TIP3   OH259058   6.121   0.545  10.649 -0.0751 -0.4505 -0.0677
12548TIP3    H159059   6.197   0.524  10.595  0.4735 -1.3301  1.0319
12548TIP3    H259060   6.140   0.630  10.687 -0.6197  0.3411 -1.5172
12549TIP3   OH259061   1.094   4.483   4.912 -0.4014 -0.3923  0.3229
12549TIP3    H159062   1.116   4.515   4.824 -1.1810 -0.9432 -0.0765
12549TIP3    H259063   1.173   4.436   4.940 -1.7226 -4.1581 -1.9570
12550TIP3   OH259064   0.798   5.384   5.952  0.2404 -0.6934  0.4337
12550TIP3    H159065   0.867   5.449   5.953 -0.2503 -0.1923  1.6388
12550TIP3    H259066   0.728   5.422   6.005 -1.2278 -0.9014 -1.3216
12551TIP3   OH259067   2.813   5.116   5.229 -0.1563  0.7293  0.4193
12551TIP3    H159068   2.776   5.154   5.150 -0.3565 -1.6676 -0.6972
12551TIP3    H259069   2.836   5.191   5.284 -3.3951  2.3572 -0.3281
12552TIP3   OH259070   2.976   0.883  11.822 -0.2134  0.6735 -0.1747
12552TIP3    H159071   3.062   0.848  11.847  0.2249  0.3821 -2.0099
12552TIP3    H259072   2.925   0.806  11.798 -1.2861  0.7743  1.7094
12553TIP3   OH259073   0.725   0.358  13.182  0.5075  0.3044  0.1871
12553TIP3    H159074   0.735   0.402  13.097 -0.5503 -0.5891 -0.4268
12553TIP3    H259075   0.808   0.372  13.227  0.7823  1.5013 -0.6667
12554TIP3   OH259076   5.923   0.452  11.935 -0.4516  0.1704  0.1801
12554TIP3    H159077   5.883   0.377  11.890 -2.1765  0.9265  0.4062
12554TIP3    H259078   6.014   0.452  11.906 -0.7921 -1.1644 -0.9358
12555TIP3   OH259079   6.692   4.060   3.991  0.8662 -0.0742  0.0562
12555TIP3    H159080   6.696   4.003   3.914  0.5535 -0.0917  0.0537
12555TIP3    H259081   6.778   4.101   3.994  2.1580 -2.7987  1.7826
12556TIP3   OH259082   4.687   5.816   0.567  0.3367  0.2180 -0.3977
12556TIP3    H159083   4.622   5.753   0.536  0.1247  1.8001 -3.3720
12556TIP3    H259084   4.690   5.883   0.499  3.5760  1.2691  0.6614
12557TIP3   OH259085   1.274   5.977  12.976  0.1492  0.4686  0.0138
12557TIP3    H159086   1.277   5.979  12.880  0.7253 -2.5871 -0.0882
12557TIP3    H259087   1.366   5.978  13.002  0.0424 -0.3760  0.4456
12558TIP3   OH259088   4.609   1.999   3.598 -0.1615 -0.0790  0.1721
12558TIP3    H159089   4.689   2.031   3.641 -0.6236 -0.0730  1.0241
12558TIP3    H259090   4.588   2.067   3.533 -0.6514  0.9340  1.3771
12559TIP3   OH259091   1.278   6.763   1.541 -0.3490 -0.0631 -0.1557
12559TIP3    H159092   1.248   6.797   1.626 -2.0170  1.3662 -1.2998
12559TIP3    H259093   1.297   6.670   1.558 -0.9825  0.1259  1.6980
12560TIP3   OH259094   2.122   2.653   4.565  0.0302 -0.0772  0.0720
12560TIP3    H159095   2.196   2.593   4.577  0.1229 -0.3752 -1.7630
12560TIP3    H259096   2.136   2.690   4.478 -1.8595  0.0542 -0.1983
12561TIP3   OH259097   5.794   6.149  10.867 -0.1871  0.8364  0.4821
12561TIP3    H159098   5.699   6.149  10.855 -0.3543  0.4842  1.7491
12561TIP3    H259099   5.813   6.235  10.904 -0.0234  0.8720  0.3128
12562TIP3   OH259100   2.070   3.027   1.629  0.2599  0.1788 -0.0923
12562TIP3    H159101   2.008   2.997   1.562 -0.4979  1.3256  0.0650
12562TIP3    H259102   2.113   2.948   1.660 -1.2021 -0.6597 -0.1516
12563TIP3   OH259103   0.189   0.040   2.002 -0.3982 -0.0928  0.0427
12563TIP3    H159104   0.240   0.113   1.966  1.5607 -1.1565  0.5754
12563TIP3    H259105   0.247   0.001   2.067 -0.2585 -3.9042 -2.2627
12564TIP3   OH259106   0.082   6.215   0.392  0.2468 -0.1822  0.0549
12564TIP3    H159107  -0.004   6.174   0.396  0.2461 -0.1749  0.1052
12564TIP3    H259108   0.138   6.160   0.447  0.3762 -0.4352 -0.3309
12565TIP3   OH259109   0.433   1.723  16.579 -0.0218 -0.6486  0.3393
12565TIP3    H159110   0.526   1.715  16.601  0.0427 -1.7945 -0.3014
12565TIP3    H259111   0.388   1.670  16.645 -0.0738 -1.5106 -0.3790
12566TIP3   OH259112   6.237   2.725   0.998 -0.6083 -0.0506 -0.6250
12566TIP3    H159113   6.202   2.779   0.928  3.1383 -0.0702 -2.6496
12566TIP3    H259114   6.251   2.785   1.071 -0.1242  0.9378 -1.5271
12567TIP3   OH259115   5.357   3.992  12.524 -0.1198  0.3654 -0.4201
12567TIP3    H159116   5.294   4.029  12.462  1.5526  0.4226 -2.1526
12567TIP3    H259117   5.427   4.058  12.529  1.4411 -1.1800 -1.2006
12568TIP3   OH259118   4.537   1.478   4.111  0.1810  0.0617  0.3489
12568TIP3    H159119   4.614   1.495   4.165 -0.0551  0.3687  0.5895
12568TIP3    H259120   4.531   1.554   4.053  0.3084 -0.1651  0.0329
12569TIP3   OH259121   5.939   5.502  12.114 -0.1464 -1.2236  0.5627
12569TIP3    H159122   6.031   5.528  12.115 -0.1667 -1.1504  1.0237
12569TIP3    H259123   5.901   5.551  12.187 -0.9433  0.1349 -0.7353
12570TIP3   OH259124   2.411   0.941   4.260  0.3966  0.3062 -0.0011
12570TIP3    H159125   2.374   1.010   4.205  1.7719  0.8456 -0.2692
12570TIP3    H259126   2.355   0.940   4.338  0.5238  1.9247  0.1330
12571TIP3   OH259127   1.889   3.676   0.429 -0.4967  0.0822 -0.3012
12571TIP3    H159128   1.804   3.721   0.433 -0.2123  0.5661  0.5352
12571TIP3    H259129   1.941   3.718   0.497  1.5365  2.0292 -2.9845
12572TIP3   OH259130   4.856   5.248  12.580  0.3311 -0.1438  0.4007
12572TIP3    H159131   4.877   5.163  12.619  0.1374 -1.0841 -1.4863
12572TIP3    H259132   4.760   5.250  12.580  0.3043 -0.6975 -1.1262
12573TIP3   OH259133   5.352   6.011  15.547 -0.4660  0.0393  0.1434
12573TIP3    H159134   5.344   6.106  15.547 -1.0979 -0.0087  0.6924
12573TIP3    H259135   5.429   5.994  15.603 -0.5004  0.2149  0.2446
12574TIP3   OH259136   2.182   6.463   0.017 -0.5067  0.4238  0.8357
12574TIP3    H159137   2.168   6.397  -0.051 -2.0419 -0.2093  1.7440
12574TIP3    H259138   2.114   6.446   0.082 -2.7629  4.6165 -0.2275
12575TIP3   OH259139   1.497   3.584  12.404 -0.1194 -0.1102  0.4574
12575TIP3    H159140   1.500   3.563  12.310 -3.8336 -2.0149  0.6853
12575TIP3    H259141   1.548   3.514  12.445  0.3929 -0.0263 -0.0248
12576TIP3   OH259142   6.041   2.899  15.829  0.3141  0.3737 -0.4405
12576TIP3    H159143   6.072   2.875  15.916 -0.7794  0.1227 -0.1180
12576TIP3    H259144   6.121   2.901  15.775  0.9281  0.0359  0.4399
12577TIP3   OH259145   0.109   3.403   4.654  0.0555 -0.4624  0.1585
12577TIP3    H159146   0.029   3.442   4.619 -0.0801  1.5877  2.6255
12577TIP3    H259147   0.109   3.313   4.619 -2.8483 -0.2185 -0.5930
12578TIP3   OH259148   4.291   5.851   3.778  0.3146  0.1638  0.7318
12578TIP3    H159149   4.326   5.923   3.831  1.2798  0.3656 -0.1577
12578TIP3    H259150   4.238   5.894   3.712  1.1938  0.0888 -0.0289
12579TIP3   OH259151   0.138   4.149   1.425  0.4453 -0.4692 -1.1842
12579TIP3    H159152   0.174   4.086   1.362 -1.5388 -2.1345 -0.6822
12579TIP3    H259153   0.056   4.178   1.386  1.5434  2.1804 -1.6096
12580TIP3   OH259154   4.075   6.171   5.412 -0.0172 -0.0036 -0.3364
12580TIP3    H159155   4.099   6.105   5.348 -1.8994  0.3215 -1.4415
12580TIP3    H259156   4.003   6.132   5.461 -0.5270  0.8504 -0.3812
12581TIP3   OH259157   1.930   1.100  13.773 -0.1237 -0.1721 -0.2862
12581TIP3    H159158   1.992   1.119  13.843 -0.9940 -0.5684  0.5983
12581TIP3    H259159   1.909   1.186  13.736 -0.1958  0.0981  0.3858
12582TIP3   OH259160   6.100   1.576   0.466  0.7131 -0.4391  0.5662
12582TIP3    H159161   6.160   1.515   0.508  0.9641 -1.1680 -0.8191
12582TIP3    H259162   6.155   1.629   0.409  0.4944  1.1019  1.7428
12583TIP3   OH259163   2.771   5.082  11.737 -0.4210  0.2463 -0.6691
12583TIP3    H159164   2.799   5.058  11.649  0.2993 -0.0601 -0.3611
12583TIP3    H259165   2.850   5.114  11.780  0.0935 -3.1622  1.0976
12584TIP3   OH259166   0.511   1.202   2.144  0.1782  0.4939  0.3085
12584TIP3    H159167   0.541   1.253   2.219  3.7568 -0.3352 -0.4953
12584TIP3    H259168   0.543   1.113   2.161  0.7215  0.2291 -2.0105
12585TIP3   OH259169   6.240   1.839   1.441  0.9408  0.3170  1.0847
12585TIP3    H159170   6.270   1.858   1.530 -0.4425 -0.7825  1.8142
12585TIP3    H259171   6.154   1.881   1.435  1.1799  0.6631  0.1661
12586TIP3   OH259172   4.018   2.141  16.170 -0.4792 -0.1597 -0.4833
12586TIP3    H159173   3.942   2.093  16.204  0.7296 -0.7345  1.4489
12586TIP3    H259174   4.091   2.080  16.176  0.3182  0.6461 -1.6046
12587TIP3   OH259175   5.435   6.731  16.150  0.6607 -0.2646  0.1406
12587TIP3    H159176   5.486   6.670  16.097  0.5157  0.4896 -0.8710
12587TIP3    H259177   5.480   6.731  16.235  1.5750 -0.5975 -0.3299
12588TIP3   OH259178   0.506   2.456  11.893  0.4855 -0.2251  0.5122
12588TIP3    H159179   0.449   2.400  11.840  0.4417 -0.1784  0.5095
12588TIP3    H259180   0.450   2.529  11.919  0.5840 -0.1063  0.3915
12589TIP3   OH259181   3.567   0.436   5.864 -0.5153 -0.0739 -0.1549
12589TIP3    H159182   3.512   0.468   5.792 -0.9214  0.9397  0.5969
12589TIP3    H259183   3.611   0.359   5.828 -0.3944  0.6709 -1.6366
12590TIP3   OH259184   6.505   5.981   4.093 -0.1630  0.0305  0.0234
12590TIP3    H159185   6.444   6.051   4.116 -0.5891 -0.2733 -0.1750
12590TIP3    H259186   6.556   6.017   4.021 -1.2239 -0.2992 -0.9230
12591TIP3   OH259187   4.984   4.246  15.351  0.1445  0.0622 -0.6815
12591TIP3    H159188   4.905   4.284  15.312  0.2612 -0.4375 -1.4223
12591TIP3    H259189   4.955   4.212  15.436 -0.5041 -0.3329 -1.0532
12592TIP3   OH259190   5.873   6.517  14.860  0.0332  0.1990  0.4364
12592TIP3    H159191   5.806   6.459  14.896  0.6466 -0.9855 -0.3022
12592TIP3    H259192   5.849   6.604  14.892 -0.4173 -0.5691  2.2403
12593TIP3   OH259193   1.336   1.142   4.284 -0.0016  0.3193  0.4178
12593TIP3    H159194   1.339   1.053   4.250  1.6024  1.0477 -1.4643
12593TIP3    H259195   1.366   1.135   4.374  2.7490 -0.7154 -0.5241
12594TIP3   OH259196   4.400   2.036   3.795 -0.0557  1.0028  0.3992
12594TIP3    H159197   4.471   1.977   3.771  0.5987  1.7561  0.4812
12594TIP3    H259198   4.353   1.991   3.865 -0.7876 -0.3336 -0.9353
12595TIP3   OH259199   6.486   5.851   4.561  0.9588  0.3595 -0.5586
12595TIP3    H159200   6.434   5.773   4.536  1.2734  0.3310 -1.1454
12595TIP3    H259201   6.433   5.925   4.531  0.8794  0.3559 -0.4264
12596TIP3   OH259202   6.117   3.028   4.940 -0.0269 -0.3728  0.5070
12596TIP3    H159203   6.165   3.026   5.022 -1.4273 -1.2207  1.3397
12596TIP3    H259204   6.047   3.091   4.955 -0.5992 -0.9143  0.1555
12597TIP3   OH259205   6.578   5.276  11.021 -0.3556 -0.0883 -0.1448
12597TIP3    H159206   6.652   5.327  10.990 -0.0064 -0.1842  0.5271
12597TIP3    H259207   6.606   5.185  11.010 -0.5819 -0.1290 -0.3896
12598TIP3   OH259208   0.154   4.259  11.248  0.4341  0.7884  0.1290
12598TIP3    H159209   0.078   4.247  11.305  0.5153 -0.6915 -0.0695
12598TIP3    H259210   0.128   4.329  11.188 -0.7467  0.3557  0.1254
12599TIP3   OH259211   0.909   3.056   0.955 -0.1525  0.0190 -0.6076
12599TIP3    H159212   0.916   3.120   1.026  1.2133  0.5980 -1.2419
12599TIP3    H259213   0.859   3.100   0.887 -2.2889 -0.8742  0.3429
12600TIP3   OH259214   4.880   5.902   2.696 -0.0471  0.0626 -0.2593
12600TIP3    H159215   4.816   5.913   2.627 -0.9116 -1.8447  0.2082
12600TIP3    H259216   4.937   5.979   2.688 -1.3277  0.8929 -1.7739
12601TIP3   OH259217   4.158   4.890   1.993 -0.2097 -0.1019 -0.7192
12601TIP3    H159218   4.200   4.902   2.079 -3.1604  0.1619  0.7527
12601TIP3    H259219   4.226   4.913   1.930  1.8933  0.1639  1.5576
12602TIP3   OH259220   1.440   0.904   1.020  0.3768 -0.2155  0.0917
12602TIP3    H159221   1.520   0.946   0.990 -1.1920  2.5933 -0.3180
12602TIP3    H259222   1.457   0.883   1.112  0.9422  2.0230  0.5295
12603TIP3   OH259223   0.161   5.318  16.440 -0.6019 -0.1542  0.2226
12603TIP3    H159224   0.104   5.341  16.367 -0.8703 -1.2806  0.0621
12603TIP3    H259225   0.238   5.278  16.399 -0.3238  0.0751  0.5120
12604TIP3   OH259226   5.093   0.168  14.079 -0.4445 -0.2810  0.2106
12604TIP3    H159227   5.013   0.155  14.130  0.2501  0.0856  1.4226
12604TIP3    H259228   5.081   0.252  14.036 -0.4155  0.1112  0.9611
12605TIP3   OH259229   0.994   3.910  11.481  0.5185 -0.0721  0.0106
12605TIP3    H159230   1.077   3.935  11.521  0.4479 -2.1190  1.5358
12605TIP3    H259231   0.930   3.915  11.553 -0.8958  2.3128 -1.3307
12606TIP3   OH259232   4.507   0.828   2.691 -0.2966  0.2917 -0.3949
12606TIP3    H159233   4.462   0.800   2.611  0.0110 -0.3131 -0.3652
12606TIP3    H259234   4.582   0.769   2.697 -1.4059 -0.9944  1.4114
12607TIP3   OH259235   5.401   5.055  11.586  0.4100 -0.4511  0.1575
12607TIP3    H159236   5.449   5.137  11.576 -0.3260 -0.1222 -0.7134
12607TIP3    H259237   5.458   4.989  11.546  1.1648 -0.4313  1.1798
12608TIP3   OH259238   2.257   4.614  10.939 -0.2800  0.7223 -0.2682
12608TIP3    H159239   2.297   4.646  10.858  0.7455 -1.5646 -0.7111
12608TIP3    H259240   2.291   4.525  10.948 -2.1163  0.1858  1.5326
12609TIP3   OH259241   3.378   0.724  16.218 -0.0711  0.0462  0.4660
12609TIP3    H159242   3.453   0.749  16.164  0.0909 -1.2592  0.0673
12609TIP3    H259243   3.305   0.774  16.182 -0.0567 -1.1258 -1.2741
12610TIP3   OH259244   3.292   3.584  10.642 -0.1264  0.1914 -0.3249
12610TIP3    H159245   3.336   3.662  10.608 -0.0024  0.4447  0.3849
12610TIP3    H259246   3.360   3.517  10.644  0.1390  0.4758  0.4147
12611TIP3   OH259247   0.943   5.710  11.103  0.6964 -0.2836 -0.0987
12611TIP3    H159248   1.004   5.648  11.143  2.4334  2.4081  1.5505
12611TIP3    H259249   0.976   5.722  11.014  1.1805 -0.6375  0.0294
12612TIP3   OH259250   3.831   5.695  13.911  0.0623 -0.7468  0.2575
12612TIP3    H159251   3.813   5.621  13.853  0.1964 -0.8365  0.3302
12612TIP3    H259252   3.917   5.727  13.884  0.2462 -0.9601  0.5855
12613TIP3   OH259253   3.705   0.761  17.000  0.1896  0.5126  0.1620
12613TIP3    H159254   3.693   0.700  17.072  2.3160  0.4086  0.4651
12613TIP3    H259255   3.710   0.847  17.042  1.5291  0.4420  0.1625
12614TIP3   OH259256   1.335   3.154   3.835  0.2555  0.0381  0.7687
12614TIP3    H159257   1.365   3.178   3.923  0.9210 -1.4207  0.9421
12614TIP3    H259258   1.411   3.115   3.793 -0.4017 -0.3637 -0.0514
12615TIP3   OH259259   2.343   5.855   1.959  0.4490 -0.3442  0.5426
12615TIP3    H159260   2.329   5.860   1.864  0.3789 -0.2442  0.5583
12615TIP3    H259261   2.377   5.766   1.973 -0.0960 -0.5659  0.4931
12616TIP3   OH259262   3.603   0.136   4.531  0.3084 -0.1946  0.9297
12616TIP3    H159263   3.553   0.206   4.488 -0.7509 -1.8033 -0.5508
12616TIP3    H259264   3.598   0.156   4.624 -2.0624  0.3749  0.7110
12617TIP3   OH259265   4.953   5.203   2.754 -0.2919  0.5931  0.0002
12617TIP3    H159266   5.011   5.130   2.733  0.7606  1.4242 -0.0505
12617TIP3    H259267   4.868   5.177   2.719  0.2123 -0.3415 -0.5505
12618TIP3   OH259268   5.070   1.896   4.935  0.0359  0.0500  0.0616
12618TIP3    H159269   5.055   1.990   4.943 -0.4243  0.0699 -0.9776
12618TIP3    H259270   4.983   1.857   4.946  0.4823 -0.3976  2.4021
12619TIP3   OH259271   2.022   4.083  14.208 -0.2858 -0.0681 -0.5393
12619TIP3    H159272   2.089   4.149  14.223  0.9633 -1.6959  1.3830
12619TIP3    H259273   2.070   4.008  14.172 -1.2930 -0.7257 -0.5281
12620TIP3   OH259274   5.843   6.135  10.315 -0.1744  0.1010 -0.0171
12620TIP3    H159275   5.751   6.133  10.341 -0.0269 -1.2531  0.4006
12620TIP3    H259276   5.883   6.060  10.359  0.9767  0.2494 -0.7831
12621TIP3   OH259277   0.051   6.005  10.777  0.1541 -0.1163  0.6249
12621TIP3    H159278  -0.007   6.074  10.810  0.2230  0.1424  0.2054
12621TIP3    H259279   0.101   6.047  10.708  0.2086 -0.5846  0.3771
12622TIP3   OH259280   3.443   6.434  14.702 -0.2153  0.3200  0.3943
12622TIP3    H159281   3.378   6.396  14.761 -0.6440  0.6431  0.1362
12622TIP3    H259282   3.511   6.469  14.761  0.2128 -0.8768  0.6253
12623TIP3   OH259283   1.477   3.452  14.990 -0.4063  0.3060 -0.5396
12623TIP3    H159284   1.563   3.491  15.006 -0.8262  1.1765 -0.3817
12623TIP3    H259285   1.447   3.495  14.909 -0.3223 -0.6210 -1.0643
12624TIP3   OH259286   6.006   5.320  13.796 -0.5998  0.3148  0.3347
12624TIP3    H159287   6.054   5.382  13.851 -0.8518 -1.0779  2.1978
12624TIP3    H259288   5.919   5.315  13.836  0.0776 -2.8672  1.5994
12625TIP3   OH259289   1.245   5.879   4.082  0.0741  0.2282  0.1821
12625TIP3    H159290   1.308   5.806   4.082 -1.8493 -1.4878 -1.8185
12625TIP3    H259291   1.286   5.947   4.029  1.1040 -0.0930  0.5558
12626TIP3   OH259292   5.625   4.366   5.315 -0.2750  0.1596 -0.2845
12626TIP3    H159293   5.542   4.324   5.339  0.1373 -0.2661  0.3961
12626TIP3    H259294   5.645   4.425   5.387 -0.0477  0.3654 -0.5109
12627TIP3   OH259295   2.299   3.766  11.550  0.5413  0.0128  0.0826
12627TIP3    H159296   2.281   3.702  11.620  0.2976 -0.7503 -0.6722
12627TIP3    H259297   2.305   3.714  11.470 -1.3704  1.1132 -0.8161
12628TIP3   OH259298   4.085   5.567   6.069 -0.2391  0.3534 -0.2419
12628TIP3    H159299   4.067   5.603   6.156 -0.0733  1.1806 -0.5439
12628TIP3    H259300   4.102   5.474   6.084 -0.7736  0.3797  0.5399
12629TIP3   OH259301   5.560   5.694  15.926 -0.0722  0.0453  0.4678
12629TIP3    H159302   5.639   5.652  15.891  1.0842  2.6641 -0.1610
12629TIP3    H259303   5.505   5.709  15.850 -1.1609 -1.6903  0.8964
12630TIP3   OH259304   4.360   2.075  15.727 -0.2876 -0.0057  0.9833
12630TIP3    H159305   4.361   2.089  15.633  1.2942  0.3958  1.0383
12630TIP3    H259306   4.285   2.125  15.758 -1.7662 -1.4256 -0.2356
12631TIP3   OH259307   5.334   4.782  12.204  0.0902 -0.3208  0.0823
12631TIP3    H159308   5.415   4.766  12.156  0.9620  1.0423  1.0653
12631TIP3    H259309   5.336   4.720  12.277 -0.2820 -1.0193 -0.4910
12632TIP3   OH259310   3.725   6.547   1.924 -0.5774 -0.3590 -0.2019
12632TIP3    H159311   3.673   6.571   1.847  0.4016  0.1807 -0.6967
12632TIP3    H259312   3.791   6.486   1.890  0.3933  0.5412  0.0472
12633TIP3   OH259313   2.852   6.155  13.515  0.5507  0.1441  0.6915
12633TIP3    H159314   2.930   6.155  13.570  1.9389  1.1745 -1.2300
12633TIP3    H259315   2.833   6.247  13.500  0.3629 -0.1233 -0.7753
12634TIP3   OH259316   1.471   2.919   5.764  0.1875  0.2840 -0.0087
12634TIP3    H159317   1.546   2.917   5.825 -0.3496  0.0017  0.6476
12634TIP3    H259318   1.431   3.005   5.779 -0.4329 -0.1083  0.6445
12635TIP3   OH259319   3.165   4.223   2.729 -0.5700 -0.6811 -0.2919
12635TIP3    H159320   3.202   4.273   2.656 -0.4880 -1.4360 -0.7631
12635TIP3    H259321   3.080   4.194   2.697  0.3557 -2.8483 -0.8961
12636TIP3   OH259322   0.451   5.821   2.867 -0.2690 -0.1750  0.5486
12636TIP3    H159323   0.492   5.736   2.885  1.2869  0.4713  0.0385
12636TIP3    H259324   0.412   5.810   2.780 -0.1989 -0.3994  0.5442
12637TIP3   OH259325   5.084   4.785   1.573  0.5306  0.1982  0.6507
12637TIP3    H159326   5.035   4.722   1.627 -0.4447 -0.2773 -0.7522
12637TIP3    H259327   5.019   4.850   1.547  0.5469 -0.5955 -1.4723
12638TIP3   OH259328   0.378   0.889   1.941 -0.0145  0.1319 -0.0839
12638TIP3    H159329   0.356   0.797   1.923 -0.1910  0.1602 -0.0145
12638TIP3    H259330   0.469   0.887   1.970  0.0059 -0.0126 -0.1576
12639TIP3   OH259331   1.468   5.837   2.197 -0.1264 -0.1427 -0.2942
12639TIP3    H159332   1.388   5.791   2.171 -0.4600 -0.0822  0.6317
12639TIP3    H259333   1.438   5.913   2.246  0.5384 -0.9094  1.3277
12640TIP3   OH259334   6.682   5.665  14.926  0.0360 -0.7839  0.0161
12640TIP3    H159335   6.649   5.749  14.894  0.0879 -0.4987  0.7049
12640TIP3    H259336   6.775   5.680  14.941 -0.1408 -0.6923  1.0338
12641TIP3   OH259337   6.081   1.520   3.909 -0.2974  0.5912  0.1394
12641TIP3    H159338   6.118   1.597   3.953  2.3032  0.7179 -2.1684
12641TIP3    H259339   6.121   1.446   3.954 -0.7540  0.6300  0.6154
12642TIP3   OH259340   5.627   3.239   1.190 -0.7634  0.5609  0.2767
12642TIP3    H159341   5.692   3.272   1.128 -1.5239  1.7590  0.1118
12642TIP3    H259342   5.543   3.266   1.154 -1.4774 -2.1195 -0.2059
12643TIP3   OH259343   3.742   4.456   0.230 -0.5414 -0.0612 -0.1627
12643TIP3    H159344   3.730   4.419   0.142 -1.7141  2.1534 -0.9914
12643TIP3    H259345   3.686   4.533   0.231 -1.3598 -0.6355  2.9342
12644TIP3   OH259346   1.087   3.835  14.421  1.0698 -0.1359 -0.3148
12644TIP3    H159347   1.091   3.891  14.343  0.3168  2.5693  1.5215
12644TIP3    H259348   0.994   3.820  14.435  1.1912 -0.4597  0.1649
12645TIP3   OH259349   0.456   1.139   4.744  0.2899 -0.0481  0.1394
12645TIP3    H159350   0.505   1.195   4.684 -1.2442  2.0338  0.7980
12645TIP3    H259351   0.501   1.147   4.827 -0.2464  0.6419  0.3658
12646TIP3   OH259352   5.466   0.360   5.521  0.3721  0.1081 -0.3318
12646TIP3    H159353   5.441   0.282   5.571 -0.7818  0.9297  0.3847
12646TIP3    H259354   5.528   0.327   5.456  0.7565 -1.2243  0.6805
12647TIP3   OH259355   5.202   1.940  15.317  0.2184  0.6020  0.2485
12647TIP3    H159356   5.124   1.976  15.358 -1.0061 -1.1094 -0.5198
12647TIP3    H259357   5.274   1.967  15.374 -1.3415 -1.0436  3.0632
12648TIP3   OH259358   2.218   0.272   5.105  0.1115 -0.2373 -0.6160
12648TIP3    H159359   2.279   0.201   5.127  0.0629  0.0952  0.6159
12648TIP3    H259360   2.261   0.320   5.034  1.6878  0.5274  0.8435
12649TIP3   OH259361   0.776   2.014  15.363  0.2913  0.4148 -0.1267
12649TIP3    H159362   0.758   1.948  15.429 -1.2899  0.0972 -0.8372
12649TIP3    H259363   0.868   2.001  15.339  0.6941  0.1352  1.5411
12650TIP3   OH259364   1.312   1.150   6.693  0.3711 -1.1754  0.3316
12650TIP3    H159365   1.369   1.073   6.687  0.9756 -0.8676  1.8378
12650TIP3    H259366   1.243   1.125   6.754  0.0940 -0.8129  0.1716
12651TIP3   OH259367   0.260   5.427  14.066 -0.1084 -1.0440 -0.3661
12651TIP3    H159368   0.245   5.521  14.057  0.5272 -0.9255 -0.2226
12651TIP3    H259369   0.188   5.386  14.018 -1.5032 -0.5152  1.2470
12652TIP3   OH259370   3.377   1.308  14.558 -0.4468 -0.1553  0.2485
12652TIP3    H159371   3.466   1.297  14.590  0.5741 -1.3855 -2.8188
12652TIP3    H259372   3.375   1.397  14.521 -0.2880 -0.3881 -0.3171
12653TIP3   OH259373   6.410   0.553   3.029 -0.4256  0.8672 -0.4547
12653TIP3    H159374   6.411   0.506   2.946 -1.0403 -0.0401  0.0437
12653TIP3    H259375   6.317   0.556   3.054 -0.2131  0.8908  0.3393
12654TIP3   OH259376   6.296   0.821   5.456 -0.4830  0.1018  0.2369
12654TIP3    H159377   6.388   0.805   5.480 -0.3079  1.1721  0.3041
12654TIP3    H259378   6.263   0.735   5.430  1.1879  0.0791 -1.9833
12655TIP3   OH259379   0.592   3.104  15.330 -0.1277 -0.0841 -0.5281
12655TIP3    H159380   0.654   3.046  15.285  0.4594 -0.5512  0.8497
12655TIP3    H259381   0.509   3.055  15.329  0.4552 -1.1647  0.9714
12656TIP3   OH259382   6.407   0.697   0.502  0.4883  0.1349 -0.2742
12656TIP3    H159383   6.415   0.726   0.593 -1.4633 -2.6612  0.8492
12656TIP3    H259384   6.490   0.653   0.484  0.5859  0.0269  0.4015
12657TIP3   OH259385   1.345   6.297   5.394 -0.2314  0.3469  0.1729
12657TIP3    H159386   1.384   6.359   5.456  3.1385  0.2741 -1.7739
12657TIP3    H259387   1.299   6.352   5.330  2.1019  0.8527 -1.1121
12658TIP3   OH259388   0.845   4.198   3.589  0.0100  0.3146  0.0115
12658TIP3    H159389   0.823   4.285   3.623 -1.5171 -0.3858  0.8755
12658TIP3    H259390   0.829   4.139   3.663  0.7327 -0.7429 -0.6660
12659TIP3   OH259391   3.672   0.534  14.443  0.1319  0.1069 -0.4580
12659TIP3    H159392   3.693   0.518  14.351 -2.1050  1.2043 -1.1986
12659TIP3    H259393   3.663   0.629  14.449  5.3055  0.5594  2.0758
12660TIP3   OH259394   5.169   2.804   2.470  0.2297 -0.4960 -0.5107
12660TIP3    H159395   5.173   2.895   2.501 -1.1020 -0.7231  0.3255
12660TIP3    H259396   5.250   2.793   2.420  0.6183  1.0153 -0.2418
12661TIP3   OH259397   6.212   2.284   3.645  0.5848 -0.2562 -0.9715
12661TIP3    H159398   6.290   2.234   3.620  0.2675 -0.5638 -1.3665
12661TIP3    H259399   6.150   2.267   3.574  0.2867  0.2751 -0.8368
12662TIP3   OH259400   3.230   0.424  12.685 -0.4862  0.0571  1.0130
12662TIP3    H159401   3.303   0.410  12.745 -0.5809  0.3056  1.1921
12662TIP3    H259402   3.268   0.469  12.610 -0.4249  0.0437  1.0365
12663TIP3   OH259403   4.016   2.891   0.606  0.3547 -0.0732 -0.2618
12663TIP3    H159404   4.092   2.902   0.549 -0.2347 -1.8571 -1.4294
12663TIP3    H259405   3.941   2.890   0.546 -0.4004 -0.4392  0.6841
12664TIP3   OH259406   6.633   4.554  14.319 -0.2362 -0.1838  0.0959
12664TIP3    H159407   6.549   4.569  14.275  0.7385 -1.1838 -2.1526
12664TIP3    H259408   6.637   4.459  14.332  1.0724 -0.2904 -0.9416
12665TIP3   OH259409   0.731   4.338  13.042 -0.3611  0.3206  0.0800
12665TIP3    H159410   0.768   4.368  12.959 -1.5602  1.0102 -0.2294
12665TIP3    H259411   0.688   4.416  13.078 -3.8940 -1.1003 -0.9163
12666TIP3   OH259412   3.766   0.994  13.062  0.4577  0.2497  0.7473
12666TIP3    H159413   3.821   0.925  13.100 -1.4918 -2.2134 -0.7265
12666TIP3    H259414   3.769   1.065  13.126  0.7913 -2.0484  3.3761
12667TIP3   OH259415   1.973   2.716  12.829  0.4074  0.0566  0.1046
12667TIP3    H159416   2.025   2.681  12.901  1.9370  1.4574 -0.2879
12667TIP3    H259417   2.028   2.785  12.790 -1.8765  1.8693 -0.0618
12668TIP3   OH259418   2.766   3.740  14.427  0.0063 -0.5216  0.2758
12668TIP3    H159419   2.716   3.678  14.480  0.2882 -0.7035  0.3282
12668TIP3    H259420   2.838   3.688  14.391 -0.1536 -0.3883 -0.2448
12669TIP3   OH259421   2.615   2.993  11.640  0.1488 -0.0444  0.0727
12669TIP3    H159422   2.645   3.068  11.588  1.7410 -0.7560 -0.0731
12669TIP3    H259423   2.660   2.918  11.601  0.2382 -0.7764  1.5731
12670TIP3   OH259424   0.713   4.515  14.308 -0.3795 -0.6087  0.5159
12670TIP3    H159425   0.714   4.601  14.351  1.0593 -0.6210  0.5224
12670TIP3    H259426   0.631   4.514  14.259 -0.9801  0.2912  1.4728
12671TIP3   OH259427   4.869   3.299   0.621 -0.0667 -0.0276  0.2190
12671TIP3    H159428   4.800   3.310   0.687  0.3896 -0.6034  0.7976
12671TIP3    H259429   4.865   3.206   0.598 -0.0727  0.1259 -0.3950
12672TIP3   OH259430   6.236   3.202  13.684 -0.2349 -0.1900  1.1252
12672TIP3    H159431   6.299   3.189  13.613 -0.2443  1.1356  0.8778
12672TIP3    H259432   6.191   3.117  13.691 -0.3820 -0.2779 -0.5871
12673TIP3   OH259433   4.048   6.205  11.405  0.0287 -1.1200  0.1764
12673TIP3    H159434   4.067   6.283  11.458 -1.7880  0.0463 -0.7970
12673TIP3    H259435   4.129   6.156  11.404  1.1007  0.5737  1.1706
12674TIP3   OH259436   5.506   1.665   0.810  0.0226  0.0267  0.3009
12674TIP3    H159437   5.458   1.638   0.888  1.4399  1.4943  1.7240
12674TIP3    H259438   5.481   1.756   0.795  0.5976  0.0921 -0.3247
12675TIP3   OH259439   6.096   5.442  17.209  0.6223  0.0171 -0.2736
12675TIP3    H159440   6.037   5.498  17.259  2.9303  2.2901  0.0081
12675TIP3    H259441   6.053   5.432  17.124 -1.2069 -0.2041  0.6547
12676TIP3   OH259442   5.032   0.185   4.155 -0.6019  0.4848 -0.0225
12676TIP3    H159443   5.001   0.117   4.096 -0.2773 -1.0775  1.5780
12676TIP3    H259444   4.961   0.250   4.156 -0.8088  0.3169 -1.7365
12677TIP3   OH259445   3.213   1.961  15.517 -0.5552  0.6494 -0.1328
12677TIP3    H159446   3.239   1.955  15.609 -0.5103 -1.1467 -0.2542
12677TIP3    H259447   3.143   1.897  15.507 -0.0614  0.3093 -1.5252
12678TIP3   OH259448   6.552   4.867   2.173 -0.3975  0.1356 -0.0257
12678TIP3    H159449   6.640   4.900   2.155 -0.1381 -1.0862 -1.1189
12678TIP3    H259450   6.560   4.824   2.258  0.4693 -1.3070 -0.8113
12679TIP3   OH259451   2.866   1.178   2.275 -0.3475 -0.6061 -0.3354
12679TIP3    H159452   2.919   1.177   2.196  2.1221  2.1836  1.2030
12679TIP3    H259453   2.832   1.268   2.280 -2.8690 -1.5507  0.2674
12680TIP3   OH259454   0.301   0.640   1.874  0.1450  0.3392 -0.4323
12680TIP3    H159455   0.214   0.600   1.864 -0.2134  0.9048  0.3262
12680TIP3    H259456   0.352   0.607   1.800 -0.7172 -0.0062 -0.8777
12681TIP3   OH259457   0.723   6.752   5.422 -0.3845  0.5084 -0.3745
12681TIP3    H159458   0.752   6.804   5.497 -0.1766 -0.4213  0.2011
12681TIP3    H259459   0.722   6.662   5.455 -1.0301  0.1834 -1.2678
12682TIP3   OH259460   0.730   5.545   1.087 -0.2221  0.3957  0.3419
12682TIP3    H159461   0.684   5.505   1.161  0.0645 -0.1316  0.2384
12682TIP3    H259462   0.823   5.542   1.113 -0.1897  0.8836  0.2815
12683TIP3   OH259463   5.291   4.820   3.635 -0.1425 -0.7891  0.2736
12683TIP3    H159464   5.356   4.750   3.633 -0.1194 -0.7368 -0.6127
12683TIP3    H259465   5.271   4.831   3.728  0.7928 -1.1023  0.5156
12684TIP3   OH259466   6.638   6.576  16.194 -0.4825  0.0482 -0.0521
12684TIP3    H159467   6.625   6.509  16.127  0.3752  0.7936 -0.9708
12684TIP3    H259468   6.550   6.593  16.228 -0.6368 -1.9186  0.5653
12685TIP3   OH259469   1.520   1.958   2.595  0.0923  0.1413  0.5472
12685TIP3    H159470   1.606   1.927   2.570  0.3421  0.6678  0.7398
12685TIP3    H259471   1.493   1.900   2.667  0.4146  0.1748  0.6918
12686TIP3   OH259472   1.922   2.664   0.256  0.1184 -0.1262 -0.0087
12686TIP3    H159473   1.857   2.700   0.196 -0.5576 -1.3549 -0.0248
12686TIP3    H259474   1.878   2.658   0.340  0.9744  1.3066  0.5708
12687TIP3   OH259475   2.245   2.843   4.745 -0.6306 -0.0380 -0.0079
12687TIP3    H159476   2.174   2.875   4.801 -0.5303 -0.0205  0.1100
12687TIP3    H259477   2.205   2.771   4.695 -1.1175  0.8924 -0.9772
12688TIP3   OH259478   6.149   1.286  13.694 -0.4426 -0.2153 -0.2840
12688TIP3    H159479   6.191   1.212  13.738  0.8890  1.3549  1.1636
12688TIP3    H259480   6.211   1.312  13.626 -1.2700 -0.9203 -1.3182
12689TIP3   OH259481   2.788   6.740  11.730  0.3765  0.4053 -0.4978
12689TIP3    H159482   2.781   6.660  11.783  2.0234 -0.0594 -0.9492
12689TIP3    H259483   2.882   6.749  11.712  0.0591  1.7001 -1.6014
12690TIP3   OH259484   3.958   2.141   0.939  0.1276 -0.3457  0.1977
12690TIP3    H159485   4.003   2.146   1.024  1.2766  0.0887 -0.4150
12690TIP3    H259486   4.005   2.204   0.884 -0.0738 -1.2302 -1.0062
12691TIP3   OH259487   2.960   6.270  11.759 -0.3060  0.3685 -0.5381
12691TIP3    H159488   3.030   6.221  11.717 -0.6426  0.2113 -0.9161
12691TIP3    H259489   2.959   6.238  11.850 -0.5943 -0.3933 -0.8094
12692TIP3   OH259490   1.023   5.809  16.799 -0.1123  0.3466 -0.7536
12692TIP3    H159491   1.070   5.731  16.771 -0.7977  0.8670 -3.5053
12692TIP3    H259492   1.089   5.879  16.801  0.1975  0.0408  0.2765
12693TIP3   OH259493   6.494   5.393   0.796  0.0936 -0.2661 -0.3630
12693TIP3    H159494   6.473   5.411   0.887  0.0765 -0.2789 -0.3644
12693TIP3    H259495   6.409   5.389   0.752 -0.0799 -3.0223  0.1176
12694TIP3   OH259496   6.645   2.893   1.482  0.6899  0.0640 -0.5933
12694TIP3    H159497   6.635   2.899   1.386 -1.1445 -1.1953 -0.5167
12694TIP3    H259498   6.671   2.802   1.497  0.0491  0.0017  0.1580
12695TIP3   OH259499   0.564   6.736  12.137  0.7996  0.2345  0.7789
12695TIP3    H159500   0.559   6.651  12.181  1.1337 -0.0806  0.2050
12695TIP3    H259501   0.488   6.785  12.171 -0.1880 -0.7806  0.0709
12696TIP3   OH259502   3.586   4.675   0.184 -0.6617 -0.1973 -0.0734
12696TIP3    H159503   3.528   4.718   0.121  0.8367  1.3973 -0.4173
12696TIP3    H259504   3.588   4.733   0.259  1.6106  0.5355 -0.6553
12697TIP3   OH259505   1.844   1.442  15.958 -0.2706 -0.0178  0.2173
12697TIP3    H159506   1.757   1.473  15.932 -0.3758 -0.8667 -0.4409
12697TIP3    H259507   1.898   1.455  15.881 -0.5127 -2.2650 -0.3641
12698TIP3   OH259508   3.942   0.482  16.861 -0.4655  0.1510  0.5459
12698TIP3    H159509   3.987   0.565  16.879  1.5588 -0.2971 -2.1622
12698TIP3    H259510   3.987   0.418  16.916  1.1601  0.0151 -0.8948
12699TIP3   OH259511   4.956   5.397   2.929  0.2368  0.1009  0.1397
12699TIP3    H159512   4.968   5.323   2.869 -1.1528 -0.5668  0.6536
12699TIP3    H259513   5.001   5.470   2.887  1.4399 -0.9855 -0.4802
12700TIP3   OH259514   5.562   5.292  13.297  0.0489  0.5455  0.1882
12700TIP3    H159515   5.548   5.200  13.274 -0.4465  0.2004  1.8721
12700TIP3    H259516   5.639   5.318  13.246  0.8409 -1.1081  0.5352
12701TIP3   OH259517   1.243   5.949  14.517 -0.0040 -0.6553 -0.3538
12701TIP3    H159518   1.336   5.938  14.495  0.3926 -1.7787  1.7040
12701TIP3    H259519   1.221   5.871  14.568 -1.0117  1.3573  2.4710
12702TIP3   OH259520   4.653   3.061   5.882  0.3293 -0.0873 -0.0618
12702TIP3    H159521   4.729   3.119   5.890  0.4173 -0.3581  1.2301
12702TIP3    H259522   4.583   3.117   5.849  1.1623  0.0989 -1.5482
12703TIP3   OH259523   1.612   0.035  14.986  0.0441 -0.6847 -0.0020
12703TIP3    H159524   1.603   0.012  14.893 -0.4039 -1.7777  0.3057
12703TIP3    H259525   1.699   0.075  14.992 -0.7571  1.3448 -1.2750
12704TIP3   OH259526   2.797   5.556   4.535  0.2837  0.1139 -0.1367
12704TIP3    H159527   2.850   5.633   4.554  0.8155  0.1554 -1.6799
12704TIP3    H259528   2.711   5.574   4.574  0.8877  0.7778  0.8987
12705TIP3   OH259529   2.552   3.821  15.796  0.1139 -0.8081  0.8343
12705TIP3    H159530   2.502   3.902  15.804 -0.1388 -0.8146 -0.5424
12705TIP3    H259531   2.639   3.844  15.827  0.1065  0.0542  0.2387
12706TIP3   OH259532   0.684   3.062   2.931 -0.5067 -0.0942 -0.2207
12706TIP3    H159533   0.691   3.103   2.845 -1.1614 -0.9746 -0.7073
12706TIP3    H259534   0.608   3.104   2.972 -1.2045 -0.8233 -0.7365
12707TIP3   OH259535   5.814   1.317  15.069  1.0694  0.3329 -0.1943
12707TIP3    H159536   5.892   1.326  15.125  0.6182 -1.9743  0.8655
12707TIP3    H259537   5.742   1.306  15.131  0.3043 -0.3205 -1.1916
12708TIP3   OH259538   2.493   0.212   5.421 -0.2156 -0.7545  0.1175
12708TIP3    H159539   2.442   0.132   5.433 -0.5860 -0.9292 -2.3978
12708TIP3    H259540   2.494   0.253   5.507 -2.3268 -2.0951  0.8133
12709TIP3   OH259541   6.472   0.140  13.716  0.3777 -0.3648 -0.1278
12709TIP3    H159542   6.519   0.217  13.747  0.5316  0.5753 -2.5123
12709TIP3    H259543   6.381   0.170  13.706  0.1524 -0.9019  0.2935
12710TIP3   OH259544   4.926   4.146   3.234 -0.2246  0.2593 -0.0303
12710TIP3    H159545   4.925   4.067   3.287 -0.3042 -0.5755 -1.2561
12710TIP3    H259546   4.874   4.209   3.283  1.5455  0.2082  1.9508
12711TIP3   OH259547   5.306   0.906   0.241  0.3983 -0.4984 -0.2798
12711TIP3    H159548   5.246   0.880   0.311 -0.7322 -3.3029 -2.1936
12711TIP3    H259549   5.268   0.986   0.205 -1.0865 -1.1092 -0.1174
12712TIP3   OH259550   5.992   5.187   1.234  0.2812  0.0022 -0.2338
12712TIP3    H159551   5.946   5.110   1.202  0.7410  0.0629 -1.0680
12712TIP3    H259552   6.011   5.168   1.326 -2.4192  0.4702  0.4469
12713TIP3   OH259553   0.630   5.600  13.799 -0.1751 -0.5315  0.0427
12713TIP3    H159554   0.546   5.643  13.814 -0.5017 -1.5640  1.2296
12713TIP3    H259555   0.691   5.646  13.858 -0.5970 -1.8850  1.5717
12714TIP3   OH259556   6.231   1.778  12.622  0.5103 -0.0277 -0.1610
12714TIP3    H159557   6.237   1.727  12.541  0.6206  1.0389 -0.8241
12714TIP3    H259558   6.159   1.737  12.670 -0.0720 -0.1865 -1.1472
12715TIP3   OH259559   4.122   4.112  11.784  0.0820 -0.2417 -0.1880
12715TIP3    H159560   4.098   4.192  11.830  0.2594  0.9734 -2.1444
12715TIP3    H259561   4.092   4.126  11.694  2.2462 -1.3802 -1.1367
12716TIP3   OH259562   0.975   6.655   2.655  0.1979 -0.2527 -0.0303
12716TIP3    H159563   0.938   6.580   2.609 -0.6242  0.2787 -0.2408
12716TIP3    H259564   0.961   6.729   2.597  0.8071  0.1146  0.2720
12717TIP3   OH259565   3.781   1.803   1.983  0.0073  0.2591  0.2353
12717TIP3    H159566   3.813   1.716   1.960  2.0681  1.6641 -2.4188
12717TIP3    H259567   3.688   1.801   1.961 -0.1194 -1.4756  0.8758
12718TIP3   OH259568   2.034   3.284   5.606  0.2763 -0.6695  0.0989
12718TIP3    H159569   2.115   3.261   5.560  0.9884 -1.0937  1.5156
12718TIP3    H259570   2.050   3.372   5.641 -0.2717 -0.3377 -0.4638
12719TIP3   OH259571   1.128   1.309  15.531  0.5712  0.1439  0.8320
12719TIP3    H159572   1.102   1.222  15.502  2.6112 -0.6083  1.1217
12719TIP3    H259573   1.193   1.337  15.466  1.8819  0.3032  2.1637
12720TIP3   OH259574   0.062   4.942   5.752  0.4981 -0.1338 -0.0442
12720TIP3    H159575   0.032   4.967   5.839  1.2421  0.8827 -0.0750
12720TIP3    H259576   0.100   4.855   5.765 -1.5007 -1.0095  0.1827
12721TIP3   OH259577   2.896   0.859  12.690 -0.4358  0.0898  0.0429
12721TIP3    H159578   2.845   0.779  12.703  0.0868 -0.3490 -0.5771
12721TIP3    H259579   2.918   0.888  12.778  2.8437 -2.6915  0.2247
12722TIP3   OH259580   2.403   5.718  11.188 -0.1447  0.2077 -0.5688
12722TIP3    H159581   2.390   5.630  11.155 -1.2314  0.9455 -2.1541
12722TIP3    H259582   2.343   5.725  11.263 -0.4424 -0.2132 -0.7647
12723TIP3   OH259583   2.984   3.527   4.757  0.0341  0.6054  0.3833
12723TIP3    H159584   2.907   3.504   4.705  1.9832 -1.2962 -1.8328
12723TIP3    H259585   3.007   3.615   4.728 -0.4305  0.5823 -0.0727
12724TIP3   OH259586   4.774   6.652   0.773 -0.5642 -0.2340 -1.2013
12724TIP3    H159587   4.797   6.656   0.866  0.3726 -1.2284 -1.3733
12724TIP3    H259588   4.742   6.739   0.753 -0.1574  0.1888 -0.0937
12725TIP3   OH259589   6.260   2.956   2.762 -0.1144 -0.1711 -0.0332
12725TIP3    H159590   6.266   3.021   2.692  1.1655  2.1712  2.2234
12725TIP3    H259591   6.168   2.926   2.758 -1.7061  4.2334  1.0400
12726TIP3   OH259592   1.027   3.927   5.396 -0.1676  0.4057 -0.1195
12726TIP3    H159593   1.097   3.980   5.356  0.3606  0.3078  0.6718
12726TIP3    H259594   1.010   3.970   5.480  2.2976 -2.3117  1.8699
12727TIP3   OH259595   5.650   0.292  13.514 -0.2094  0.6357  0.3986
12727TIP3    H159596   5.557   0.308  13.500 -0.5289 -0.1304  1.5680
12727TIP3    H259597   5.662   0.199  13.491  0.4238  0.9213 -0.4757
12728TIP3   OH259598   1.875   3.875  11.437  0.6167 -0.1208 -0.0313
12728TIP3    H159599   1.881   3.898  11.345  1.9498  1.0201  0.3310
12728TIP3    H259600   1.953   3.913  11.477 -0.2641 -0.0471  1.6808
12729TIP3   OH259601   6.386   5.281   5.683  0.3395 -0.2336  0.0142
12729TIP3    H159602   6.459   5.340   5.666 -0.9167  0.5683 -2.8958
12729TIP3    H259603   6.310   5.339   5.693 -0.4488 -1.2300 -0.1410
12730TIP3   OH259604   3.863   4.405  15.765  0.5423  0.4391  0.4013
12730TIP3    H159605   3.934   4.341  15.775 -0.3327 -0.3447  1.7639
12730TIP3    H259606   3.783   4.354  15.777 -0.2514  1.3614 -0.8618
12731TIP3   OH259607   2.228   5.027   0.852 -0.2300  0.0357 -0.0610
12731TIP3    H159608   2.269   5.046   0.936  0.7137 -1.8969 -0.0525
12731TIP3    H259609   2.210   4.933   0.854 -0.4448  0.0109 -1.9038
12732TIP3   OH259610   5.549   1.739  17.055 -0.4509  0.3014 -0.1633
12732TIP3    H159611   5.471   1.786  17.087 -1.3820 -1.4067  0.1674
12732TIP3    H259612   5.620   1.802  17.063 -1.5210  1.3937  1.0283
12733TIP3   OH259613   3.779   6.433  14.384 -0.2372  0.2142  0.0135
12733TIP3    H159614   3.723   6.471  14.452 -1.2335 -0.5621 -0.3559
12733TIP3    H259615   3.726   6.438  14.304  0.2490 -0.4557 -0.3542
12734TIP3   OH259616   5.460   2.354   0.818  0.3824 -0.1305  0.4217
12734TIP3    H159617   5.436   2.262   0.815  0.3000 -0.1069  0.3389
12734TIP3    H259618   5.398   2.393   0.880  1.0086 -0.3016  1.1571
12735TIP3   OH259619   3.202   0.541  14.554  0.1458 -0.8509 -0.4210
12735TIP3    H159620   3.218   0.577  14.641 -0.1079  1.0596 -1.1440
12735TIP3    H259621   3.289   0.519  14.521  0.1785 -2.3567  0.6216
12736TIP3   OH259622   3.063   3.254  10.984 -0.1373  0.3857 -0.1670
12736TIP3    H159623   3.054   3.188  10.915 -1.2056  1.5101 -1.1377
12736TIP3    H259624   3.155   3.277  10.985  0.0010 -0.1441 -0.7459
12737TIP3   OH259625   1.266   0.341   3.969 -0.4588 -0.3389 -0.0693
12737TIP3    H159626   1.182   0.387   3.972 -0.8045 -0.9565 -0.2019
12737TIP3    H259627   1.263   0.289   3.888 -1.2540 -2.8090  1.5073
12738TIP3   OH259628   2.521   1.474   0.140 -0.2429  0.0723  0.0295
12738TIP3    H159629   2.532   1.558   0.096  1.2192 -0.2278 -0.2180
12738TIP3    H259630   2.585   1.476   0.211 -0.7039 -0.5426  0.4636
12739TIP3   OH259631   0.307   4.932  15.394  0.7475 -0.1102 -0.9174
12739TIP3    H159632   0.347   4.893  15.472 -0.4504  0.7089  0.1284
12739TIP3    H259633   0.363   4.904  15.322  2.1410 -0.5071  0.2900
12740TIP3   OH259634   1.051   1.701   3.216  0.1164  0.0138 -0.6352
12740TIP3    H159635   1.027   1.790   3.242 -0.6908 -0.8546  1.7961
12740TIP3    H259636   1.118   1.675   3.279 -1.5961 -2.0212  0.4480
12741TIP3   OH259637   4.589   4.699   0.076 -0.1403 -0.4014  0.4325
12741TIP3    H159638   4.621   4.780   0.115  0.9860 -0.4697 -0.3375
12741TIP3    H259639   4.499   4.718   0.051 -0.3907  0.1105  1.7063
12742TIP3   OH259640   1.986   4.169   1.633  0.5469 -0.1566  0.2034
12742TIP3    H159641   1.964   4.234   1.567  0.2127 -0.4298  0.0485
12742TIP3    H259642   1.903   4.147   1.675  0.7733  0.1250  0.8158
12743TIP3   OH259643   0.422   3.690   4.326 -0.3018  0.6963 -0.3575
12743TIP3    H159644   0.350   3.650   4.373 -0.8771  2.4006  0.2515
12743TIP3    H259645   0.425   3.644   4.242 -0.6814 -0.8505  0.4567
12744TIP3   OH259646   4.303   3.848   1.913 -0.2941 -0.0388 -0.1869
12744TIP3    H159647   4.278   3.848   1.820 -0.0469 -1.5986 -0.2789
12744TIP3    H259648   4.242   3.786   1.954  2.3866 -2.8264 -0.1668
12745TIP3   OH259649   4.338   0.246  14.572 -0.4100 -0.4642  0.4141
12745TIP3    H159650   4.285   0.312  14.617 -1.4382 -1.8143  1.2315
12745TIP3    H259651   4.313   0.253  14.480 -0.3214  0.4550  0.4545
12746TIP3   OH259652   2.808   0.914   3.755 -0.0844  0.1211 -0.8087
12746TIP3    H159653   2.831   1.008   3.755 -0.4729  0.2217 -2.2316
12746TIP3    H259654   2.892   0.870   3.766 -0.1920  0.6542  3.2063
12747TIP3   OH259655   5.679   5.894  10.354  0.1453 -0.0191  0.3086
12747TIP3    H159656   5.750   5.891  10.418 -0.4143 -0.8584  0.8854
12747TIP3    H259657   5.624   5.967  10.383  1.3861  1.3936 -0.7997
12748TIP3   OH259658   2.676   5.599   0.494  0.7243  0.2834 -0.3644
12748TIP3    H159659   2.715   5.574   0.410 -1.8768 -1.3706 -1.0934
12748TIP3    H259660   2.600   5.652   0.471 -0.9969 -1.5862  0.8902
12749TIP3   OH259661   5.885   5.393   4.888  0.3424  0.6800 -0.2004
12749TIP3    H159662   5.830   5.339   4.945  0.5429  1.0061  0.3174
12749TIP3    H259663   5.943   5.439   4.949 -1.1677  3.0099 -0.4232
12750TIP3   OH259664   2.298   5.283  11.711  0.1584  0.4871  0.3642
12750TIP3    H159665   2.343   5.227  11.647 -0.3576 -0.4868  0.8326
12750TIP3    H259666   2.337   5.259  11.795 -3.3300 -2.6929  1.2320
12751TIP3   OH259667   3.470   5.799  13.839  0.6052 -0.3151  0.2456
12751TIP3    H159668   3.496   5.878  13.791  0.4383 -0.3209  0.1419
12751TIP3    H259669   3.519   5.803  13.921  2.1124 -1.1211 -0.5996
12752TIP3   OH259670   1.723   5.332   5.861 -0.4949 -1.4443  0.0640
12752TIP3    H159671   1.676   5.259   5.818  1.2506 -1.9687 -1.0221
12752TIP3    H259672   1.654   5.387   5.897 -1.8933 -3.0556 -0.0881
12753TIP3   OH259673   1.790   2.879  12.165  0.6255  0.3153  0.4663
12753TIP3    H159674   1.812   2.880  12.072  2.0375  0.4396  0.7975
12753TIP3    H259675   1.783   2.786  12.187 -0.8782  0.2927 -0.0171
12754TIP3   OH259676   2.497   5.067   5.581  0.0357 -0.1894  0.3066
12754TIP3    H159677   2.472   5.137   5.641 -2.0605 -1.5433  1.0469
12754TIP3    H259678   2.445   4.992   5.608  2.1258 -2.0228 -0.5696
12755TIP3   OH259679   3.045   1.456   2.678 -0.0471  0.4225  0.0371
12755TIP3    H159680   3.091   1.372   2.688 -3.4439 -1.6583 -0.9768
12755TIP3    H259681   3.102   1.508   2.621  1.3482 -1.8221 -0.6718
12756TIP3   OH259682   3.569   1.610  11.618  0.6526 -0.2840 -0.2835
12756TIP3    H159683   3.596   1.537  11.673  0.9458 -1.3833 -1.8633
12756TIP3    H259684   3.627   1.606  11.542 -0.8203  0.1969 -1.4639
12757TIP3   OH259685   5.601   5.771  13.296 -0.1761  0.7183  0.2676
12757TIP3    H159686   5.554   5.725  13.227  1.8103 -1.4370  0.2661
12757TIP3    H259687   5.577   5.726  13.377 -0.0656  1.2110  0.5809
12758TIP3   OH259688   0.692   1.729  16.637  0.1486  0.3003 -0.2076
12758TIP3    H159689   0.715   1.787  16.710  1.2928 -0.9634  0.4654
12758TIP3    H259690   0.766   1.737  16.576 -0.5297  0.9018 -0.9549
12759TIP3   OH259691   3.302   2.228  14.078  0.6884 -0.1960 -0.0428
12759TIP3    H159692   3.217   2.241  14.119 -0.7288 -1.4468 -2.4546
12759TIP3    H259693   3.328   2.140  14.104  0.2498 -0.6080 -0.9595
12760TIP3   OH259694   1.696   1.639  13.947 -0.0070 -0.0931  0.1618
12760TIP3    H159695   1.634   1.635  14.019  0.5974  0.7081  0.7399
12760TIP3    H259696   1.647   1.676  13.874  0.4210  2.9443  1.3280
12761TIP3   OH259697   6.210   5.365  11.557 -0.3264 -0.0912 -0.3530
12761TIP3    H159698   6.186   5.359  11.465  0.0805 -1.7216 -0.3683
12761TIP3    H259699   6.163   5.293  11.599 -0.3415  0.5106  0.6870
12762TIP3   OH259700   4.451   3.315  11.805  0.6475  0.3902 -0.8823
12762TIP3    H159701   4.542   3.316  11.834 -0.2203 -1.0882  2.1756
12762TIP3    H259702   4.453   3.276  11.718  2.6868 -1.8740  0.1383
12763TIP3   OH259703   1.617   2.753  11.833  0.2869 -0.1131  0.5619
12763TIP3    H159704   1.694   2.762  11.890  0.8082  0.0294 -0.1495
12763TIP3    H259705   1.596   2.843  11.807 -0.4355 -0.1061  1.1565
12764TIP3   OH259706   0.544   2.587  12.253 -0.9454 -0.4646 -0.3317
12764TIP3    H159707   0.488   2.511  12.266 -1.3146  0.1572  1.8690
12764TIP3    H259708   0.546   2.631  12.338  0.3876  1.2219 -1.1926
12765TIP3   OH259709   3.644   1.086   1.285  0.6637  0.3707 -0.1694
12765TIP3    H159710   3.699   1.086   1.206  1.0135  0.5015  0.0766
12765TIP3    H259711   3.696   1.042   1.351 -0.4570 -1.6394 -0.5786
12766TIP3   OH259712   2.635   2.007  15.205 -0.2018  0.3955 -0.2970
12766TIP3    H159713   2.613   2.098  15.226  0.4001  0.5192 -0.1924
12766TIP3    H259714   2.617   1.999  15.111 -0.3542  0.5951 -0.2853
12767TIP3   OH259715   5.886   3.258   0.061  0.0875 -0.1509  0.0404
12767TIP3    H159716   5.808   3.247   0.007  0.5650 -0.4401 -0.5930
12767TIP3    H259717   5.882   3.350   0.089  0.1922  0.2010 -1.0510
12768TIP3   OH259718   1.008   0.515   2.572  0.1567 -0.4370  0.1721
12768TIP3    H159719   0.952   0.460   2.516  1.4741 -0.9259 -0.6844
12768TIP3    H259720   1.038   0.456   2.641 -1.1714  0.0776  1.2331
12769TIP3   OH259721   4.981   0.781   1.361 -0.3535 -0.1043 -0.2753
12769TIP3    H159722   5.009   0.721   1.431 -0.3957  0.1838 -0.0115
12769TIP3    H259723   4.923   0.843   1.404  2.5553  2.4006  0.2462
12770TIP3   OH259724   1.659   5.667   5.527 -0.6191  0.0838 -0.6560
12770TIP3    H159725   1.755   5.662   5.520 -0.7106 -2.4444 -0.5000
12770TIP3    H259726   1.644   5.734   5.594  1.0491  0.3930 -0.5530
12771TIP3   OH259727   1.463   2.751  15.214 -0.8195  0.0817  0.0268
12771TIP3    H159728   1.376   2.723  15.241 -1.0823  1.0509  0.2055
12771TIP3    H259729   1.457   2.846  15.209  0.1356  0.1291 -0.2880
12772TIP3   OH259730   0.402   0.022  13.730  0.2969 -0.2154 -0.5533
12772TIP3    H159731   0.495   0.015  13.751  0.1590  0.9621  0.5429
12772TIP3    H259732   0.400   0.055  13.640  0.9307 -0.8411 -0.7997
12773TIP3   OH259733   6.488   0.773  15.039 -0.1114  0.2449  0.0344
12773TIP3    H159734   6.510   0.709  15.107  0.8428  0.7625  0.2259
12773TIP3    H259735   6.420   0.730  14.987  0.3344 -0.8199  0.3117
12774TIP3   OH259736   5.969   0.998   3.130  0.1413  0.3396  0.2053
12774TIP3    H159737   6.029   1.005   3.204  0.5066  2.7320 -0.2603
12774TIP3    H259738   5.960   0.904   3.115  2.4005 -0.1046  1.3825
12775TIP3   OH259739   3.668   0.208   0.855  0.2410  0.0903 -0.3611
12775TIP3    H159740   3.618   0.282   0.819  1.2254  0.0073 -1.9294
12775TIP3    H259741   3.602   0.155   0.900 -0.8993  0.6242 -1.3623
12776TIP3   OH259742   5.429   0.137  14.674 -0.1397 -0.0315 -0.5898
12776TIP3    H159743   5.428   0.112  14.581 -0.0782  4.0699 -1.7686
12776TIP3    H259744   5.522   0.153  14.693 -0.2794  0.2643 -0.1538
12777TIP3   OH259745   1.815   6.472   3.721  0.0067 -0.3282 -0.2166
12777TIP3    H159746   1.730   6.462   3.680 -0.6528  0.9291  0.8025
12777TIP3    H259747   1.807   6.551   3.775  2.2684  0.6624 -1.2594
12778TIP3   OH259748   1.332   0.987  12.135  0.1129 -0.3419  0.1086
12778TIP3    H159749   1.425   0.969  12.118  0.4150  1.2114 -0.0264
12778TIP3    H259750   1.286   0.916  12.091  1.1461  0.4113 -2.2866
12779TIP3   OH259751   5.241   4.950  10.833  0.4957  0.2146  0.8750
12779TIP3    H159752   5.226   4.999  10.752  0.4196  0.5037  1.0605
12779TIP3    H259753   5.154   4.927  10.864  0.6190 -2.2211 -0.5187
12780TIP3   OH259754   1.586   2.973  12.990  0.6344 -0.3787  0.6026
12780TIP3    H159755   1.587   3.026  13.070 -0.2429  1.1330 -0.3553
12780TIP3    H259756   1.658   2.912  13.000 -1.3117 -2.2395  3.9154
12781TIP3   OH259757   6.044   0.012  11.499 -0.0118  0.5925  0.3995
12781TIP3    H159758   5.998  -0.015  11.420 -0.4850  0.9534  0.5465
12781TIP3    H259759   6.038  -0.064  11.557  0.6574  0.1930 -0.0436
12782TIP3   OH259760   6.499   1.056   0.781  0.4711 -0.4242  0.1373
12782TIP3    H159761   6.569   1.026   0.722 -0.5213 -1.1954 -0.6680
12782TIP3    H259762   6.437   1.101   0.724 -0.6232 -1.4037  0.5435
12783TIP3   OH259763   4.667   6.166   4.146  0.2731 -0.0228  0.3049
12783TIP3    H159764   4.656   6.077   4.113  1.4118 -0.2530  0.5205
12783TIP3    H259765   4.761   6.184   4.138  0.3084  0.5587  1.7372
12784TIP3   OH259766   1.012   1.302   0.095 -0.4278  0.4037 -0.2104
12784TIP3    H159767   1.029   1.234   0.030 -1.4784  1.1083 -1.2486
12784TIP3    H259768   1.077   1.370   0.077  0.3532 -0.1322  0.5582
12785TIP3   OH259769   2.014   4.946   2.776 -0.3962  0.1216 -0.6068
12785TIP3    H159770   2.082   4.949   2.709  1.0102 -2.0097  0.6747
12785TIP3    H259771   1.965   5.027   2.763  1.9313  1.3731 -2.0140
12786TIP3   OH259772   1.998   3.601  15.960 -0.5323 -0.3064 -0.1236
12786TIP3    H159773   2.073   3.657  15.937 -0.2153 -1.0323 -0.9035
12786TIP3    H259774   1.944   3.655  16.017 -0.3098  0.8458 -0.9915
12787TIP3   OH259775   6.487   3.370  17.114  0.3316 -0.1721 -0.0294
12787TIP3    H159776   6.467   3.450  17.065  2.7778 -0.3510 -1.4235
12787TIP3    H259777   6.444   3.382  17.198 -0.4580  2.0252 -0.7029
12788TIP3   OH259778   4.603   3.504   0.583 -0.0844 -0.2288 -0.2630
12788TIP3    H159779   4.524   3.492   0.635 -1.1147  0.2263 -1.7112
12788TIP3    H259780   4.668   3.535   0.646 -0.9118 -1.0612  1.0277
12789TIP3   OH259781   5.143   6.234  13.307 -0.3535 -0.7287  0.1280
12789TIP3    H159782   5.127   6.161  13.247 -1.7018 -0.3072 -0.0288
12789TIP3    H259783   5.174   6.192  13.387 -0.8691 -1.4654 -0.0476
12790TIP3   OH259784   0.044   1.841  16.051 -0.5309  0.2449  0.0194
12790TIP3    H159785  -0.024   1.811  16.110  0.9602  1.1499  2.2625
12790TIP3    H259786   0.114   1.776  16.059 -0.3785  0.2989 -0.8386
12791TIP3   OH259787   0.180   4.925   1.243  0.4205  0.2039  0.1015
12791TIP3    H159788   0.245   4.994   1.231  2.4906 -1.8070 -0.8045
12791TIP3    H259789   0.127   4.928   1.164  1.8870 -0.6188 -0.9370
12792TIP3   OH259790   4.153   0.953  11.753  0.0756  0.3124 -0.1862
12792TIP3    H159791   4.069   0.988  11.724 -0.4420  0.0471  0.9390
12792TIP3    H259792   4.215   1.024  11.738 -0.6139  1.0336  0.2903
12793TIP3   OH259793   1.239   6.736  12.477 -0.0374  0.4115  0.4998
12793TIP3    H159794   1.188   6.702  12.403 -0.4673  0.0437  0.9606
12793TIP3    H259795   1.189   6.709  12.554  0.0290  1.4293  0.8990
12794TIP3   OH259796   2.918   1.569   3.550 -0.4169 -0.6799  0.1193
12794TIP3    H159797   2.838   1.602   3.509 -0.6852  0.2668  1.3719
12794TIP3    H259798   2.989   1.620   3.510 -0.4938 -1.0229 -0.4681
12795TIP3   OH259799   1.824   3.661   3.432 -0.0584  0.1081  0.1509
12795TIP3    H159800   1.732   3.685   3.441  0.1400  1.1840 -0.5574
12795TIP3    H259801   1.850   3.697   3.348  0.5109 -1.8642 -0.5442
12796TIP3   OH259802   4.881   6.319  17.156 -0.0026 -0.1466  0.0700
12796TIP3    H159803   4.906   6.400  17.112 -0.5726  0.5751  1.0740
12796TIP3    H259804   4.824   6.275  17.092  1.0987 -0.2401 -0.8753
12797TIP3   OH259805   3.443   4.967   6.631  0.3001  0.0317 -0.3335
12797TIP3    H159806   3.535   4.978   6.609  0.0709 -0.4393 -1.6129
12797TIP3    H259807   3.415   4.891   6.580 -1.1681  1.1010 -1.1824
12798TIP3   OH259808   3.989   5.610   3.401 -0.0310  1.0939 -0.1168
12798TIP3    H159809   3.897   5.635   3.395 -0.5153  0.0354  2.3121
12798TIP3    H259810   3.994   5.524   3.359 -0.8613 -0.4047  2.7335
12799TIP3   OH259811   3.551   0.179  14.060  0.1200 -0.1825 -0.8363
12799TIP3    H159812   3.474   0.204  14.009  0.9946  0.3331 -1.9088
12799TIP3    H259813   3.574   0.091  14.028 -0.2371 -0.4914 -0.2555
12800TIP3   OH259814   0.842   0.260  17.027 -1.0371 -0.3124 -0.4747
12800TIP3    H159815   0.763   0.311  17.010 -1.2508 -0.3595  0.3335
12800TIP3    H259816   0.881   0.244  16.941 -1.8191 -0.1400 -0.8556
12801TIP3   OH259817   2.655   5.419   6.684 -0.3511  0.1370 -0.2346
12801TIP3    H159818   2.586   5.383   6.629  0.0400  0.1271 -0.7176
12801TIP3    H259819   2.723   5.352   6.686  1.1090  1.4631 -2.4833
12802TIP3   OH259820   6.278   5.349  13.418 -0.6503  0.7498  0.2927
12802TIP3    H159821   6.236   5.357  13.332 -1.1269 -0.4949  0.3977
12802TIP3    H259822   6.235   5.274  13.459  2.2423 -1.0612  0.0897
12803TIP3   OH259823   5.866   6.013  17.002  0.3957  0.2275  0.5681
12803TIP3    H159824   5.898   6.067  16.930  1.5377 -0.8917  0.2288
12803TIP3    H259825   5.772   6.029  17.003  0.4433  0.6820 -0.8166
12804TIP3   OH259826   3.752   1.772   3.162 -0.2926 -0.0705  0.7061
12804TIP3    H159827   3.773   1.821   3.083  0.0873 -0.4187  0.5896
12804TIP3    H259828   3.690   1.828   3.209  0.7832  0.8907  0.9865
12805TIP3   OH259829   1.809   1.255  15.167 -0.3158 -0.4681 -0.5321
12805TIP3    H159830   1.872   1.262  15.239  0.2670 -2.1089 -0.8389
12805TIP3    H259831   1.731   1.216  15.207 -1.4519  2.2414  0.0016
12806TIP3   OH259832   2.701   4.949   0.379 -1.0341 -0.2770 -0.5358
12806TIP3    H159833   2.712   4.862   0.342  0.5448 -0.2399 -0.1617
12806TIP3    H259834   2.719   5.009   0.307 -0.3523 -0.2384 -0.3356
12807TIP3   OH259835   0.489   3.833  15.170  0.0055 -0.1561 -0.2044
12807TIP3    H159836   0.488   3.786  15.254  0.9577  0.8020  0.3512
12807TIP3    H259837   0.461   3.922  15.192 -0.0560  0.0124 -0.9590
12808TIP3   OH259838   6.357   3.623   2.827  0.7611 -0.3851  0.1592
12808TIP3    H159839   6.380   3.543   2.873  0.6728 -0.7498 -0.4320
12808TIP3    H259840   6.406   3.692   2.872  0.1634 -0.6429  1.2272
12809TIP3   OH259841   1.150   2.386  13.028 -0.2898 -0.4610  0.2231
12809TIP3    H159842   1.195   2.470  13.036  0.2699 -0.6173 -1.1300
12809TIP3    H259843   1.075   2.405  12.971  1.4186 -1.4453 -2.4575
12810TIP3   OH259844   3.547   2.330  12.443 -0.1328 -0.0839  0.0451
12810TIP3    H159845   3.515   2.245  12.475  3.1271 -0.4280  2.6343
12810TIP3    H259846   3.626   2.309  12.394 -0.0828  1.3440 -0.5134
12811TIP3   OH259847   6.122   4.192   0.055  0.7177 -0.4835 -0.4663
12811TIP3    H159848   6.111   4.287   0.042 -0.9721 -0.6401 -0.2970
12811TIP3    H259849   6.210   4.183   0.091  1.1699  0.9664 -1.1632
12812TIP3   OH259850   4.753   4.780   4.375 -0.0247  0.2571 -0.7828
12812TIP3    H159851   4.794   4.763   4.460  2.5610  1.4834 -1.7378
12812TIP3    H259852   4.699   4.702   4.359  0.9959 -0.8873  1.0656
12813TIP3   OH259853   3.692   1.406  15.338  0.1504  0.0975 -0.0996
12813TIP3    H159854   3.769   1.349  15.345  0.3774  0.1909 -1.6484
12813TIP3    H259855   3.688   1.451  15.422  0.0441 -2.0912  1.0879
12814TIP3   OH259856   3.171   4.959  15.448 -0.4906  0.2872 -0.3567
12814TIP3    H159857   3.133   5.043  15.473  0.1897  0.7708 -0.9274
12814TIP3    H259858   3.101   4.896  15.460 -0.5952  0.7317  1.3947
12815TIP3   OH259859   2.735   4.333  10.725 -0.3090  0.0190 -0.0931
12815TIP3    H159860   2.828   4.323  10.746 -0.2676  1.7132  0.6137
12815TIP3    H259861   2.716   4.424  10.745 -2.0919 -0.2718 -0.4112
12816TIP3   OH259862   2.254   5.881  10.998 -0.1533 -0.3448 -0.4614
12816TIP3    H159863   2.314   5.821  11.042  1.1069  0.0739 -1.5994
12816TIP3    H259864   2.253   5.853  10.907 -0.8397  0.3512 -0.6757
12817TIP3   OH259865   2.718   2.718  16.329  0.1614  0.4952  0.2719
12817TIP3    H159866   2.746   2.755  16.413  0.7704 -0.3913  0.4638
12817TIP3    H259867   2.799   2.702  16.281 -0.2059  1.4505 -0.6961
12818TIP3   OH259868   6.673   0.255  14.153  0.0302 -0.2374  0.3200
12818TIP3    H159869   6.580   0.278  14.159  0.6789  2.0700  1.8466
12818TIP3    H259870   6.691   0.206  14.233  0.5565  0.8462  0.8619
12819TIP3   OH259871   5.987   2.477   0.214 -0.0151 -0.0765 -0.1626
12819TIP3    H159872   5.894   2.500   0.222 -0.1993 -0.8472 -0.1043
12819TIP3    H259873   5.993   2.434   0.129  0.4651  0.8216 -0.5900
12820TIP3   OH259874   2.120   1.743  12.964 -0.5505 -0.2238 -0.3594
12820TIP3    H159875   2.181   1.718  13.033  2.1896  1.0658 -2.2204
12820TIP3    H259876   2.112   1.838  12.973 -1.0005 -0.1810 -1.1974
12821TIP3   OH259877   5.467   4.598   4.526 -0.0239  0.0932 -0.4897
12821TIP3    H159878   5.467   4.571   4.435 -0.1399 -2.8008  0.3151
12821TIP3    H259879   5.552   4.569   4.560  0.1733  1.4669  0.2482
12822TIP3   OH259880   5.221   4.001  11.936 -0.3345 -0.4524 -0.3424
12822TIP3    H159881   5.190   3.913  11.958 -2.0514  0.0576 -0.6989
12822TIP3    H259882   5.154   4.060  11.970  0.5737  0.6996 -0.5184
12823TIP3   OH259883   2.690   0.151  11.934  0.1701  0.0118  0.4710
12823TIP3    H159884   2.736   0.095  11.871 -0.7573  0.4613 -0.6429
12823TIP3    H259885   2.603   0.163  11.895  0.3240  2.1414  0.7552
12824TIP3   OH259886   0.487   5.902   5.235 -0.7563  0.2586 -0.1574
12824TIP3    H159887   0.448   5.937   5.154  0.6535  3.0555  0.3147
12824TIP3    H259888   0.437   5.944   5.305  0.2535  0.4934  0.4244
12825TIP3   OH259889   2.200   1.792   5.521 -0.3692  0.5248 -0.3660
12825TIP3    H159890   2.255   1.719   5.549 -0.1774  1.0798  0.7549
12825TIP3    H259891   2.177   1.773   5.430 -0.6045 -1.1011  0.0250
12826TIP3   OH259892   0.910   6.780   1.724 -0.0177 -0.7100 -0.6269
12826TIP3    H159893   0.901   6.785   1.629 -1.7104  0.1347 -0.4376
12826TIP3    H259894   1.002   6.758   1.738 -0.0217 -2.0317 -2.4861
12827TIP3   OH259895   3.030   2.518  15.000  0.4014  0.2421 -0.3256
12827TIP3    H159896   3.103   2.508  15.060 -0.6128  1.2496  1.0978
12827TIP3    H259897   2.953   2.523  15.056 -0.6048  0.7727 -1.7202
12828TIP3   OH259898   4.384   2.772   4.847 -0.2872 -0.0871  0.2521
12828TIP3    H159899   4.403   2.858   4.883  0.4957 -0.8910  1.8489
12828TIP3    H259900   4.469   2.737   4.821 -0.9330  0.8211 -3.2882
12829TIP3   OH259901   5.141   3.761   5.023 -0.4015 -0.1003  0.1212
12829TIP3    H159902   5.083   3.740   5.096 -1.2027 -2.1974 -1.0592
12829TIP3    H259903   5.083   3.762   4.947  0.4505  1.8718 -0.5224
12830TIP3   OH259904   6.310   3.042  16.638  0.0340 -0.1787 -0.6224
12830TIP3    H159905   6.325   3.110  16.703 -0.9032 -0.2733 -0.3014
12830TIP3    H259906   6.375   3.058  16.570 -0.3675  1.2046 -0.6862
12831TIP3   OH259907   5.986   4.853  10.977 -0.1877  0.2779  1.1130
12831TIP3    H159908   6.071   4.813  10.992 -0.4023 -0.1148  1.3100
12831TIP3    H259909   6.005   4.943  10.954  0.2761  0.2242  1.2844
12832TIP3   OH259910   4.100   4.558  16.365  0.1085 -0.1000 -0.0945
12832TIP3    H159911   4.069   4.646  16.347  0.5208 -0.1689 -1.1580
12832TIP3    H259912   4.189   4.570  16.398 -0.2358 -0.0542  0.8510
12833TIP3   OH259913   6.060   2.516   1.078  0.4796 -0.3119 -0.5461
12833TIP3    H159914   6.006   2.584   1.037 -0.4282 -1.1497 -0.7670
12833TIP3    H259915   6.149   2.535   1.047  0.3376  1.1315 -0.1132
12834TIP3   OH259916   4.707   6.011  13.216 -0.4377 -0.0046 -0.2193
12834TIP3    H159917   4.615   6.036  13.205  0.5322  3.4001 -1.3669
12834TIP3    H259918   4.748   6.089  13.255  1.8029 -1.7769  1.0884
12835TIP3   OH259919   3.299   2.516   5.167 -0.0591  0.3817 -0.4731
12835TIP3    H159920   3.207   2.494   5.153 -0.6830  1.1093  2.1938
12835TIP3    H259921   3.342   2.432   5.182 -0.9515  0.2607  1.6162
12836TIP3   OH259922   6.447   6.662   0.648 -0.6043 -0.0655  0.1083
12836TIP3    H159923   6.511   6.734   0.647 -1.3025  0.5460 -0.7080
12836TIP3    H259924   6.490   6.594   0.699  0.6825  0.3677 -0.3708
12837TIP3   OH259925   6.247   6.342   5.587 -0.2691 -0.2860 -0.0338
12837TIP3    H159926   6.186   6.284   5.632 -1.0898  0.6300  0.0528
12837TIP3    H259927   6.213   6.350   5.498  0.2180 -0.4810 -0.2381
12838TIP3   OH259928   0.487   2.335  15.243  0.8507 -0.7989 -0.3034
12838TIP3    H159929   0.392   2.347  15.251  0.6250 -2.1011 -0.8411
12838TIP3    H259930   0.521   2.349  15.331  0.0172 -1.5442  0.1362
12839TIP3   OH259931   3.108   0.383   3.282 -0.3846  0.0198  0.0530
12839TIP3    H159932   3.065   0.435   3.215 -1.6876 -1.4746 -0.3202
12839TIP3    H259933   3.201   0.391   3.264 -0.7027 -0.0355 -1.7019
12840TIP3   OH259934   3.135   1.862  10.989  0.3261  0.0966  0.0472
12840TIP3    H159935   3.215   1.916  10.995  0.8388 -0.5204 -1.0501
12840TIP3    H259936   3.139   1.824  10.901 -0.3249 -1.2840  0.6094
12841TIP3   OH259937   1.405   6.245  15.696  0.5971 -0.3121  0.2149
12841TIP3    H159938   1.478   6.275  15.641  0.4538  0.4665  0.4412
12841TIP3    H259939   1.331   6.298  15.666  0.4554 -0.0818  0.9704
12842TIP3   OH259940   1.143   5.048   1.117  0.2225  0.0818 -0.6167
12842TIP3    H159941   1.155   4.979   1.053  1.4604 -0.5190  0.2606
12842TIP3    H259942   1.123   5.002   1.199 -0.2195  0.8019 -0.3132
12843TIP3   OH259943   6.438   0.783   0.762 -0.1976  0.2141 -0.3273
12843TIP3    H159944   6.451   0.873   0.791  0.7406  0.1919 -0.6786
12843TIP3    H259945   6.349   0.762   0.790 -0.0722  0.9160  0.6428
12844TIP3   OH259946   4.869   4.196  16.828  0.3418  0.4743  0.1965
12844TIP3    H159947   4.805   4.228  16.765  0.9239 -0.1320 -0.7102
12844TIP3    H259948   4.896   4.274  16.877  0.6318  1.1145 -0.9660
12845TIP3   OH259949   0.763   2.242  16.826  0.1186  0.0341 -0.0162
12845TIP3    H159950   0.815   2.207  16.753  1.1620  3.7502 -1.1998
12845TIP3    H259951   0.826   2.253  16.897  0.1516  0.9671 -0.1843
12846TIP3   OH259952   0.267   1.283   1.412 -0.4005 -0.2266 -0.1079
12846TIP3    H159953   0.264   1.306   1.505  0.6345  0.3757 -0.2188
12846TIP3    H259954   0.360   1.287   1.389 -0.6840 -0.0610 -1.2550
12847TIP3   OH259955   6.529   5.532  13.619  0.0573  0.2815 -0.0891
12847TIP3    H159956   6.571   5.491  13.543  1.0470  0.4158  0.3824
12847TIP3    H259957   6.600   5.544  13.682 -0.7868  0.0916  0.8964
12848TIP3   OH259958   1.182   0.525  16.333  0.2059 -0.4197  0.5589
12848TIP3    H159959   1.110   0.491  16.280 -0.4910 -2.5714  2.8002
12848TIP3    H259960   1.261   0.489  16.290 -0.2854 -1.3373  0.4093
12849TIP3   OH259961   0.410   4.848   6.419 -0.7563  0.3089 -0.0803
12849TIP3    H159962   0.402   4.778   6.483  3.0698 -1.1479 -1.0633
12849TIP3    H259963   0.432   4.804   6.337  0.4975  2.5441 -1.0075
12850TIP3   OH259964   2.605   4.299   2.344 -0.4347 -0.0851  0.0785
12850TIP3    H159965   2.610   4.346   2.261  0.4060 -2.3623 -1.2104
12850TIP3    H259966   2.677   4.235   2.340  0.3422  0.4965  3.0389
12851TIP3   OH259967   5.739   2.585   0.935  0.2044 -0.1253 -0.1477
12851TIP3    H159968   5.719   2.660   0.879  2.9556 -0.3015 -1.4445
12851TIP3    H259969   5.709   2.612   1.022 -2.5902  0.8192 -1.3358
12852TIP3   OH259970   5.263   4.220  13.688 -0.1151 -0.0666 -0.1817
12852TIP3    H159971   5.336   4.277  13.714  0.9629 -0.3962 -2.3348
12852TIP3    H259972   5.298   4.169  13.614 -1.9181 -1.6188 -0.0061
12853TIP3   OH259973   6.377   6.185  12.980  0.3502  0.2306 -0.2650
12853TIP3    H159974   6.350   6.229  12.900  0.1076  0.0946 -0.2563
12853TIP3    H259975   6.384   6.093  12.955  1.0001  0.2929 -0.3207
12854TIP3   OH259976   2.114   0.196  14.483 -0.3216 -0.0546 -0.1632
12854TIP3    H159977   2.074   0.262  14.540 -0.9137 -1.6495  1.2835
12854TIP3    H259978   2.204   0.226  14.473 -0.4440  0.7090  0.8981
12855TIP3   OH259979   6.017   1.798   4.846 -0.0455 -0.1369 -0.6737
12855TIP3    H159980   6.042   1.745   4.922  0.1884  0.7145 -0.1440
12855TIP3    H259981   5.952   1.860   4.881  0.2051  0.3844 -1.1316
12856TIP3   OH259982   0.691   0.950  15.278 -0.0039 -0.3227 -0.1140
12856TIP3    H159983   0.713   1.036  15.241 -1.7612  0.3375  0.3280
12856TIP3    H259984   0.650   0.903  15.206  0.1234 -0.4516 -0.1014
12857TIP3   OH259985   5.626   3.833   4.359  0.9732  0.0275  0.2045
12857TIP3    H159986   5.667   3.790   4.434 -1.8496 -4.6512 -0.7474
12857TIP3    H259987   5.536   3.848   4.387  0.6651  0.9299 -1.2360
12858TIP3   OH259988   5.973   5.576   3.939  0.2766 -0.0643  0.2337
12858TIP3    H159989   5.962   5.662   3.979 -1.4610  0.3046 -0.9301
12858TIP3    H259990   6.028   5.527   4.000  0.6748  1.6341  1.2642
12859TIP3   OH259991   3.605   6.610  14.537 -0.2340  0.4611 -0.1025
12859TIP3    H159992   3.604   6.577  14.627  0.6082  1.7542  0.3996
12859TIP3    H259993   3.515   6.599  14.506 -0.2623 -1.1019  0.4668
12860TIP3   OH259994   5.566   2.423   6.233 -0.6613  0.3071 -0.2146
12860TIP3    H159995   5.614   2.472   6.301 -1.2383 -0.0225  0.4313
12860TIP3    H259996   5.474   2.432   6.257 -1.0237  1.8476 -2.0706
12861TIP3   OH259997   3.241   5.091  13.059 -0.4960  0.2325  0.0758
12861TIP3    H159998   3.292   5.027  13.010 -1.2882  0.2228 -0.7603
12861TIP3    H259999   3.261   5.072  13.151 -1.7271 -2.0926 -0.0837
12862TIP3   OH260000   4.657   4.579   3.213  0.3730 -0.3950 -0.1829
12862TIP3    H160001   4.583   4.609   3.160  1.6223 -0.1037 -1.8203
12862TIP3    H260002   4.721   4.548   3.149  2.3320  0.8648  1.0981
12863TIP3   OH260003   0.765   1.023   1.067 -0.4350 -0.3767  0.3137
12863TIP3    H160004   0.801   1.097   1.019 -1.3300 -1.9291 -2.9532
12863TIP3    H260005   0.760   1.053   1.158  0.9830  2.8484 -0.5892
12864TIP3   OH260006   0.037   0.502   2.685 -0.4296 -0.4215  0.2708
12864TIP3    H160007   0.017   0.437   2.753 -0.2424 -0.2704  0.4713
12864TIP3    H260008  -0.016   0.578   2.708  0.1507 -0.1275  0.6350
12865TIP3   OH260009   1.225   2.082  13.955  0.1763  0.7557  0.2347
12865TIP3    H160010   1.190   2.170  13.966 -1.7019 -0.0266  0.7803
12865TIP3    H260011   1.235   2.049  14.044  1.5063  0.6557  0.0512
12866TIP3   OH260012   2.216   6.133   4.801  0.2222 -0.0897  0.1994
12866TIP3    H160013   2.189   6.133   4.893 -1.5141 -0.8065 -0.2912
12866TIP3    H260014   2.162   6.065   4.760  3.0214 -1.8146 -0.7847
12867TIP3   OH260015   6.658   6.559   0.806 -0.0072 -0.1222 -0.1353
12867TIP3    H160016   6.650   6.563   0.901 -0.6575  0.0615 -0.1942
12867TIP3    H260017   6.698   6.474   0.789  1.2437  0.3603  0.3653
12868TIP3   OH260018   3.457   1.389  11.872 -0.2089 -0.0012 -0.2780
12868TIP3    H160019   3.465   1.452  11.944  1.7817 -0.7336  0.1553
12868TIP3    H260020   3.545   1.382  11.836 -0.6140 -1.8159 -0.9624
12869TIP3   OH260021   6.571   0.974  12.117 -0.4810 -0.1847  0.3370
12869TIP3    H160022   6.513   0.920  12.063 -0.9819  1.8642 -1.2658
12869TIP3    H260023   6.616   1.030  12.053  1.8225 -0.3978  1.7343
12870TIP3   OH260024   4.287   3.772  15.125 -0.4018  0.1366 -0.4025
12870TIP3    H160025   4.254   3.705  15.183 -0.2599  0.5368  0.1432
12870TIP3    H260026   4.233   3.765  15.046 -0.0631 -0.9376 -0.5370
12871TIP3   OH260027   0.919   5.278  15.984 -0.0756 -0.0876 -0.0571
12871TIP3    H160028   0.996   5.313  15.940 -1.2364  3.1553  0.4029
12871TIP3    H260029   0.924   5.312  16.073 -1.9778  0.0759  0.0196
12872TIP3   OH260030   5.608   2.820  15.459  0.0400 -0.0624  0.0161
12872TIP3    H160031   5.595   2.753  15.392 -1.4707  0.1673  0.0543
12872TIP3    H260032   5.544   2.798  15.527  0.4646  0.6338  0.6479
12873TIP3   OH260033   2.313   3.375   6.532 -0.1823 -0.1713  0.0459
12873TIP3    H160034   2.262   3.455   6.526  1.1489  0.6545 -0.4085
12873TIP3    H260035   2.383   3.386   6.467 -1.0128 -2.4355 -1.2946
12874TIP3   OH260036   6.063   3.686   2.769 -0.3388  0.6201 -0.1985
12874TIP3    H160037   5.973   3.659   2.783  0.5445 -2.1654  0.3639
12874TIP3    H260038   6.107   3.669   2.852  0.9040  1.0508 -0.7537
12875TIP3   OH260039   1.316   0.799   5.331 -0.1412 -0.5304 -0.4535
12875TIP3    H160040   1.275   0.728   5.282 -0.0609 -1.9699  1.4845
12875TIP3    H260041   1.405   0.767   5.347  0.6518  1.0524 -1.5972
12876TIP3   OH260042   5.685   2.774  13.677 -0.3362  0.0184 -0.1920
12876TIP3    H160043   5.730   2.839  13.731  0.0036  0.0568 -0.5244
12876TIP3    H260044   5.627   2.825  13.620  0.9161  0.1346 -1.3944
12877TIP3   OH260045   4.469   0.766   1.896 -0.3627  0.3823 -0.6829
12877TIP3    H160046   4.429   0.690   1.937  0.4218  0.3461  0.0299
12877TIP3    H260047   4.398   0.830   1.887 -1.1308 -0.5929 -1.7026
12878TIP3   OH260048   0.702   6.715  11.787 -0.1982  0.0290 -0.1328
12878TIP3    H160049   0.789   6.754  11.776 -0.3965  0.3316 -0.6598
12878TIP3    H260050   0.709   6.662  11.866  0.5570 -0.1919 -0.3422
12879TIP3   OH260051   5.729   1.248   0.332  0.1655  0.1627 -0.1968
12879TIP3    H160052   5.754   1.195   0.256  2.3427 -0.0609  0.6520
12879TIP3    H260053   5.685   1.187   0.390  1.7911 -0.5375  0.3350
12880TIP3   OH260054   4.475   4.901  16.411 -0.2113  0.0166  0.3079
12880TIP3    H160055   4.524   4.983  16.424 -0.6864  0.3024  0.2812
12880TIP3    H260056   4.424   4.917  16.332 -2.1350  0.5555  1.6414
12881TIP3   OH260057   3.145   2.441   5.635 -0.3712 -0.1791  0.0936
12881TIP3    H160058   3.087   2.456   5.560 -2.0799 -0.7578  1.2743
12881TIP3    H260059   3.087   2.441   5.711  1.3970  0.8817  1.5010
12882TIP3   OH260060   3.348   1.076  12.677 -0.1698  0.4401  0.0051
12882TIP3    H160061   3.390   1.065  12.592  0.4437  0.8051  0.2598
12882TIP3    H260062   3.361   0.992  12.721  1.0187  0.8330  0.4030
12883TIP3   OH260063   1.517   5.410   0.553 -0.0710  0.0474 -0.4781
12883TIP3    H160064   1.474   5.380   0.473 -2.5911 -0.1171  0.9093
12883TIP3    H260065   1.583   5.472   0.522 -0.7815 -0.2655 -2.7143
12884TIP3   OH260066   1.528   2.221  13.565 -0.0390  0.6471  0.0360
12884TIP3    H160067   1.514   2.306  13.524 -2.3729 -0.1539 -0.9272
12884TIP3    H260068   1.591   2.178  13.507  1.0863  1.6698  0.4827
12885TIP3   OH260069   4.640   0.422  11.284  0.9824 -0.1934 -0.1625
12885TIP3    H160070   4.712   0.482  11.269  0.5538  0.1378 -0.9185
12885TIP3    H260071   4.589   0.463  11.354  1.1536 -0.0976 -0.0934
12886TIP3   OH260072   3.188   3.618   0.814  0.2305 -0.4010  0.2840
12886TIP3    H160073   3.279   3.604   0.788  0.2478  0.2580 -0.0258
12886TIP3    H260074   3.152   3.530   0.826  0.2786 -0.7226 -1.7620
12887TIP3   OH260075   3.822   0.354   2.740  0.0948  0.2311 -0.3325
12887TIP3    H160076   3.784   0.299   2.671 -0.3332  1.1917 -0.8833
12887TIP3    H260077   3.768   0.337   2.817 -1.9024  2.0516 -1.2706
12888TIP3   OH260078   4.626   5.655   6.213  0.1035  0.1285 -0.5884
12888TIP3    H160079   4.603   5.614   6.129 -0.7367 -0.5169 -0.0543
12888TIP3    H260080   4.718   5.677   6.204  0.6953 -2.2317 -0.7886
12889TIP3   OH260081   0.717   2.288  12.777  0.7447 -0.1040 -0.5655
12889TIP3    H160082   0.691   2.279  12.685 -0.2313 -1.5742 -0.1663
12889TIP3    H260083   0.648   2.340  12.817  1.4065  0.9305 -0.7564
12890TIP3   OH260084   6.003   2.775  13.748 -0.4451 -0.0565  0.0708
12890TIP3    H160085   6.080   2.815  13.788  0.0083  0.9000 -1.7365
12890TIP3    H260086   5.930   2.831  13.775 -0.7705 -1.7592  2.9696
12891TIP3   OH260087   2.872   6.438   4.549  0.0422  0.3916 -0.3601
12891TIP3    H160088   2.828   6.359   4.579 -1.2668  2.1740  2.6601
12891TIP3    H260089   2.806   6.484   4.498  0.0120  0.6695 -0.0725
12892TIP3   OH260090   5.459   5.047   3.609 -0.1152 -0.0793 -0.2636
12892TIP3    H160091   5.542   5.013   3.641 -0.3980  1.0953  1.7823
12892TIP3    H260092   5.396   4.976   3.623  0.1265 -0.2100  0.1334
12893TIP3   OH260093   3.242   3.124   1.262 -0.0580  0.3749 -0.0800
12893TIP3    H160094   3.255   3.060   1.332  1.6276  1.1382  0.3120
12893TIP3    H260095   3.265   3.077   1.182  0.3220  0.2183  0.1203
12894TIP3   OH260096   3.939   6.112  10.650 -0.0058  0.9395 -0.1506
12894TIP3    H160097   3.927   6.030  10.699 -0.2770 -0.1311 -1.9461
12894TIP3    H260098   3.851   6.134  10.619  0.5284  0.1808 -2.3051
12895TIP3   OH260099   0.203   1.326  16.029 -0.0398  0.2204  0.3702
12895TIP3    H160100   0.285   1.299  16.071 -0.2191  0.6602  1.0066
12895TIP3    H260101   0.141   1.333  16.101 -0.3409  1.0288  0.0309
12896TIP3   OH260102   4.398   6.042   3.947 -0.2204  0.1521 -0.3605
12896TIP3    H160103   4.449   5.990   4.010 -1.3275  0.6506  0.9964
12896TIP3    H260104   4.454   6.115   3.924 -0.5406  1.0362  1.5978
12897TIP3   OH260105   5.786   5.174   3.979 -0.1888  0.9173 -0.2222
12897TIP3    H160106   5.725   5.100   3.977  0.7015  0.1790 -0.4390
12897TIP3    H260107   5.830   5.170   3.894  0.9544  0.7696  0.3723
12898TIP3   OH260108   3.894   1.539   5.282  0.0642 -0.0153 -0.0276
12898TIP3    H160109   3.913   1.569   5.193 -1.2400 -0.1360 -0.3628
12898TIP3    H260110   3.838   1.462   5.270  0.8054 -0.7206  0.8866
12899TIP3   OH260111   1.882   1.777  11.627 -0.4938  0.0703 -0.5634
12899TIP3    H160112   1.829   1.854  11.606 -2.4946 -1.0502  0.2087
12899TIP3    H260113   1.893   1.732  11.544 -0.9207  0.2080 -0.6961
12900TIP3   OH260114   6.226   6.330   4.383  0.3182  0.2991 -0.0080
12900TIP3    H160115   6.169   6.253   4.381  0.7168 -0.0066  0.2675
12900TIP3    H260116   6.212   6.372   4.298  0.8428 -0.6257 -0.5641
12901TIP3   OH260117   0.324   6.519   0.925  0.4331  0.5554  1.0797
12901TIP3    H160118   0.399   6.525   0.865  0.0960 -0.4035  0.5573
12901TIP3    H260119   0.254   6.565   0.879 -0.1393 -1.1161  0.2219
12902TIP3   OH260120   1.290   1.894  11.191 -0.0703 -0.4279 -0.4651
12902TIP3    H160121   1.291   1.806  11.152  1.0478 -0.1909 -0.9858
12902TIP3    H260122   1.273   1.878  11.284 -1.0445 -1.1098 -0.7474
12903TIP3   OH260123   3.096   4.121  14.284  0.1788  0.2735  0.0140
12903TIP3    H160124   3.071   4.036  14.247  1.7266 -0.0442 -0.3336
12903TIP3    H260125   3.129   4.100  14.371  1.4128  0.3978 -0.4158
12904TIP3   OH260126   2.099   4.924   1.423 -0.5048 -0.0014  0.6762
12904TIP3    H160127   2.189   4.911   1.392 -0.0638 -0.6800  2.1877
12904TIP3    H260128   2.055   4.842   1.401 -0.3635 -0.2314  1.2438
12905TIP3   OH260129   6.606   1.843   0.969 -0.4215 -0.0522 -0.7448
12905TIP3    H160130   6.538   1.905   0.941 -0.2637  0.5298  0.1284
12905TIP3    H260131   6.669   1.841   0.897  0.4525  2.1143 -0.0760
12906TIP3   OH260132   1.801   3.448   0.193  0.4205 -0.2890  0.0628
12906TIP3    H160133   1.892   3.474   0.182  0.6223 -0.2896  1.6254
12906TIP3    H260134   1.784   3.458   0.287 -0.8449 -1.4160 -0.0272
12907TIP3   OH260135   3.894   2.115  17.071  0.0315  0.3073 -0.2430
12907TIP3    H160136   3.835   2.120  16.996 -0.1978 -0.7738 -0.1499
12907TIP3    H260137   3.950   2.192  17.063 -1.5264  1.4769 -0.2079
12908TIP3   OH260138   5.976   0.163  14.918 -0.5549  0.6602  0.1337
12908TIP3    H160139   5.913   0.229  14.888  1.2310  2.2978 -0.1045
12908TIP3    H260140   6.017   0.203  14.995  1.1443  0.2004 -0.5101
12909TIP3   OH260141   2.863   5.405  14.256  1.4323  0.2118  0.3654
12909TIP3    H160142   2.826   5.339  14.313 -0.2442  0.7507 -0.0784
12909TIP3    H260143   2.914   5.356  14.192 -0.7654 -0.7638 -0.6850
12910TIP3   OH260144   2.707   6.605  15.731 -0.3526 -0.1849  0.9148
12910TIP3    H160145   2.798   6.597  15.759 -0.2976  0.0355  0.7979
12910TIP3    H260146   2.692   6.527  15.677 -0.0206  0.1373  0.3526
12911TIP3   OH260147   3.746   4.266  15.032 -0.0813 -0.3544  0.3630
12911TIP3    H160148   3.713   4.188  15.076  0.1006 -0.4478  0.3344
12911TIP3    H260149   3.671   4.302  14.986  0.1908 -1.3741 -0.9111
12912TIP3   OH260150   0.487   3.863   4.817 -0.3491 -0.5447  0.1991
12912TIP3    H160151   0.412   3.820   4.857  0.1300 -1.9106 -0.3558
12912TIP3    H260152   0.552   3.794   4.806  1.0308  0.6320  0.7357
12913TIP3   OH260153   1.789   5.700  17.158  0.3072  0.3693 -0.4102
12913TIP3    H160154   1.779   5.694  17.063  0.1618 -1.3711 -0.2884
12913TIP3    H260155   1.753   5.787  17.180 -1.6319 -0.0736 -1.6838
12914TIP3   OH260156   6.051   6.054  14.772  0.3555  0.5935 -0.3594
12914TIP3    H160157   5.956   6.064  14.766  0.3673  0.2116 -1.1675
12914TIP3    H260158   6.084   6.089  14.689  0.9378  0.9482  0.0212
12915TIP3   OH260159   4.353   3.629   6.221 -0.0785 -0.1406 -0.0673
12915TIP3    H160160   4.446   3.620   6.200 -0.0372 -1.3951  0.5992
12915TIP3    H260161   4.352   3.656   6.312 -0.3244  2.4909 -0.8216
12916TIP3   OH260162   5.137   3.295  12.618  0.5059 -0.2563  0.0849
12916TIP3    H160163   5.153   3.368  12.559 -0.8189  0.4911  0.6406
12916TIP3    H260164   5.081   3.331  12.687 -0.3735 -1.8555  0.2356
12917TIP3   OH260165   6.071   0.798  11.194 -0.5421  0.0268  0.2922
12917TIP3    H160166   6.108   0.886  11.184  1.2319 -0.6820  0.6020
12917TIP3    H260167   6.140   0.739  11.166 -2.5714 -1.2143 -2.3359
12918TIP3   OH260168   4.895   0.855   0.561  0.2160 -0.0514 -0.0250
12918TIP3    H160169   4.822   0.837   0.620 -0.9297 -0.9777 -1.7010
12918TIP3    H260170   4.859   0.912   0.494  1.7499  1.7468  0.6312
12919TIP3   OH260171   3.196   4.829  14.713  0.1985  0.2698 -0.1553
12919TIP3    H160172   3.116   4.831  14.661 -0.0550  0.5374  0.2410
12919TIP3    H260173   3.234   4.743  14.695 -0.7219 -0.2808  0.4614
12920TIP3   OH260174   4.800   1.836   4.967  0.7462 -0.2884  0.2079
12920TIP3    H160175   4.803   1.747   4.932  1.0001 -0.8930  1.7496
12920TIP3    H260176   4.759   1.827   5.053  2.0603  0.8898  0.9748
12921TIP3   OH260177   1.922   6.279  13.936  0.4731 -0.4273  0.2996
12921TIP3    H160178   1.968   6.358  13.907 -1.6765 -0.2726 -2.9777
12921TIP3    H260179   1.944   6.213  13.870 -1.8230 -1.0927  0.1679
12922TIP3   OH260180   0.124   1.908  15.682  0.2765  0.9388 -0.3678
12922TIP3    H160181   0.108   1.946  15.769  1.9894 -3.3492  1.9199
12922TIP3    H260182   0.217   1.924  15.665  0.4628 -0.2134 -0.4265
12923TIP3   OH260183   6.121   0.246   0.386 -0.0379 -0.5343 -0.7309
12923TIP3    H160184   6.180   0.183   0.343  1.6101 -0.4815  1.4046
12923TIP3    H260185   6.139   0.236   0.479 -1.2653  1.6542 -0.2391
12924TIP3   OH260186   5.507   6.210  12.728 -0.2928  0.0092  0.0536
12924TIP3    H160187   5.418   6.179  12.745 -1.0997  2.6406  0.9636
12924TIP3    H260188   5.555   6.192  12.808 -0.7305  1.0127  0.5444
12925TIP3   OH260189   3.667   1.244   1.883  0.0676 -0.2298  0.6699
12925TIP3    H160190   3.666   1.210   1.972  0.8603  1.9994  1.5689
12925TIP3    H260191   3.577   1.269   1.865 -0.0297 -0.3643  0.9767
12926TIP3   OH260192   4.923   6.340   2.916  0.3292 -0.3658 -0.4970
12926TIP3    H160193   4.990   6.404   2.941  0.5120 -0.4143 -0.8623
12926TIP3    H260194   4.840   6.387   2.926  0.4778 -0.0004 -0.9711
12927TIP3   OH260195   6.135   6.208  16.960 -0.1423  0.1725 -0.1634
12927TIP3    H160196   6.203   6.157  17.004 -0.0957 -0.4564 -0.9631
12927TIP3    H260197   6.114   6.159  16.881 -1.2590  0.5611 -0.1294
12928TIP3   OH260198   5.199   2.771   2.003 -0.2422 -0.9542 -0.0029
12928TIP3    H160199   5.143   2.819   2.064  0.5161  0.1950 -0.2062
12928TIP3    H260200   5.236   2.700   2.056 -1.1482 -1.1679  0.3638
12929TIP3   OH260201   3.014   2.397  10.874  0.0031 -0.6705 -0.6735
12929TIP3    H160202   2.929   2.398  10.917  0.4265 -0.4984  0.1643
12929TIP3    H260203   3.073   2.358  10.939  0.5417 -0.8943 -1.2911
12930TIP3   OH260204   3.288   0.548  15.510 -0.3934 -0.1353  0.4525
12930TIP3    H160205   3.318   0.617  15.570  1.0845  0.1604 -0.6028
12930TIP3    H260206   3.223   0.591  15.454 -1.6109 -0.3540  1.6659
12931TIP3   OH260207   2.086   5.311  12.156 -0.6116 -0.1403  0.0987
12931TIP3    H160208   2.176   5.315  12.190 -1.2426 -1.4066  1.9696
12931TIP3    H260209   2.031   5.341  12.228 -1.5898  2.8973 -1.8002
12932TIP3   OH260210   0.755   4.823   1.582  0.4027 -0.4747 -0.0285
12932TIP3    H160211   0.748   4.728   1.577  0.5628 -0.4407 -1.1342
12932TIP3    H260212   0.667   4.855   1.564  0.3435 -0.4076  0.3653
12933TIP3   OH260213   0.808   4.607  12.625  0.0168 -0.2420 -0.0910
12933TIP3    H160214   0.881   4.641  12.573 -0.8243  0.7033 -0.6884
12933TIP3    H260215   0.735   4.666  12.604 -0.8766 -1.0943  0.5978
12934TIP3   OH260216   4.474   4.392  12.174 -0.4921  0.5147 -0.2678
12934TIP3    H160217   4.564   4.361  12.185 -1.0378 -0.1467  2.9112
12934TIP3    H260218   4.428   4.318  12.134  0.3302  0.8141 -1.7988
12935TIP3   OH260219   1.340   1.952   6.029 -0.0640  0.3905  0.1628
12935TIP3    H160220   1.274   1.908   5.975 -0.0355  0.1719  0.3091
12935TIP3    H260221   1.298   1.963   6.114  1.3642 -2.9323  1.3451
12936TIP3   OH260222   5.533   1.071  14.025  0.3620 -0.2346  0.0842
12936TIP3    H160223   5.612   1.079  13.972 -0.2828  1.0807 -0.7112
12936TIP3    H260224   5.545   1.134  14.096  0.5832 -0.9508  0.6889
12937TIP3   OH260225   2.679   2.091  12.165  0.8918 -0.4480 -0.6943
12937TIP3    H160226   2.666   2.065  12.074  0.4869 -0.9722 -0.4884
12937TIP3    H260227   2.607   2.049  12.213  1.4977 -0.7389 -0.0300
12938TIP3   OH260228   4.857   6.195   0.433  0.0393 -0.6373  0.0300
12938TIP3    H160229   4.865   6.286   0.406 -2.5160 -0.3782 -0.0203
12938TIP3    H260230   4.869   6.197   0.528  0.4262 -0.2991 -0.0272
12939TIP3   OH260231   5.647   4.129   2.859  0.0631  0.4904 -0.1332
12939TIP3    H160232   5.580   4.077   2.812 -0.7886  0.9237  0.5830
12939TIP3    H260233   5.667   4.076   2.936  1.1039  0.0118 -0.7251
12940TIP3   OH260234   2.003   5.296  13.913  0.1800  0.4968  0.4620
12940TIP3    H160235   2.068   5.337  13.856  0.5256  1.4091  1.4923
12940TIP3    H260236   1.927   5.354  13.909 -0.5385 -0.4852 -0.6176
12941TIP3   OH260237   5.977   1.417   2.344 -0.4771  0.7491 -0.3354
12941TIP3    H160238   6.032   1.403   2.267  0.6695  0.3986  0.5242
12941TIP3    H260239   5.998   1.344   2.402 -0.7493  1.4183  0.6222
12942TIP3   OH260240   5.418   0.101  13.578  0.3462  0.3918  0.0473
12942TIP3    H160241   5.388   0.187  13.550 -1.2463  0.4286  1.8090
12942TIP3    H260242   5.450   0.114  13.667 -0.2399 -0.9057  0.4597
12943TIP3   OH260243   4.668   3.047   0.529  0.1574  0.1509 -0.0661
12943TIP3    H160244   4.722   3.007   0.597 -2.4121 -0.7020  1.5393
12943TIP3    H260245   4.627   2.974   0.484 -0.0860  0.8026 -0.9282
12944TIP3   OH260246   2.479   2.964  12.555 -0.0710 -0.3722 -0.0214
12944TIP3    H160247   2.458   2.914  12.476 -0.5493 -1.6916  0.9145
12944TIP3    H260248   2.398   3.012  12.575 -0.4425 -1.2150  0.5130
12945TIP3   OH260249   6.329   5.143  10.670  0.2235 -0.0413 -0.3961
12945TIP3    H160250   6.327   5.196  10.750  0.1125  1.0603 -1.1081
12945TIP3    H260251   6.309   5.055  10.698 -0.7803  0.5229  0.6609
12946TIP3   OH260252   1.202   6.409  15.582 -0.2880  0.4309  0.1948
12946TIP3    H160253   1.200   6.490  15.531 -1.8775 -1.6998 -3.3100
12946TIP3    H260254   1.115   6.404  15.622 -0.6155 -0.1280 -0.5786
12947TIP3   OH260255   2.647   1.961  13.774 -0.0100  0.3637  0.2523
12947TIP3    H160256   2.736   1.938  13.748  0.4426 -0.1552  2.1475
12947TIP3    H260257   2.593   1.890  13.741  0.2256  0.8748 -1.2421
12948TIP3   OH260258   3.936   3.154   3.521 -0.2226  0.2155  0.2246
12948TIP3    H160259   3.945   3.109   3.604  0.5483 -0.7569 -0.3715
12948TIP3    H260260   3.843   3.146   3.499  0.1284 -2.2391 -0.5003
12949TIP3   OH260261   0.760   1.403  12.124 -0.0640  0.7067  0.5011
12949TIP3    H160262   0.821   1.461  12.079  0.0435  0.1720 -0.0530
12949TIP3    H260263   0.688   1.460  12.150  1.4361  1.6742  2.6623
12950TIP3   OH260264   0.259   2.482   3.480 -0.2823 -0.0504  0.3291
12950TIP3    H160265   0.326   2.425   3.519 -1.8724 -2.1011  0.1382
12950TIP3    H260266   0.260   2.459   3.387 -0.5153  0.6655  0.1497
12951TIP3   OH260267   3.473   3.746   5.193  0.0519 -0.0255  0.2107
12951TIP3    H160268   3.419   3.816   5.157 -0.1937 -1.7393 -2.9425
12951TIP3    H260269   3.472   3.760   5.287 -1.0468  3.4231 -0.2606
12952TIP3   OH260270   0.064   4.282  15.752  0.2733 -0.3282 -0.5949
12952TIP3    H160271  -0.002   4.248  15.692 -1.0174 -1.0568  1.2143
12952TIP3    H260272   0.051   4.234  15.833  2.8084 -0.2371 -0.0794
12953TIP3   OH260273   6.107   5.261  10.279 -0.4258 -0.1026  0.1321
12953TIP3    H160274   6.052   5.223  10.348  0.6019  0.3762  1.2420
12953TIP3    H260275   6.048   5.318  10.231 -1.1043 -0.2317  0.7990
12954TIP3   OH260276   3.021   1.791   6.862  0.4818 -0.2187  0.0352
12954TIP3    H160277   2.937   1.759   6.895  0.7590 -0.5342  0.4395
12954TIP3    H260278   3.010   1.886   6.856  0.9935  0.0207  2.6220
12955TIP3   OH260279   5.734   6.773  11.619 -0.0379 -0.3771  0.2115
12955TIP3    H160280   5.678   6.834  11.667 -1.1312 -2.3568  1.5693
12955TIP3    H260281   5.762   6.820  11.541 -1.5929  1.5015  0.7736
12956TIP3   OH260282   4.125   1.684  15.213  0.0982 -0.5826 -0.7124
12956TIP3    H160283   4.070   1.740  15.157  1.0855  2.2869  1.1323
12956TIP3    H260284   4.070   1.606  15.229 -1.8116  0.3942 -2.2672
12957TIP3   OH260285   6.759   2.718  14.553  0.1418 -0.6598  0.3432
12957TIP3    H160286   6.849   2.686  14.543 -0.3392 -1.6604 -0.8895
12957TIP3    H260287   6.705   2.639  14.550 -0.8897  0.0555 -0.4088
12958TIP3   OH260288   1.076   5.025   3.782  0.4334  0.0483 -0.1671
12958TIP3    H160289   1.120   5.029   3.867 -1.0679  0.5878  0.5987
12958TIP3    H260290   1.007   4.959   3.793  0.7455 -0.4740 -1.2232
12959TIP3   OH260291   1.032   6.517  13.369 -0.1747 -0.2933  0.4071
12959TIP3    H160292   0.938   6.498  13.371 -0.3778  0.7673  1.4416
12959TIP3    H260293   1.056   6.512  13.277 -0.9140 -2.1312  0.2976
12960TIP3   OH260294   6.210   2.719  12.150 -0.1650  0.3990  0.2044
12960TIP3    H160295   6.283   2.742  12.207  0.6818 -0.8401 -0.3532
12960TIP3    H260296   6.247   2.719  12.062 -1.0060  0.4691 -0.1554
12961TIP3   OH260297   5.610   3.941  16.726  0.6682 -0.7563 -0.3702
12961TIP3    H160298   5.530   3.941  16.779  0.1098 -0.4735 -1.2139
12961TIP3    H260299   5.639   4.032  16.726  0.9951 -0.8583 -0.0655
12962TIP3   OH260300   3.997   2.166  15.575  0.3506  0.2406 -0.0028
12962TIP3    H160301   4.031   2.215  15.649 -0.9939  0.6256  0.3747
12962TIP3    H260302   4.065   2.101  15.556  1.4345  1.2105  0.4941
12963TIP3   OH260303   2.483   3.483  16.556  0.3487 -0.1627  0.3487
12963TIP3    H160304   2.403   3.524  16.522  0.4685  0.4078  0.7626
12963TIP3    H260305   2.528   3.553  16.603  0.8095 -0.6332  0.6083
12964TIP3   OH260306   4.972   6.756  12.872 -0.2208  0.0375 -0.1819
12964TIP3    H160307   5.022   6.681  12.840 -0.7679 -0.6144  0.4776
12964TIP3    H260308   5.021   6.832  12.840  0.2820 -0.5918 -0.9387
12965TIP3   OH260309   1.796   2.910  14.589 -0.9093  0.1507  0.2664
12965TIP3    H160310   1.724   2.859  14.552 -1.6444  0.7385  0.8414
12965TIP3    H260311   1.874   2.881  14.542 -1.4784 -0.7149 -0.1594
12966TIP3   OH260312   2.933   4.407  15.060  0.0416  0.1741  0.8429
12966TIP3    H160313   2.970   4.495  15.068 -0.8932  0.3867  2.9834
12966TIP3    H260314   3.007   4.348  15.077  0.1841  0.5608  1.5587
12967TIP3   OH260315   4.589   2.041   2.030 -0.4811 -0.8479 -0.2900
12967TIP3    H160316   4.608   1.956   1.990  1.6430 -1.2400  1.4337
12967TIP3    H260317   4.650   2.102   1.987  1.4163 -1.1656  1.8873
12968TIP3   OH260318   5.446   2.423   3.286 -0.0503 -0.0550  0.3092
12968TIP3    H160319   5.505   2.364   3.240  1.4477  2.0571 -0.5712
12968TIP3    H260320   5.482   2.428   3.375 -0.0218 -0.2408  0.3085
12969TIP3   OH260321   4.693   3.920   5.824 -0.3017 -0.1367  0.3569
12969TIP3    H160322   4.684   3.978   5.900 -0.6284  1.0513 -0.5638
12969TIP3    H260323   4.787   3.914   5.809 -0.3331  1.7843 -0.7442
12970TIP3   OH260324   0.461   5.389   6.261  0.2930  0.0183 -0.4584
12970TIP3    H160325   0.464   5.461   6.324  0.9601 -1.0126  0.7080
12970TIP3    H260326   0.389   5.333   6.291  0.8638 -0.6845 -0.3669
12971TIP3   OH260327   2.665   5.744   0.001 -0.0031  0.1616 -0.3125
12971TIP3    H160328   2.705   5.705   0.079  0.3700  0.6023 -0.2824
12971TIP3    H260329   2.738   5.755  -0.060 -0.0870  0.8844 -0.2914
12972TIP3   OH260330   3.597   1.251  12.333  0.3198 -0.3715 -0.1910
12972TIP3    H160331   3.543   1.216  12.262 -3.0897  0.1539  2.0341
12972TIP3    H260332   3.590   1.346  12.324 -0.1081 -0.3056  0.8207
12973TIP3   OH260333   0.933   1.054  13.172  0.1318 -0.9018  0.5851
12973TIP3    H160334   0.897   1.033  13.086 -0.4128 -0.7891  0.7876
12973TIP3    H260335   1.025   1.026  13.167  0.3745  0.0287 -0.3685
12974TIP3   OH260336   4.887   6.566  14.231 -0.5757  0.5392 -0.2145
12974TIP3    H160337   4.840   6.624  14.290  0.3094  1.5677 -0.4991
12974TIP3    H260338   4.958   6.620  14.196  1.8791 -1.4699  1.5192
12975TIP3   OH260339   1.042   2.440   1.882 -0.0509 -0.1366  0.0219
12975TIP3    H160340   1.006   2.427   1.795 -0.7575  0.7832  0.1715
12975TIP3    H260341   1.136   2.451   1.868 -0.0524 -0.8005 -0.5385
12976TIP3   OH260342   1.097   3.701  12.801  0.1687 -0.2007  0.2078
12976TIP3    H160343   1.020   3.674  12.752  0.3965  1.8353 -1.3407
12976TIP3    H260344   1.171   3.664  12.753  0.1841 -2.4612  1.8953
12977TIP3   OH260345   5.736   4.488   3.835 -0.0235 -0.6631  0.2368
12977TIP3    H160346   5.796   4.555   3.869  1.5421  0.1082 -3.8011
12977TIP3    H260347   5.781   4.405   3.853  0.9490 -0.2487 -0.2490
12978TIP3   OH260348   2.777   3.999   1.549  0.2177 -0.2776 -0.0175
12978TIP3    H160349   2.825   3.917   1.557  1.0408  0.3457  2.0101
12978TIP3    H260350   2.715   3.997   1.622  0.7255  1.1824  0.4804
12979TIP3   OH260351   1.454   1.834   2.825  0.1153 -0.2085 -0.3592
12979TIP3    H160352   1.504   1.864   2.901  0.0398  2.9071 -1.4676
12979TIP3    H260353   1.377   1.792   2.862  0.1423  1.1419  1.3248
12980TIP3   OH260354   2.300   2.431   4.534  0.0121 -0.4626 -0.2656
12980TIP3    H160355   2.281   2.402   4.445  0.9656  0.7797 -0.8818
12980TIP3    H260356   2.384   2.391   4.555 -0.2305 -0.7867  0.1087
12981TIP3   OH260357   6.084   3.917   4.403 -0.7669  0.8129  0.2038
12981TIP3    H160358   6.083   3.956   4.315  1.7626 -1.7172 -1.0446
12981TIP3    H260359   6.170   3.877   4.410 -1.6018 -0.6016  3.1760
12982TIP3   OH260360   4.686   0.080   3.309  0.2591  0.0752  0.4576
12982TIP3    H160361   4.643   0.142   3.249  0.3874 -0.5219 -0.2496
12982TIP3    H260362   4.661  -0.006   3.277  2.9152 -0.3252 -0.6556
12983TIP3   OH260363   5.940   6.734   3.484  0.1592  0.6549 -0.4158
12983TIP3    H160364   6.004   6.805   3.469  0.8971  0.0983  0.0544
12983TIP3    H260365   5.921   6.701   3.396  1.3481  0.1078 -0.4730
12984TIP3   OH260366   4.103   1.893   4.992 -0.1414  0.6615 -0.5850
12984TIP3    H160367   4.068   1.818   5.040  1.8606  1.4682  2.2625
12984TIP3    H260368   4.143   1.856   4.914 -2.0852 -0.8593 -0.8936
12985TIP3   OH260369   4.612   4.558  16.733  0.0137  0.4477  0.1808
12985TIP3    H160370   4.539   4.617  16.752 -0.6296 -0.5185  0.7354
12985TIP3    H260371   4.634   4.577  16.641  0.3826  2.1420  0.6053
12986TIP3   OH260372   0.827   1.505   4.833  0.5304 -0.5122 -0.6492
12986TIP3    H160373   0.833   1.460   4.749  0.0134 -1.2774 -0.2826
12986TIP3    H260374   0.862   1.442   4.896 -2.1064 -1.2571  0.1585
12987TIP3   OH260375   2.614   6.405  14.883 -0.3363 -0.7127  0.3650
12987TIP3    H160376   2.682   6.388  14.818  0.8534 -0.5550  1.5298
12987TIP3    H260377   2.639   6.490  14.921 -2.1724  0.1971 -0.4023
12988TIP3   OH260378   3.750   2.752   3.635 -0.2412  0.0714  0.2890
12988TIP3    H160379   3.689   2.734   3.564 -0.8517 -0.4844  0.9447
12988TIP3    H260380   3.694   2.767   3.711  0.4681 -2.3206  1.3312
12989TIP3   OH260381   4.170   2.526  13.203  0.3753  0.2007 -0.2518
12989TIP3    H160382   4.220   2.571  13.135  0.3775 -0.6426 -0.8112
12989TIP3    H260383   4.201   2.436  13.201 -1.6964 -0.5364 -1.1546
12990TIP3   OH260384   3.873   3.848  13.090 -0.2443 -0.2473 -0.0128
12990TIP3    H160385   3.969   3.841  13.084 -0.2694 -0.4991 -0.1430
12990TIP3    H260386   3.842   3.818  13.005 -0.5727 -3.3870  1.1156
12991TIP3   OH260387   6.384   6.076  17.038  0.1516 -0.5252  0.3764
12991TIP3    H160388   6.431   6.094  16.956  0.0589 -1.2361  0.1639
12991TIP3    H260389   6.416   5.990  17.065 -1.5691 -1.3685 -0.1703
12992TIP3   OH260390   6.168   1.902   3.705  0.0932  0.1391 -0.2083
12992TIP3    H160391   6.251   1.939   3.675  0.3556 -0.8334 -0.7015
12992TIP3    H260392   6.149   1.833   3.642 -2.5971  2.3043 -1.8351
12993TIP3   OH260393   1.078   2.330   4.447  0.7750 -0.0416 -0.2229
12993TIP3    H160394   1.160   2.379   4.455  0.5547  0.0221  2.1208
12993TIP3    H260395   1.023   2.364   4.518 -0.6911 -1.1845 -0.7864
12994TIP3   OH260396   2.370   4.758  15.322  0.7611 -0.0713 -0.0402
12994TIP3    H160397   2.392   4.804  15.240  0.5691 -1.1527 -0.7144
12994TIP3    H260398   2.358   4.828  15.386 -0.3473  0.8795 -1.2365
12995TIP3   OH260399   2.950   2.086   2.222 -0.3056  0.2264  0.2471
12995TIP3    H160400   2.915   2.123   2.303 -1.6775 -2.0879  0.7416
12995TIP3    H260401   2.957   2.161   2.162 -0.2760  1.7682  2.1283
12996TIP3   OH260402   3.260   2.835   3.139 -0.3110 -0.0275 -0.3193
12996TIP3    H160403   3.283   2.753   3.183 -1.6303 -0.4660 -0.4059
12996TIP3    H260404   3.263   2.901   3.209  1.0312 -0.0984 -0.3104
12997TIP3   OH260405   1.687   1.550   0.456  0.1945  0.1494  0.0974
12997TIP3    H160406   1.666   1.596   0.375 -0.3188 -1.8929 -0.9506
12997TIP3    H260407   1.763   1.495   0.434  1.3132  1.0760  1.5504
12998TIP3   OH260408   5.831   6.391  14.243  0.1540  0.0112 -0.0854
12998TIP3    H160409   5.906   6.332  14.233  0.4925  0.5413 -0.7161
12998TIP3    H260410   5.800   6.406  14.154 -0.9009 -0.4496  0.1957
12999TIP3   OH260411   4.716   0.572  14.488  0.2324 -0.3318 -0.0160
12999TIP3    H160412   4.782   0.636  14.513  0.0481 -1.0958  2.4854
12999TIP3    H260413   4.733   0.556  14.395  3.0446  0.0889  0.3953
13000TIP3   OH260414   6.749   5.030   1.915 -0.1573 -0.1209 -0.3370
13000TIP3    H160415   6.692   5.084   1.969  0.4731  1.0868 -0.8521
13000TIP3    H260416   6.695   5.009   1.838 -0.8290 -1.2954  0.4353
13001TIP3   OH260417   4.618   6.111   5.674 -0.4575  0.1905  0.9906
13001TIP3    H160418   4.588   6.148   5.591 -1.0308 -0.0182  1.0973
13001TIP3    H260419   4.661   6.183   5.719  1.9255 -0.2772 -0.4784
13002TIP3   OH260420   3.070   3.219   1.438  0.4879  0.4440  0.1866
13002TIP3    H160421   3.118   3.200   1.358 -1.3134  4.3713 -1.9746
13002TIP3    H260422   2.978   3.222   1.411 -0.0508  2.9934  2.0999
13003TIP3   OH260423   5.966   3.185  11.996  0.1404 -0.1565  0.2272
13003TIP3    H160424   5.922   3.269  11.979 -1.2585 -0.8881  0.1147
13003TIP3    H260425   6.059   3.206  11.998 -0.0263  1.0222 -2.1328
13004TIP3   OH260426   1.970   3.446  16.312 -0.1906  0.0572 -0.3587
13004TIP3    H160427   2.033   3.498  16.262  1.7617 -3.1469 -1.4381
13004TIP3    H260428   1.950   3.372  16.254 -0.7725 -1.7820  2.1216
13005TIP3   OH260429   0.363   2.946  15.195 -0.0077 -0.5709  0.0299
13005TIP3    H160430   0.361   2.850  15.187 -0.6256 -0.6071  0.5331
13005TIP3    H260431   0.303   2.976  15.127  0.7836 -0.4997 -0.6444
13006TIP3   OH260432   4.060   0.508  11.282 -0.0974 -0.5963  0.2093
13006TIP3    H160433   4.112   0.428  11.274  2.2552  0.9406 -0.4568
13006TIP3    H260434   4.011   0.513  11.200 -1.6070 -2.2473  0.9899
13007TIP3   OH260435   2.187   2.473  17.055  0.2351 -0.6127 -0.1664
13007TIP3    H160436   2.276   2.507  17.044 -0.6672  2.1508  0.5337
13007TIP3    H260437   2.141   2.505  16.977 -0.5042 -0.7081  0.2315
13008TIP3   OH260438   0.655   3.300  15.739  0.1033  0.5238  0.4850
13008TIP3    H160439   0.672   3.298  15.645 -2.5551  0.4494 -0.0289
13008TIP3    H260440   0.737   3.332  15.778  1.3691  0.1232 -1.7958
13009TIP3   OH260441   6.739   2.081   5.489  0.1098 -0.0125 -0.5900
13009TIP3    H160442   6.673   2.014   5.505 -0.4768  0.4211 -1.1856
13009TIP3    H260443   6.817   2.049   5.534 -0.6835 -0.2267  0.6535
13010TIP3   OH260444   3.880   0.925  13.644 -0.9329  0.1834 -0.7745
13010TIP3    H160445   3.963   0.954  13.605 -0.2059  1.2650  1.5113
13010TIP3    H260446   3.813   0.977  13.600 -0.2433  0.5391 -1.4152
13011TIP3   OH260447   0.190   0.383  17.181 -0.4420 -0.3751 -0.1302
13011TIP3    H160448   0.166   0.452  17.118 -1.9568 -1.3034 -0.6116
13011TIP3    H260449   0.223   0.312  17.127  1.4428  0.0658  0.3912
13012TIP3   OH260450   0.926   1.798  13.398 -0.0567  0.0441  1.2308
13012TIP3    H160451   0.835   1.824  13.391  0.2782  1.0135  0.4216
13012TIP3    H260452   0.960   1.847  13.473 -0.5583 -1.4141  2.4533
13013TIP3   OH260453   4.537   4.258  15.989  0.1203 -0.5146  0.2109
13013TIP3    H160454   4.452   4.223  16.015 -0.3436 -1.4340 -2.4354
13013TIP3    H260455   4.580   4.186  15.944  1.5739  0.4983 -0.0394
13014TIP3   OH260456   6.697   1.012  14.414 -0.4902  0.2409  0.2846
13014TIP3    H160457   6.668   1.097  14.381  0.2091  0.7657  1.0087
13014TIP3    H260458   6.755   1.033  14.487  0.1472 -0.8410  0.1055
13015TIP3   OH260459   3.839   4.675  12.758 -0.5353 -0.3435  0.8674
13015TIP3    H160460   3.817   4.767  12.743 -1.4514 -0.3463  2.1225
13015TIP3    H260461   3.833   4.664  12.853 -1.3436 -1.9265  0.6477
13016TIP3   OH260462   0.114   4.650  14.097 -0.2775 -0.4266 -0.7362
13016TIP3    H160463   0.039   4.687  14.051 -0.2318  0.7454  0.1091
13016TIP3    H260464   0.177   4.721  14.102  1.3714 -1.7129 -2.4134
13017TIP3   OH260465   1.440   5.470  14.488 -0.1951 -0.3402  0.0801
13017TIP3    H160466   1.372   5.531  14.516  0.9336  0.5446  0.9649
13017TIP3    H260467   1.393   5.391  14.463 -1.4996  0.0872  1.1323
13018TIP3   OH260468   0.357   3.646   2.294  0.6367  0.6360 -0.0240
13018TIP3    H160469   0.409   3.640   2.375 -0.3905  1.0562  0.6745
13018TIP3    H260470   0.395   3.719   2.246  1.1704  0.4671  0.1399
13019TIP3   OH260471   5.380   3.976   4.371 -0.4033 -0.1507  0.2292
13019TIP3    H160472   5.322   3.994   4.445 -0.5311 -1.3102  0.4151
13019TIP3    H260473   5.421   4.061   4.352 -1.1138  0.3725  0.9812
13020TIP3   OH260474   4.380   6.576  16.215  0.3631  0.1104  0.2959
13020TIP3    H160475   4.375   6.669  16.196  0.7006 -0.0351 -0.5179
13020TIP3    H260476   4.455   6.567  16.274 -1.5571  0.7577  2.9737
13021TIP3   OH260477   4.425   3.982  15.986  0.2881  0.3101 -1.0657
13021TIP3    H160478   4.354   3.971  16.050  1.1920  0.5339 -0.0099
13021TIP3    H260479   4.503   3.947  16.030  1.1091  1.3377 -1.6851
13022TIP3   OH260480   5.399   2.816  16.610 -0.5236 -0.0448  0.2263
13022TIP3    H160481   5.309   2.800  16.637 -0.7574  0.9389  0.0810
13022TIP3    H260482   5.429   2.887  16.667  0.2419 -0.5509  0.4498
13023TIP3   OH260483   3.690   6.405  13.184  0.5797 -0.2737  0.3915
13023TIP3    H160484   3.712   6.438  13.271 -1.5039  0.4520  0.6709
13023TIP3    H260485   3.624   6.338  13.199  1.1790 -1.1061 -0.5526
13024TIP3   OH260486   0.133   0.465  10.591  0.0833  0.0397 -0.0134
13024TIP3    H160487   0.228   0.464  10.605 -0.0824 -2.6191  1.1783
13024TIP3    H260488   0.118   0.400  10.522 -0.9547 -0.2605  0.4820
13025TIP3   OH260489   2.371   0.039   5.126  0.0009 -0.2599  0.4222
13025TIP3    H160490   2.447   0.002   5.171 -0.6814 -1.4636  0.6016
13025TIP3    H260491   2.345  -0.028   5.063  0.1947  0.9048 -0.9498
13026TIP3   OH260492   2.598   4.891  11.811 -0.7966 -0.0102 -0.5994
13026TIP3    H160493   2.639   4.977  11.796 -1.3113  0.3948  0.3365
13026TIP3    H260494   2.516   4.910  11.855 -0.6914 -1.0254  0.0506
13027TIP3   OH260495   1.940   5.598   1.170  0.0892  0.1916 -0.3783
13027TIP3    H160496   1.962   5.687   1.197  0.6892  0.9153 -3.0977
13027TIP3    H260497   1.844   5.598   1.160  0.2405  1.0009 -1.9046
13028TIP3   OH260498   5.270   3.820  17.068 -0.1276  0.5623  0.1321
13028TIP3    H160499   5.327   3.883  17.113  0.6703  0.5418 -0.8430
13028TIP3    H260500   5.280   3.841  16.975 -1.5281  0.3958 -0.0644
13029TIP3   OH260501   5.500   4.917  12.903 -0.5047 -1.1148 -0.1880
13029TIP3    H160502   5.512   5.005  12.867 -1.2979 -1.0737 -0.3477
13029TIP3    H260503   5.515   4.927  12.997 -2.0230 -0.5353 -0.0061
13030TIP3   OH260504   5.573   6.050  13.428  0.4241 -0.1023  0.1823
13030TIP3    H160505   5.654   6.087  13.394  0.3815 -0.0040  0.1867
13030TIP3    H260506   5.563   5.967  13.381  0.1253  0.2505 -0.3939
13031TIP3   OH260507   4.811   6.258  14.027  0.4341  0.8603 -0.2580
13031TIP3    H160508   4.790   6.336  13.975 -1.7637 -0.3107 -1.2054
13031TIP3    H260509   4.886   6.218  13.981 -0.5738  0.6172 -1.7164
13032TIP3   OH260510   1.885   0.565  12.654  0.3379  0.0495  0.0532
13032TIP3    H160511   1.821   0.496  12.637 -0.3217  0.9017 -0.9808
13032TIP3    H260512   1.874   0.585  12.747  0.4469 -1.1379  0.3363
13033TIP3   OH260513   4.340   5.157   1.227 -0.4710 -0.6538  0.0565
13033TIP3    H160514   4.274   5.125   1.165  0.0265  1.5626 -1.6779
13033TIP3    H260515   4.292   5.216   1.284  0.3226  2.6048 -2.5142
13034TIP3   OH260516   0.796   6.159  11.219 -0.1609  0.3173  0.4632
13034TIP3    H160517   0.783   6.251  11.196 -0.2554  0.2491  0.2451
13034TIP3    H260518   0.885   6.140  11.189 -1.2771 -0.5721 -2.5245
13035TIP3   OH260519   5.298   4.622  15.225  0.0670  0.3196  0.5004
13035TIP3    H160520   5.204   4.636  15.227 -0.4642 -2.3163 -1.8681
13035TIP3    H260521   5.328   4.666  15.145  0.1121 -2.3475 -1.0138
13036TIP3   OH260522   6.425   0.959   0.044 -0.8453 -0.4338 -0.0438
13036TIP3    H160523   6.336   0.979   0.072 -0.6595  0.0880  0.1783
13036TIP3    H260524   6.462   0.908   0.117 -1.2537 -1.4326 -0.5259
13037TIP3   OH260525   5.064   2.331  15.450 -0.2452 -0.6204  0.8401
13037TIP3    H160526   5.061   2.283  15.533 -0.3289 -0.6437  0.8240
13037TIP3    H260527   5.067   2.262  15.383  3.0012 -0.6349  0.9051
13038TIP3   OH260528   3.220   4.860  12.886  0.4301 -0.4262 -0.3157
13038TIP3    H160529   3.125   4.856  12.899  0.3258  0.4193 -0.7621
13038TIP3    H260530   3.241   4.784  12.832 -0.0385 -0.4653 -0.4414
13039TIP3   OH260531   3.995   0.189  12.221 -0.1604  0.4153 -0.1155
13039TIP3    H160532   3.964   0.272  12.184 -1.4793 -0.4556 -1.0422
13039TIP3    H260533   4.022   0.211  12.310  0.5677  2.0533 -0.7226
13040TIP3   OH260534   4.452   1.087  17.231 -0.3653 -0.2305  0.9225
13040TIP3    H160535   4.518   1.144  17.272 -0.7515  1.0159 -0.1601
13040TIP3    H260536   4.456   1.109  17.138 -0.9574 -1.5567  0.5756
13041TIP3   OH260537   5.549   2.893   4.004  0.1646  0.3374  0.9070
13041TIP3    H160538   5.623   2.853   4.049  1.2147  1.5105  0.2545
13041TIP3    H260539   5.574   2.894   3.912 -0.7423  0.5676  0.6544
13042TIP3   OH260540   4.559   2.239   3.908  0.4904 -0.0457 -0.0335
13042TIP3    H160541   4.500   2.180   3.862 -1.2695  0.8934  0.9563
13042TIP3    H260542   4.510   2.265   3.987  1.1890  2.7506 -0.4710
13043TIP3   OH260543   2.044   3.331   1.252 -0.0756 -0.9418 -0.3196
13043TIP3    H160544   2.104   3.354   1.323 -1.3249 -0.2024  0.5085
13043TIP3    H260545   2.099   3.283   1.189  1.2905 -0.6138  0.5985
13044TIP3   OH260546   0.828   0.548  12.706 -0.2262 -0.3686  0.3799
13044TIP3    H160547   0.773   0.469  12.701  1.1572 -1.3627  0.6784
13044TIP3    H260548   0.853   0.566  12.616 -0.1788 -0.5326  0.3609
13045TIP3   OH260549   3.381   4.611  15.945 -0.2187  0.2580 -0.2282
13045TIP3    H160550   3.436   4.537  15.972 -1.7101  0.2849  3.2109
13045TIP3    H260551   3.299   4.572  15.917 -1.0274  0.5414  1.6399
13046TIP3   OH260552   0.402   5.466   2.034 -0.0840  0.1353  0.0514
13046TIP3    H160553   0.371   5.537   1.979  1.6983 -0.1415 -1.3335
13046TIP3    H260554   0.491   5.491   2.059 -0.0166 -0.8621  0.8725
13047TIP3   OH260555   5.879   2.052   4.098 -0.2734  0.0280 -0.8979
13047TIP3    H160556   5.946   2.116   4.123 -0.4600 -0.5818  1.2770
13047TIP3    H260557   5.803   2.106   4.077 -0.1758  0.5850  0.1132
13048TIP3   OH260558   5.874   3.976  13.847 -0.0784  0.2344  0.6960
13048TIP3    H160559   5.901   3.955  13.936 -0.6644  0.2484  0.8803
13048TIP3    H260560   5.823   3.900  13.818  0.3406  0.1103  0.2716
13049TIP3   OH260561   5.475   3.833   7.065  0.2752 -0.5147  0.2621
13049TIP3    H160562   5.547   3.792   7.017  1.9506  0.8622  1.5368
13049TIP3    H260563   5.454   3.912   7.015 -2.0283 -2.1215 -1.4355
13050TIP3   OH260564   4.514   4.849   0.322 -0.2438 -0.9028  0.4453
13050TIP3    H160565   4.561   4.784   0.374 -0.7562 -0.7938  1.0608
13050TIP3    H260566   4.443   4.800   0.280  0.2817 -1.0248 -0.2982
13051TIP3   OH260567   5.229   2.538  11.101 -0.2298 -0.3294  0.0305
13051TIP3    H160568   5.209   2.457  11.147  0.7852 -0.9202 -0.5678
13051TIP3    H260569   5.225   2.605  11.169  1.7130 -1.2515  1.0853
13052TIP3   OH260570   4.436   6.324  17.138 -0.0543  0.0328  0.1955
13052TIP3    H160571   4.492   6.270  17.082 -1.6270  0.3314 -1.7155
13052TIP3    H260572   4.362   6.267  17.159 -0.7276  0.7699 -0.1665
13053TIP3   OH260573   2.417   5.840   3.503  0.5741 -0.8259 -0.1497
13053TIP3    H160574   2.408   5.897   3.580  1.2575 -0.0937 -0.6022
13053TIP3    H260575   2.425   5.752   3.540  0.2106 -0.5540  0.5911
13054TIP3   OH260576   1.961   5.578   0.708 -0.0112  0.4300  0.0991
13054TIP3    H160577   1.875   5.601   0.673  0.1640 -0.9428 -1.2962
13054TIP3    H260578   1.943   5.507   0.771  0.0837  0.2401 -0.0870
13055TIP3   OH260579   0.400   1.094   5.620  0.4823  0.2734 -0.4735
13055TIP3    H160580   0.428   1.085   5.711  0.1624 -2.3096 -0.6006
13055TIP3    H260581   0.421   1.185   5.598  0.4450  0.9850  2.2057
13056TIP3   OH260582   5.647   0.429   6.439  0.3875  0.4550  0.5813
13056TIP3    H160583   5.567   0.471   6.473 -0.4053 -0.9256  0.4721
13056TIP3    H260584   5.651   0.345   6.486  0.5319 -0.4694 -1.0606
13057TIP3   OH260585   1.754   2.057   0.103 -0.1705  0.0732  0.0628
13057TIP3    H160586   1.833   2.041   0.153 -0.0845  3.1090  1.0017
13057TIP3    H260587   1.705   1.975   0.107  1.3171 -0.7330  2.4004
13058TIP3   OH260588   2.904   1.974   0.682 -0.1736 -0.0652 -0.1744
13058TIP3    H160589   2.905   2.049   0.742  0.7450 -0.4540  0.3088
13058TIP3    H260590   2.903   1.897   0.740  0.5793 -0.4417 -0.6573
13059TIP3   OH260591   4.492   3.854  11.811  0.0857  0.5080  0.5102
13059TIP3    H160592   4.432   3.840  11.738 -0.1455  1.2418  0.5574
13059TIP3    H260593   4.477   3.779  11.869 -1.6253  1.2807  1.0945
13060TIP3   OH260594   0.411   4.006   2.561  0.0976 -0.4574 -0.2735
13060TIP3    H160595   0.343   4.048   2.613  0.4728 -0.2796  0.0728
13060TIP3    H260596   0.423   3.921   2.602  3.5617  1.3517  2.7416
13061TIP3   OH260597   2.302   4.120  12.936 -0.2976 -0.0596 -0.3683
13061TIP3    H160598   2.212   4.129  12.968 -0.4683 -0.5676 -0.6967
13061TIP3    H260599   2.353   4.179  12.991 -0.6674 -0.5450  0.5146
13062TIP3   OH260600   0.890   3.400  10.730  0.1195  0.1130 -0.3401
13062TIP3    H160601   0.854   3.406  10.641  2.2539 -1.7103 -1.3881
13062TIP3    H260602   0.905   3.306  10.743  0.6267  0.4503  1.6155
13063TIP3   OH260603   3.293   6.785  12.324 -0.5334 -0.0334  0.4028
13063TIP3    H160604   3.321   6.874  12.347 -0.3847 -0.3296  1.4293
13063TIP3    H260605   3.212   6.797  12.275  1.2633  0.8397 -2.4763
13064TIP3   OH260606   5.151   4.743   4.257  0.5315 -0.4215 -0.0978
13064TIP3    H160607   5.162   4.835   4.231  0.1927 -0.4457 -0.3225
13064TIP3    H260608   5.200   4.736   4.339 -0.5566  0.2909  0.6204
13065TIP3   OH260609   5.154   0.595  12.973 -0.3718  0.4538 -0.0898
13065TIP3    H160610   5.123   0.511  13.006 -0.6740  0.4725 -0.3208
13065TIP3    H260611   5.088   0.658  13.001  0.7825  0.9102  1.6712
13066TIP3   OH260612   2.650   6.131   4.350 -0.0916  0.7265  0.3261
13066TIP3    H160613   2.562   6.099   4.328  0.6015 -0.9514 -0.1193
13066TIP3    H260614   2.699   6.122   4.269  1.0489 -0.3701  1.1209
13067TIP3   OH260615   6.505   3.833   3.180 -0.3807  0.3723  0.2570
13067TIP3    H160616   6.417   3.797   3.190 -1.0834  2.0226  0.2807
13067TIP3    H260617   6.490   3.925   3.156  1.3353  1.0033  1.5076
13068TIP3   OH260618   2.570   3.842   6.857 -0.2781 -0.1026  0.1148
13068TIP3    H160619   2.656   3.842   6.900  1.3482 -1.2723 -3.0040
13068TIP3    H260620   2.532   3.758   6.881  0.3513 -0.4884 -0.2375
13069TIP3   OH260621   4.821   3.199   5.532 -0.2062 -0.1397  0.3899
13069TIP3    H160622   4.818   3.113   5.491 -1.0862  0.0737  0.0094
13069TIP3    H260623   4.749   3.247   5.494  0.6959  1.0095  0.0957
13070TIP3   OH260624   4.352   4.559   6.338 -0.7600  0.1014  0.2802
13070TIP3    H160625   4.353   4.508   6.257 -2.5895  0.4595  0.0294
13070TIP3    H260626   4.321   4.646   6.311 -0.4267  0.5102  1.1991
13071TIP3   OH260627   0.578   5.705   3.393 -0.3311 -0.5598  0.1893
13071TIP3    H160628   0.660   5.711   3.443  0.2304 -2.5788 -0.4181
13071TIP3    H260629   0.597   5.753   3.312  0.9414 -2.6024 -0.7697
13072TIP3   OH260630   3.109   6.192   2.575 -0.8718 -0.5736 -0.0334
13072TIP3    H160631   3.120   6.283   2.550 -0.7104 -0.7677 -0.6757
13072TIP3    H260632   3.081   6.195   2.667  0.7207  0.0486  0.4358
13073TIP3   OH260633   3.008   6.365  15.472 -0.3988  0.0522 -0.0064
13073TIP3    H160634   3.035   6.446  15.430 -0.1571 -0.6337 -1.2100
13073TIP3    H260635   3.079   6.345  15.533  0.5516 -0.3109 -1.1921
13074TIP3   OH260636   5.121   1.213  15.246 -0.2967 -0.0039  0.1894
13074TIP3    H160637   5.153   1.302  15.232 -0.3257  0.0085  0.2030
13074TIP3    H260638   5.026   1.219  15.231 -0.3430  0.0305  0.5085
13075TIP3   OH260639   2.984   5.784  16.433 -0.3272  0.7071  0.0590
13075TIP3    H160640   3.045   5.842  16.389  1.4763 -1.6951 -0.7091
13075TIP3    H260641   2.977   5.820  16.522 -0.2862  2.8157 -0.7660
13076TIP3   OH260642   4.356   2.784  16.739  0.1468 -0.2337 -0.0999
13076TIP3    H160643   4.338   2.711  16.798 -0.8660  1.4558  1.7452
13076TIP3    H260644   4.448   2.805  16.755  0.0030 -0.0787  0.5283
13077TIP3   OH260645   4.576   4.418  17.027  0.0296  0.0944  0.2151
13077TIP3    H160646   4.647   4.372  17.072 -1.3027 -0.6344  1.6482
13077TIP3    H260647   4.506   4.352  17.020 -0.1573  0.4945 -2.0721
13078TIP3   OH260648   4.267   6.223  12.142  0.4134 -0.3656 -0.0848
13078TIP3    H160649   4.275   6.315  12.116  1.4376  0.1680  2.0097
13078TIP3    H260650   4.328   6.213  12.215 -2.2382 -1.8151  2.0260
13079TIP3   OH260651   4.642   5.846  11.866  0.1816 -0.3460 -0.2187
13079TIP3    H160652   4.562   5.896  11.885  0.2799 -0.6829  1.0994
13079TIP3    H260653   4.610   5.767  11.823 -0.2645 -0.8066  0.9397
13080TIP3   OH260654   2.409   5.979  13.281  0.6533  0.2253  0.0621
13080TIP3    H160655   2.487   5.986  13.337  0.2530  0.8576  0.5520
13080TIP3    H260656   2.338   5.956  13.342  0.6317 -1.2924 -0.5207
13081TIP3   OH260657   2.362   0.075   2.608  0.5294  0.3910 -0.1440
13081TIP3    H160658   2.430   0.138   2.585  1.4753 -1.0649 -1.4471
13081TIP3    H260659   2.286   0.102   2.557  1.5917 -0.7726 -2.4326
13082TIP3   OH260660   0.461   5.502  14.909 -0.6476  0.4543 -0.1718
13082TIP3    H160661   0.520   5.472  14.841 -0.1016  3.5932 -1.1667
13082TIP3    H260662   0.458   5.430  14.972  1.7105 -1.0183 -1.6810
13083TIP3   OH260663   6.460   2.553   0.971  0.0397  0.1589  0.5413
13083TIP3    H160664   6.382   2.602   0.943 -0.3472 -0.8837 -0.2508
13083TIP3    H260665   6.480   2.496   0.896 -0.4392 -2.0051  2.0078
13084TIP3   OH260666   1.557   3.670  14.014 -0.1235 -0.0146 -0.0927
13084TIP3    H160667   1.580   3.750  13.967  1.1417  0.3767  1.1576
13084TIP3    H260668   1.496   3.700  14.082  2.0098  0.2836  1.7575
13085TIP3   OH260669   1.145   5.095  11.287  0.6854 -0.8823  0.5184
13085TIP3    H160670   1.078   5.043  11.243  0.4456 -0.5396  0.4724
13085TIP3    H260671   1.228   5.053  11.264  0.6206 -0.2877 -0.8650
13086TIP3   OH260672   1.292   0.580  15.798 -0.1603 -0.0044 -0.0022
13086TIP3    H160673   1.283   0.675  15.804 -0.4380 -0.1565  2.6776
13086TIP3    H260674   1.387   0.565  15.799 -0.1200  0.2418 -0.2337
13087TIP3   OH260675   3.072   4.408  14.749 -0.4848 -0.3654 -0.6280
13087TIP3    H160676   3.096   4.473  14.683  1.6054 -0.4564 -0.0049
13087TIP3    H260677   3.001   4.448  14.799  0.3547  1.1804 -0.6530
13088TIP3   OH260678   3.403   1.595  12.068 -0.4179  0.2021  0.2272
13088TIP3    H160679   3.462   1.559  12.134 -1.0023  1.6232  1.5723
13088TIP3    H260680   3.322   1.546  12.078 -0.2908 -0.0263  0.1287
13089TIP3   OH260681   5.901   1.519  11.390 -0.4397 -0.2600 -0.8015
13089TIP3    H160682   5.996   1.503  11.385 -0.5509 -0.7730 -1.4177
13089TIP3    H260683   5.862   1.443  11.346 -1.1773 -0.5271  0.3083
13090TIP3   OH260684   2.700   0.390  17.041 -0.0128 -0.3919  0.6699
13090TIP3    H160685   2.721   0.469  17.090 -0.7621  1.1923 -1.4866
13090TIP3    H260686   2.658   0.332  17.106 -2.2103  2.1620  1.6374
13091TIP3   OH260687   0.374   2.824   2.701  0.1612  0.5061  0.3056
13091TIP3    H160688   0.361   2.730   2.713  0.4101  0.3213 -0.8032
13091TIP3    H260689   0.441   2.830   2.632 -0.5913  1.5020 -0.3520
13092TIP3   OH260690   0.605   1.645   0.482  0.0454  0.2933 -0.6393
13092TIP3    H160691   0.660   1.580   0.436 -0.4494 -0.5097 -0.1069
13092TIP3    H260692   0.610   1.619   0.574  1.2974  2.0917 -0.1757
13093TIP3   OH260693   4.141   1.350   4.492 -0.4522 -0.0263  0.0757
13093TIP3    H160694   4.055   1.323   4.524 -0.8330  0.3830 -0.5879
13093TIP3    H260695   4.147   1.443   4.514 -1.2621  0.5925 -2.1556
13094TIP3   OH260696   0.635   5.832  12.749 -0.1414  0.5390 -0.1510
13094TIP3    H160697   0.598   5.919  12.767 -2.1726 -0.5773  1.2468
13094TIP3    H260698   0.589   5.802  12.671 -1.6948 -0.5361  1.1487
13095TIP3   OH260699   4.181   1.470   6.191 -0.1835 -0.2401 -0.3484
13095TIP3    H160700   4.171   1.551   6.241 -0.2114  0.2149 -1.0780
13095TIP3    H260701   4.253   1.423   6.234 -1.0839 -0.4900  0.9359
13096TIP3   OH260702   3.989   1.870  12.003  0.2255 -0.4713 -0.1871
13096TIP3    H160703   4.075   1.833  12.025  0.0857 -0.8037 -0.2008
13096TIP3    H260704   4.009   1.956  11.966  0.6726 -1.3975 -2.1285
13097TIP3   OH260705   5.714   1.201  15.666 -0.0562  0.4870  0.3145
13097TIP3    H160706   5.696   1.123  15.613 -0.2418  1.5093 -1.1334
13097TIP3    H260707   5.632   1.249  15.668  0.1363  0.7937  0.9819
13098TIP3   OH260708   3.772   4.180   2.656  0.0318  0.0566  0.2955
13098TIP3    H160709   3.852   4.126   2.661 -0.8499 -1.3192 -0.2470
13098TIP3    H260710   3.800   4.259   2.611  1.0641 -0.4912 -0.0540
13099TIP3   OH260711   2.001   0.392   5.230 -0.1407 -0.1461 -0.5307
13099TIP3    H160712   1.983   0.479   5.196  1.2040  1.3172  2.3876
13099TIP3    H260713   2.067   0.356   5.171  2.2422  2.3928  0.4841
13100TIP3   OH260714   3.810   6.624   4.722  0.2446 -0.2496  0.3327
13100TIP3    H160715   3.882   6.605   4.783 -1.4176 -0.0699  2.4241
13100TIP3    H260716   3.760   6.694   4.766 -0.8000  0.1236 -1.4158
13101TIP3   OH260717   1.065   4.134   6.387  0.5247  0.2036 -0.0161
13101TIP3    H160718   1.051   4.040   6.401 -0.8277  0.4897  0.5945
13101TIP3    H260719   1.156   4.149   6.414  0.8201 -0.9626 -0.3200
13102TIP3   OH260720   2.290   6.572  15.406 -0.5680  0.1244  0.1933
13102TIP3    H160721   2.249   6.491  15.436  0.0094  0.2214  1.2947
13102TIP3    H260722   2.237   6.642  15.445 -1.9093  0.3146 -1.9022
13103TIP3   OH260723   2.881   1.185   6.736  0.1614 -0.4377 -0.1727
13103TIP3    H160724   2.879   1.124   6.663 -0.7042 -1.3248  0.5712
13103TIP3    H260725   2.965   1.168   6.780  1.5184  1.3583 -1.9788
13104TIP3   OH260726   3.903   1.149   4.008  0.6060  0.0730 -0.2511
13104TIP3    H160727   3.941   1.236   4.021 -0.5680  0.7272 -1.0010
13104TIP3    H260728   3.960   1.108   3.943  0.2052  0.9377 -1.1709
13105TIP3   OH260729   1.013   5.104  14.287 -0.1818 -0.2962  0.3749
13105TIP3    H160730   0.997   5.064  14.201 -0.5600 -0.3775  0.4798
13105TIP3    H260731   1.093   5.062  14.318  1.9428  2.2259 -1.4305
13106TIP3   OH260732   2.218   4.420   5.182 -0.8983 -0.0714  0.3637
13106TIP3    H160733   2.267   4.497   5.154 -0.4581 -0.3569  0.3498
13106TIP3    H260734   2.279   4.371   5.236 -1.3399 -0.1590  0.7876
13107TIP3   OH260735   0.169   2.149   2.977  0.4793 -1.2299 -0.6240
13107TIP3    H160736   0.102   2.098   3.022  1.7784 -2.0916  0.3594
13107TIP3    H260737   0.125   2.184   2.899 -1.3866 -0.8844  0.5810
13108TIP3   OH260738   3.135   6.366   4.560 -0.0394 -0.7223 -0.4524
13108TIP3    H160739   3.128   6.271   4.571 -1.2742 -0.5434  0.3729
13108TIP3    H260740   3.054   6.391   4.515 -2.8448  0.7745  5.0320
13109TIP3   OH260741   2.188   3.111   3.938 -0.4181  0.1878 -0.3130
13109TIP3    H160742   2.177   3.205   3.922 -2.8648 -0.5021 -3.3080
13109TIP3    H260743   2.118   3.089   3.999 -0.7239  0.0831 -0.6970
13110TIP3   OH260744   3.613   4.785  15.809 -0.0448 -0.3503  0.3576
13110TIP3    H160745   3.600   4.879  15.806  0.0453 -0.3937 -2.1491
13110TIP3    H260746   3.532   4.750  15.846  0.2120  0.7458  1.9765
13111TIP3   OH260747   1.965   2.958   3.015 -0.5646 -0.0902  0.2491
13111TIP3    H160748   2.012   2.887   2.972 -0.7807  1.5693 -2.9075
13111TIP3    H260749   1.919   3.002   2.944 -0.7782  2.9341  2.1776
13112TIP3   OH260750   2.474   0.431  10.908 -0.0468  0.0208 -0.5429
13112TIP3    H160751   2.424   0.389  10.978  1.0520  0.7901  0.7178
13112TIP3    H260752   2.409   0.454  10.842 -1.3193  0.7546  0.9488
13113TIP3   OH260753   2.926   2.945  11.826  0.4717  0.1580  0.6115
13113TIP3    H160754   3.004   2.891  11.827  0.2570 -0.1920 -0.6768
13113TIP3    H260755   2.853   2.882  11.824  0.2371  0.4623 -1.7224
13114TIP3   OH260756   4.208   4.392  13.444 -0.3918 -0.4797  0.2106
13114TIP3    H160757   4.185   4.316  13.389 -0.1442  0.2835 -0.9631
13114TIP3    H260758   4.302   4.383  13.460 -0.1144  0.2253 -0.9571
13115TIP3   OH260759   0.184   3.103  15.034 -0.4421  0.5893  0.4688
13115TIP3    H160760   0.182   3.196  15.060  2.7221  0.7358  0.4477
13115TIP3    H260761   0.155   3.104  14.943 -0.8866  1.5155  0.6081
13116TIP3   OH260762   0.246   1.863  11.852  0.0218 -0.4582 -0.0324
13116TIP3    H160763   0.272   1.899  11.767  0.0142 -1.6573 -0.5661
13116TIP3    H260764   0.155   1.891  11.863  0.8324  1.9738  0.8601
13117TIP3   OH260765   2.730   1.768  16.735 -0.0442 -0.1482  0.0976
13117TIP3    H160766   2.664   1.783  16.666  1.4748 -3.3677 -2.1885
13117TIP3    H260767   2.807   1.817  16.705 -0.1424  0.4235  0.7690
13118TIP3   OH260768   0.341   2.783   1.006  0.1223  0.0993  0.5263
13118TIP3    H160769   0.282   2.717   1.043  0.1702  0.5143  1.3775
13118TIP3    H260770   0.361   2.840   1.080  1.9818 -0.3074  0.3650
13119TIP3   OH260771   0.825   3.109  12.928  0.5123 -0.3838 -0.3477
13119TIP3    H160772   0.804   3.059  12.850  0.3284 -1.7144  0.5447
13119TIP3    H260773   0.757   3.177  12.931  0.9137  0.0885 -1.6946
13120TIP3   OH260774   1.145   4.280  16.004  0.5621 -0.3729  0.3106
13120TIP3    H160775   1.208   4.253  15.937  0.5344  0.3650 -0.0100
13120TIP3    H260776   1.188   4.350  16.051 -0.8433  1.6159 -1.2911
13121TIP3   OH260777   3.020   4.931  17.200 -0.2169  0.4609  0.4132
13121TIP3    H160778   3.103   4.961  17.163  0.3939  0.5634  1.8418
13121TIP3    H260779   3.031   4.941  17.295 -1.5849 -0.2352  0.6562
13122TIP3   OH260780   0.077   2.978   4.311  0.3317 -0.1216  0.2507
13122TIP3    H160781   0.137   2.904   4.300  0.2646 -0.2322  0.6254
13122TIP3    H260782  -0.009   2.943   4.289  0.2589 -0.2318  0.6983
13123TIP3   OH260783   3.247   4.564   0.749  0.3563 -0.2550 -0.1334
13123TIP3    H160784   3.319   4.502   0.740 -0.1239 -0.8095 -0.2243
13123TIP3    H260785   3.170   4.514   0.723 -0.0179  0.4216 -0.3291
13124TIP3   OH260786   2.992   3.348  15.256  0.2530 -0.1012 -0.1838
13124TIP3    H160787   2.981   3.439  15.282  0.5995  0.6385 -2.4858
13124TIP3    H260788   2.932   3.299  15.313 -1.8126  1.8543 -0.6271
13125TIP3   OH260789   2.757   4.897   0.014  0.1728  0.3163  0.3107
13125TIP3    H160790   2.724   4.969   0.068  0.6380  0.9752 -0.2767
13125TIP3    H260791   2.852   4.901   0.025  0.2533  0.3369 -0.4116
13126TIP3   OH260792   6.038   6.195   0.888 -0.0503 -0.0703  0.3323
13126TIP3    H160793   5.945   6.191   0.867 -0.2080  1.5146  0.5971
13126TIP3    H260794   6.083   6.177   0.806 -0.5875 -0.9754  0.2352
13127TIP3   OH260795   2.114   0.866   5.686 -0.6665 -0.5013 -0.0321
13127TIP3    H160796   2.098   0.867   5.592  0.9919 -1.1613 -0.3491
13127TIP3    H260797   2.028   0.881   5.726 -1.6932 -1.9414 -1.6295
13128TIP3   OH260798   6.669   5.011  10.817  0.1173  0.3076  0.2360
13128TIP3    H160799   6.701   5.085  10.766  0.5192 -0.4304 -0.6006
13128TIP3    H260800   6.672   4.937  10.756  1.1378 -0.7041  1.4724
13129TIP3   OH260801   3.012   6.437  16.655  0.4373 -0.3959 -0.3568
13129TIP3    H160802   3.055   6.522  16.652 -0.1895 -0.0142  0.8821
13129TIP3    H260803   2.985   6.428  16.747 -0.9102 -1.2272 -0.8312
13130TIP3   OH260804   4.308   3.291   3.009 -0.0894 -0.0947 -0.6620
13130TIP3    H160805   4.396   3.290   3.047 -0.0099  1.6694 -0.7728
13130TIP3    H260806   4.265   3.213   3.046  1.4825 -0.9354 -0.5680
13131TIP3   OH260807   4.029   2.502   6.486 -0.3252 -0.3008 -0.0204
13131TIP3    H160808   3.938   2.474   6.487 -0.3645 -0.2592 -1.6275
13131TIP3    H260809   4.026   2.596   6.504 -0.5667 -0.3853  0.3676
13132TIP3   OH260810   5.593   2.940  12.638  0.5340 -0.6644  0.6533
13132TIP3    H160811   5.505   2.906  12.654  0.1454 -0.5518 -1.2028
13132TIP3    H260812   5.649   2.862  12.633 -0.0183 -0.9399 -1.5196
13133TIP3   OH260813   3.517   6.069   4.289  0.2600  0.8491 -0.2558
13133TIP3    H160814   3.511   6.108   4.202 -1.9687  0.3888 -0.3386
13133TIP3    H260815   3.526   5.976   4.273 -1.1864  0.6469 -0.0289
13134TIP3   OH260816   4.098   5.520  13.371  0.0159 -0.1637  0.9739
13134TIP3    H160817   4.100   5.521  13.467 -0.0768  0.2703  0.9728
13134TIP3    H260818   4.072   5.609  13.347  0.6049 -0.1097  0.5329
13135TIP3   OH260819   3.559   0.706  15.339 -0.3382  0.1384 -0.1461
13135TIP3    H160820   3.599   0.645  15.276 -0.6393 -0.8110  0.5574
13135TIP3    H260821   3.466   0.704  15.318 -0.3631  0.2517 -0.0415
13136TIP3   OH260822   4.674   6.511   1.350 -0.1014  0.3520  0.1843
13136TIP3    H160823   4.682   6.604   1.371 -0.2773  0.8829 -1.9983
13136TIP3    H260824   4.762   6.486   1.323 -0.6138  0.5546 -1.7528
13137TIP3   OH260825   1.996   3.901  10.609 -0.9685 -0.5924  0.4691
13137TIP3    H160826   1.935   3.933  10.543  0.0673  1.9448  0.7047
13137TIP3    H260827   1.959   3.931  10.692  0.7540  1.3264  0.5898
13138TIP3   OH260828   3.474   0.718   2.263 -0.0809 -0.5613  0.1411
13138TIP3    H160829   3.426   0.636   2.273 -0.8373 -0.5299 -2.6997
13138TIP3    H260830   3.498   0.744   2.352 -1.3865 -2.9253  1.2108
13139TIP3   OH260831   2.809   4.113   5.056  0.7924 -0.2868  0.6198
13139TIP3    H160832   2.888   4.109   5.002 -0.1034 -1.6670 -0.6221
13139TIP3    H260833   2.834   4.071   5.138  0.8643 -2.2864 -0.4074
13140TIP3   OH260834   4.841   0.162   2.554  0.1393  0.5214  0.4230
13140TIP3    H160835   4.896   0.086   2.572 -3.0858 -1.4043  2.7721
13140TIP3    H260836   4.796   0.140   2.472  0.4579  0.6438  0.2157
13141TIP3   OH260837   3.671   0.785   5.751  0.1308  0.2325  0.5113
13141TIP3    H160838   3.763   0.791   5.725 -0.0066 -0.1310 -0.0644
13141TIP3    H260839   3.673   0.740   5.836  0.4663  0.0631  0.4144
13142TIP3   OH260840   1.881   5.458   3.102  1.1491 -0.8441 -0.4657
13142TIP3    H160841   1.956   5.482   3.157 -0.9970  1.5939  1.5244
13142TIP3    H260842   1.848   5.541   3.068 -1.5725 -1.6792 -0.0115
13143TIP3   OH260843   3.087   5.002   5.404  0.1629 -0.2887 -0.1025
13143TIP3    H160844   3.087   5.000   5.309 -0.7338 -0.5363 -0.1018
13143TIP3    H260845   3.062   4.913   5.430  1.5597 -0.5613  0.3822
13144TIP3   OH260846   5.906   1.215  12.624 -0.0866 -0.6967 -0.2844
13144TIP3    H160847   5.946   1.198  12.709 -0.7992  0.0250  0.1968
13144TIP3    H260848   5.978   1.208  12.562  0.8389  0.7406  0.5936
13145TIP3   OH260849   4.997   3.487  16.810 -0.0152  0.0164 -0.0356
13145TIP3    H160850   5.083   3.469  16.847 -0.3217  0.7891  1.0896
13145TIP3    H260851   4.967   3.566  16.856 -1.6963 -0.7541  0.2368
13146TIP3   OH260852   5.615   0.525   1.036 -0.1777 -0.2085 -0.3147
13146TIP3    H160853   5.605   0.436   1.070 -0.1771 -0.3590 -0.7129
13146TIP3    H260854   5.637   0.577   1.114  1.9282 -0.9212 -0.4000
13147TIP3   OH260855   6.658   1.373   3.555  0.0996 -0.4564  0.3627
13147TIP3    H160856   6.715   1.436   3.511 -1.1780 -0.9270 -2.0515
13147TIP3    H260857   6.705   1.290   3.550  0.0078 -0.4850 -0.0186
13148TIP3   OH260858   5.601   3.200   6.580  0.3950 -0.2252 -0.5637
13148TIP3    H160859   5.677   3.144   6.598 -0.2167 -0.6764  0.7240
13148TIP3    H260860   5.539   3.177   6.649  0.4734  2.7137  0.5491
13149TIP3   OH260861   4.125   6.376  11.644 -0.4364 -0.2436  0.5647
13149TIP3    H160862   4.165   6.290  11.656  1.8686  0.3488 -2.4954
13149TIP3    H260863   4.183   6.436  11.691 -1.3034 -0.1588  1.5497
13150TIP3   OH260864   0.366   3.524   0.886  0.4642  0.0004  0.1615
13150TIP3    H160865   0.351   3.528   0.792  1.4492  1.4351  0.0534
13150TIP3    H260866   0.314   3.449   0.916 -0.1233 -0.2454 -1.4616
13151TIP3   OH260867   1.481   6.225  12.969  0.2030  0.1252 -0.4277
13151TIP3    H160868   1.451   6.225  13.060 -1.1483 -0.7812 -0.8614
13151TIP3    H260869   1.566   6.269  12.972 -0.3367  1.1125  1.1023
13152TIP3   OH260870   0.647   3.698   5.432 -0.0229  0.2005  0.1393
13152TIP3    H160871   0.557   3.728   5.423  0.0649  0.2396 -0.5854
13152TIP3    H260872   0.668   3.656   5.349  0.5564 -0.0075  0.3832
13153TIP3   OH260873   5.378   6.451   6.457  0.2749  0.2881  0.1207
13153TIP3    H160874   5.444   6.427   6.391 -0.0929 -2.8594  0.8443
13153TIP3    H260875   5.302   6.477   6.405  0.8899  0.4556 -0.7179
13154TIP3   OH260876   2.289   5.338   0.348 -0.2818  0.2901  0.4824
13154TIP3    H160877   2.220   5.381   0.297  0.8437  1.8921  0.2967
13154TIP3    H260878   2.264   5.354   0.439  0.6807  2.2560  0.4154
13155TIP3   OH260879   2.403   0.503  16.563 -0.6061 -0.0303 -0.2250
13155TIP3    H160880   2.413   0.587  16.517  0.0389  0.0101 -0.0141
13155TIP3    H260881   2.409   0.526  16.656  3.8483 -0.8158 -0.2088
13156TIP3   OH260882   6.637   4.318  11.612  0.7494  0.7655  0.0699
13156TIP3    H160883   6.590   4.398  11.634 -0.0034  0.2892  0.1947
13156TIP3    H260884   6.624   4.261  11.688 -0.0676 -0.0794 -0.7084
13157TIP3   OH260885   4.108   3.512   4.772 -0.1973  0.1352 -0.4185
13157TIP3    H160886   4.138   3.452   4.704 -0.0539  1.3344 -1.4152
13157TIP3    H260887   4.185   3.528   4.826 -0.4767 -1.3711  0.4726
13158TIP3   OH260888   0.326   5.621   3.342  0.2568  0.1614  0.3150
13158TIP3    H160889   0.292   5.627   3.431 -0.0017  0.5782  0.1934
13158TIP3    H260890   0.419   5.641   3.350 -0.1028  1.9596  0.2650
13159TIP3   OH260891   6.655   3.490  13.336  0.2697 -0.3556 -0.0026
13159TIP3    H160892   6.734   3.542  13.325 -0.7342  1.4978  1.3215
13159TIP3    H260893   6.669   3.413  13.281  1.9954  1.0705 -1.6119
13160TIP3   OH260894   3.171   4.472  15.835  0.8685  0.2813 -0.3135
13160TIP3    H160895   3.202   4.391  15.875  1.7657  0.0571 -1.4476
13160TIP3    H260896   3.120   4.443  15.759 -0.8644  0.7045  0.6429
13161TIP3   OH260897   0.891   0.349   0.270 -0.2990 -0.4468  0.7722
13161TIP3    H160898   0.813   0.353   0.326 -0.5623  2.1669  0.2886
13161TIP3    H260899   0.863   0.391   0.189  0.8427 -1.9350 -0.4174
13162TIP3   OH260900   0.328   4.983  10.991  0.3815  1.0780 -0.7008
13162TIP3    H160901   0.312   5.078  10.989  0.7255  1.1486 -0.3983
13162TIP3    H260902   0.251   4.946  11.033 -0.0209  1.1611 -1.3627
13163TIP3   OH260903   3.381   4.118  16.640 -0.9303 -0.5034  0.0249
13163TIP3    H160904   3.288   4.112  16.617 -0.4167 -2.5067 -1.6968
13163TIP3    H260905   3.402   4.211  16.635 -2.8879 -0.0036  0.6620
13164TIP3   OH260906   2.179   4.090  12.435 -0.1057 -0.2379  0.3333
13164TIP3    H160907   2.149   4.004  12.464 -1.5473  0.9033  2.3195
13164TIP3    H260908   2.161   4.148  12.508  0.1773  1.9084 -1.2509
13165TIP3   OH260909   0.796   0.761  16.484 -0.1165  0.3165 -0.8841
13165TIP3    H160910   0.879   0.773  16.438 -0.0108 -1.7882 -1.2992
13165TIP3    H260911   0.813   0.689  16.545 -1.2591  0.7524 -0.0347
13166TIP3   OH260912   1.120   0.295   6.562  0.0645 -0.0771  0.4779
13166TIP3    H160913   1.177   0.343   6.502  0.8977  0.0462  1.3622
13166TIP3    H260914   1.175   0.224   6.595 -1.1969 -1.7682 -0.9370
13167TIP3   OH260915   5.944   6.306  17.148 -0.2802 -0.4114 -0.6747
13167TIP3    H160916   6.011   6.291  17.081 -0.9875  1.9382 -1.9563
13167TIP3    H260917   5.864   6.268  17.111  0.1616 -2.6775  0.5964
13168TIP3   OH260918   4.259   4.244  15.340  0.3751 -0.0580  0.2787
13168TIP3    H160919   4.260   4.299  15.418 -1.7209 -0.4151  0.5771
13168TIP3    H260920   4.328   4.281  15.284  1.1037  0.9141  1.7790
13169TIP3   OH260921   0.606   0.906  16.099 -0.0696  0.2778  0.7221
13169TIP3    H160922   0.637   0.898  16.189 -0.0680  0.4870  0.7387
13169TIP3    H260923   0.512   0.920  16.106 -0.4911 -2.1787  0.6214
13170TIP3   OH260924   4.145   2.873   0.347  0.4891  0.3019  0.0292
13170TIP3    H160925   4.213   2.909   0.290 -0.8339  1.2991 -0.9513
13170TIP3    H260926   4.078   2.840   0.287  0.3232 -1.1358  0.9693
13171TIP3   OH260927   3.836   1.566  10.635  0.1514  0.6670  0.1767
13171TIP3    H160928   3.772   1.566  10.564 -0.2965  1.4202  0.5797
13171TIP3    H260929   3.906   1.508  10.604 -1.3395 -1.2284  0.2856
13172TIP3   OH260930   4.440   6.726   3.361  0.0396 -0.5961  0.2265
13172TIP3    H160931   4.408   6.690   3.278  2.0206 -1.3421 -0.2388
13172TIP3    H260932   4.494   6.656   3.399  0.7620  0.4503  1.1870
13173TIP3   OH260933   3.325   5.018   0.996  0.3527 -0.4251 -0.4442
13173TIP3    H160934   3.335   5.087   0.931  1.0858 -0.4895 -0.3956
13173TIP3    H260935   3.320   4.937   0.944  0.1988 -0.4056 -0.4606
13174TIP3   OH260936   0.874   6.499  16.809  0.3718 -0.2379  0.0300
13174TIP3    H160937   0.965   6.476  16.827 -0.5749 -2.7449  2.1383
13174TIP3    H260938   0.835   6.509  16.896 -1.9272 -1.7902 -0.7707
13175TIP3   OH260939   6.307   4.165  11.085  0.0367  0.7912 -0.1196
13175TIP3    H160940   6.292   4.204  10.999 -0.8804  0.1794 -0.2414
13175TIP3    H260941   6.230   4.190  11.136  0.6847  1.3407  0.5944
13176TIP3   OH260942   5.427   0.906  14.841  0.0476  0.1845 -0.0481
13176TIP3    H160943   5.444   0.825  14.793 -0.3383 -0.0682  0.2350
13176TIP3    H260944   5.381   0.962  14.778 -0.4506 -0.1420  0.0216
13177TIP3   OH260945   1.244   5.981  12.706 -0.2327 -0.3133  0.3483
13177TIP3    H160946   1.204   5.897  12.684 -1.7107  0.0989  1.3348
13177TIP3    H260947   1.209   6.042  12.641  3.0423 -0.9792 -2.1091
13178TIP3   OH260948   4.711   4.313  12.244  0.2233  0.4174 -0.1143
13178TIP3    H160949   4.766   4.238  12.267 -0.6659  0.1036  1.0207
13178TIP3    H260950   4.755   4.352  12.169  1.2465 -0.6454 -0.0891
13179TIP3   OH260951   6.576   5.390  14.620 -0.1814 -0.5632  0.5321
13179TIP3    H160952   6.621   5.473  14.639  1.9496 -1.6953  0.5400
13179TIP3    H260953   6.605   5.366  14.532  0.9888 -2.4282  1.4015
13180TIP3   OH260954   6.474   0.955   2.402  0.2629 -0.2759  0.5693
13180TIP3    H160955   6.556   0.934   2.446 -0.1689 -0.4569  1.2846
13180TIP3    H260956   6.451   1.043   2.432 -0.0544 -0.4152  0.7405
13181TIP3   OH260957   0.024   0.028   2.772 -0.0940 -0.3641  0.5856
13181TIP3    H160958   0.062   0.113   2.792  0.3520 -0.0740 -1.3960
13181TIP3    H260959  -0.034   0.010   2.846 -3.3576  3.5488 -0.7898
13182TIP3   OH260960   6.205   6.191  15.042  0.6886  0.8816  0.8921
13182TIP3    H160961   6.175   6.282  15.033 -2.5348 -0.3289 -1.9024
13182TIP3    H260962   6.170   6.162  15.126  0.0343  1.6401  0.8898
13183TIP3   OH260963   5.740   2.317  11.389  0.8067 -0.3141  0.0579
13183TIP3    H160964   5.667   2.375  11.364  0.9791  0.2892  0.8986
13183TIP3    H260965   5.710   2.229  11.367 -1.1897 -0.3370  2.5521
13184TIP3   OH260966   5.077   6.082  17.008 -0.2786 -0.1242 -0.2162
13184TIP3    H160967   5.027   6.158  16.976  0.9917  0.8926  0.1684
13184TIP3    H260968   5.028   6.052  17.085 -0.9171  0.1644 -0.5049
13185TIP3   OH260969   3.575   2.278  12.902 -0.3701 -0.0316 -0.6582
13185TIP3    H160970   3.654   2.331  12.913 -0.9714  1.1969 -2.0563
13185TIP3    H260971   3.607   2.188  12.894  0.7837  0.3100  0.1057
13186TIP3   OH260972   5.320   0.493  11.509 -0.2937  0.0470 -0.5167
13186TIP3    H160973   5.373   0.544  11.570 -0.2612  1.9483 -2.0991
13186TIP3    H260974   5.367   0.409  11.501  0.6906  0.4825  0.6285
13187TIP3   OH260975   6.488   1.370   3.021 -0.6776  0.7711  0.0767
13187TIP3    H160976   6.460   1.279   3.027 -1.4960  1.1135  1.7537
13187TIP3    H260977   6.552   1.381   3.091  1.2185  0.8848 -1.6286
13188TIP3   OH260978   4.644   3.692  15.082  0.4024  0.0291 -0.6005
13188TIP3    H160979   4.616   3.603  15.060  1.1572  0.3713 -3.0170
13188TIP3    H260980   4.671   3.731  14.999  1.1493  2.1593  0.5895
13189TIP3   OH260981   4.776   1.343   6.032  0.3697 -0.0199 -0.0741
13189TIP3    H160982   4.869   1.353   6.012  0.6365  1.0733  1.6169
13189TIP3    H260983   4.773   1.320   6.125 -1.0025 -1.2092 -0.3877
13190TIP3   OH260984   0.218   6.319   6.336 -0.1856 -0.3955 -0.0156
13190TIP3    H160985   0.309   6.291   6.347 -0.1590 -0.4835 -0.4328
13190TIP3    H260986   0.220   6.373   6.257 -0.1529  1.1469  1.0166
13191TIP3   OH260987   6.541   2.357  16.236 -0.2290 -0.1957 -0.0767
13191TIP3    H160988   6.613   2.400  16.282 -0.7034 -0.3653  0.8261
13191TIP3    H260989   6.574   2.270  16.216  0.3343  0.2013 -0.9415
13192TIP3   OH260990   3.292   2.581   1.877  0.1649 -0.3904  0.5448
13192TIP3    H160991   3.357   2.547   1.816  0.2050 -1.8081  1.3545
13192TIP3    H260992   3.208   2.563   1.835  0.0719 -3.6947  1.9963
13193TIP3   OH260993   5.732   3.833  12.459  0.0207 -0.2871  0.0585
13193TIP3    H160994   5.649   3.791  12.438  0.0023 -1.3908  2.1865
13193TIP3    H260995   5.793   3.760  12.473  1.3527  0.5017 -1.4096
13194TIP3   OH260996   4.486   0.534   4.271 -0.8663  0.4323 -0.6873
13194TIP3    H160997   4.438   0.488   4.202 -0.7354  2.1730 -1.9910
13194TIP3    H260998   4.573   0.496   4.269 -1.5759 -1.2847  0.2540
13195TIP3   OH260999   3.180   2.743  16.384 -0.0734 -0.1139  0.1720
13195TIP3    H161000   3.265   2.788  16.381 -0.1940  0.0601 -1.0347
13195TIP3    H261001   3.190   2.670  16.324 -0.5275 -0.5492  0.6279
13196TIP3   OH261002   0.997   0.146   4.514  0.4750  0.5987  0.2273
13196TIP3    H161003   0.902   0.137   4.525  0.6326  0.9105  1.9767
13196TIP3    H261004   1.010   0.145   4.419 -1.2058 -0.1338 -0.0244
13197TIP3   OH261005   0.255   5.530   6.484  0.4344 -0.1490 -0.4232
13197TIP3    H161006   0.244   5.436   6.492 -1.0149  0.1111  0.8843
13197TIP3    H261007   0.167   5.563   6.467  0.5772  1.1520  1.2115
13198TIP3   OH261008   2.648   2.785  15.338  0.2463  0.3859  0.7253
13198TIP3    H161009   2.603   2.816  15.417  0.9962  0.0459  1.2982
13198TIP3    H261010   2.708   2.856  15.316 -0.2842  0.6705  0.1948
13199TIP3   OH261011   5.208   1.491  15.267 -0.0607 -0.1297  0.3381
13199TIP3    H161012   5.285   1.457  15.221 -1.2877 -0.4425 -1.5696
13199TIP3    H261013   5.232   1.580  15.291  0.8870 -0.2136 -0.2758
13200TIP3   OH261014   1.560   0.647  14.094  0.0722  0.0702  0.0610
13200TIP3    H161015   1.616   0.683  14.163  1.8900  0.6083 -1.6493
13200TIP3    H261016   1.532   0.562  14.129  0.8010  0.4065  1.5374
13201TIP3   OH261017   4.938   4.516  11.803 -0.4962  0.3168  0.5856
13201TIP3    H161018   4.854   4.533  11.761  0.8122  1.7070 -1.5793
13201TIP3    H261019   4.995   4.586  11.772  1.6719 -1.0264  1.4077
13202TIP3   OH261020   0.236   4.069   5.206  0.5950 -0.5365  0.2911
13202TIP3    H161021   0.176   4.078   5.279 -0.0803 -1.5147 -0.1447
13202TIP3    H261022   0.189   4.107   5.131  2.0555  2.3449  0.7389
13203TIP3   OH261023   4.306   1.802  14.032 -0.2308  0.0862  0.2647
13203TIP3    H161024   4.306   1.897  14.026 -0.0802  0.0719  0.0108
13203TIP3    H261025   4.397   1.779  14.052 -0.3664  0.0242  0.8400
13204TIP3   OH261026   5.658   3.722  14.756 -0.1447  0.1696 -0.0718
13204TIP3    H161027   5.710   3.739  14.678 -0.0839  1.6783  0.2935
13204TIP3    H261028   5.595   3.794  14.761 -1.3962 -0.9131  0.2383
13205TIP3   OH261029   4.254   4.001  16.230 -0.0122  0.1949  0.4342
13205TIP3    H161030   4.256   4.091  16.197  1.6262  0.5783  1.5099
13205TIP3    H261031   4.164   3.972  16.215 -0.1223  1.4116 -1.4850
13206TIP3   OH261032   1.341   0.350  13.327  0.2831 -0.5029 -0.2407
13206TIP3    H161033   1.422   0.324  13.283  0.5051 -0.2324  0.0009
13206TIP3    H261034   1.327   0.283  13.393  0.0485 -0.8100 -0.5991
13207TIP3   OH261035   3.595   2.871   5.224 -0.0777  0.1762 -0.0083
13207TIP3    H161036   3.645   2.806   5.274  0.3428  1.7732  1.7268
13207TIP3    H261037   3.508   2.870   5.264 -0.1659  0.4588 -0.1947
13208TIP3   OH261038   5.883   5.823  15.490 -0.4559 -0.0546 -0.0720
13208TIP3    H161039   5.931   5.801  15.410 -0.7162 -0.3578 -0.1453
13208TIP3    H261040   5.936   5.890  15.532 -0.5985  0.5158 -0.7856
13209TIP3   OH261041   6.636   4.669   3.107  0.1612 -0.5797 -0.2590
13209TIP3    H161042   6.701   4.668   3.176 -0.8641 -0.3868  0.7233
13209TIP3    H261043   6.578   4.595   3.126 -1.2671  0.6270  0.2198
13210TIP3   OH261044   5.117   5.563   3.708 -0.5297 -0.2481 -0.2091
13210TIP3    H161045   5.154   5.652   3.703  1.7465 -1.2178 -1.2696
13210TIP3    H261046   5.078   5.549   3.622 -0.1837 -0.5577 -0.3177
13211TIP3   OH261047   1.033   5.787   3.244  0.2433 -0.5492 -0.0957
13211TIP3    H161048   1.062   5.718   3.303 -1.2206 -0.0148  1.2934
13211TIP3    H261049   0.984   5.742   3.175  0.6527 -1.0389 -0.0629
13212TIP3   OH261050   4.861   2.694   5.895  0.5367 -0.4051 -0.3966
13212TIP3    H161051   4.822   2.721   5.978  1.6108 -0.9416  0.2756
13212TIP3    H261052   4.807   2.739   5.829 -1.1054 -0.9692  0.5223
13213TIP3   OH261053   2.577   0.402   0.794 -0.9971 -0.0516 -0.3966
13213TIP3    H161054   2.500   0.459   0.801 -0.9988 -0.1041  0.0118
13213TIP3    H261055   2.633   0.428   0.867 -0.7648 -0.2288 -0.5096
13214TIP3   OH261056   6.633   2.974   2.672 -0.0849 -0.4901  0.2417
13214TIP3    H161057   6.592   3.052   2.710 -1.1020 -0.9906  0.1875
13214TIP3    H261058   6.727   2.991   2.679 -0.2840  0.3513  1.0430
13215TIP3   OH261059   6.282   5.443   4.054 -0.5166  0.0304 -0.1858
13215TIP3    H161060   6.204   5.393   4.030 -2.0906  1.5958  1.4724
13215TIP3    H261061   6.274   5.524   4.003  0.8850 -0.4687 -1.2221
13216TIP3   OH261062   4.379   4.751  13.413  0.2890 -0.4981  0.5982
13216TIP3    H161063   4.443   4.709  13.355 -0.3601  0.5861 -0.9452
13216TIP3    H261064   4.383   4.844  13.389 -2.3366 -0.5084 -0.0195
13217TIP3   OH261065   0.947   2.236  12.511  0.0874  0.0577 -0.3950
13217TIP3    H161066   0.951   2.141  12.502  0.9050  0.2579 -2.2458
13217TIP3    H261067   0.853   2.255  12.518 -0.0858 -0.8710 -0.1161
13218TIP3   OH261068   6.379   2.275  11.615 -0.1648  0.5020  0.2132
13218TIP3    H161069   6.366   2.370  11.609  0.0992  0.6688  1.9977
13218TIP3    H261070   6.367   2.255  11.708 -0.4406 -1.2519 -0.1894
13219TIP3   OH261071   0.127   2.195   5.251 -0.0790 -0.1588  0.5639
13219TIP3    H161072   0.069   2.142   5.306 -2.5558  3.2680  1.5242
13219TIP3    H261073   0.212   2.192   5.295 -1.8443  1.9796  4.4079
13220TIP3   OH261074   0.590   0.186  16.338  0.3246 -0.0265  0.6545
13220TIP3    H161075   0.546   0.183  16.423 -1.0612 -1.8215 -0.0812
13220TIP3    H261076   0.537   0.245  16.285 -3.2605 -4.5420 -1.2159
13221TIP3   OH261077   0.057   3.714   3.584  0.4271 -0.6465 -0.5207
13221TIP3    H161078   0.043   3.777   3.654 -1.1641 -0.2098 -1.2074
13221TIP3    H261079   0.056   3.766   3.504  1.4341 -1.2458 -0.9384
13222TIP3   OH261080   1.157   5.061   0.281  0.2915 -0.2521  0.4823
13222TIP3    H161081   1.136   5.155   0.274  2.7667  0.2176 -1.4743
13222TIP3    H261082   1.252   5.059   0.293  0.6213 -2.5745 -2.0977
13223TIP3   OH261083   4.253   4.944   1.539 -1.1757 -0.0688 -0.1215
13223TIP3    H161084   4.216   4.874   1.593 -0.1512 -0.7742 -0.3323
13223TIP3    H261085   4.183   4.967   1.478 -0.2981 -3.5264 -2.5962
13224TIP3   OH261086   0.661   4.215   3.810  0.0165 -0.3644  0.1379
13224TIP3    H161087   0.695   4.304   3.810  0.8997 -0.7044 -0.2091
13224TIP3    H261088   0.608   4.210   3.889  0.7194  0.1750  0.6413
13225TIP3   OH261089   1.985   1.560  17.099  1.2083 -0.4961 -0.1257
13225TIP3    H161090   2.060   1.507  17.072  1.1511 -0.1801 -0.9493
13225TIP3    H261091   1.987   1.635  17.039  0.7350 -0.0542  0.4079
13226TIP3   OH261092   6.247   0.642  15.558  0.5896 -0.1468  0.2609
13226TIP3    H161093   6.310   0.570  15.557  0.4872 -0.2460  0.8585
13226TIP3    H261094   6.301   0.720  15.575  0.2878 -0.5086  3.0672
13227TIP3   OH261095   0.533   3.807  11.169 -0.0676 -0.0910 -0.0317
13227TIP3    H161096   0.618   3.852  11.159 -0.2476  0.3853  0.5616
13227TIP3    H261097   0.471   3.865  11.126  0.1822 -1.3685 -2.1810
13228TIP3   OH261098   4.118   1.528   5.464 -0.0763 -0.1486  0.0940
13228TIP3    H161099   4.073   1.580   5.399  2.6463  1.1573 -0.8412
13228TIP3    H261100   4.056   1.459   5.488 -2.2183  1.1325 -1.6398
13229TIP3   OH261101   6.529   2.894  15.577  0.0898 -0.0245  0.4036
13229TIP3    H161102   6.467   2.823  15.564 -0.0851  0.1935  0.0506
13229TIP3    H261103   6.495   2.966  15.525  0.0968  0.4218  1.0155
13230TIP3   OH261104   5.082   5.568  15.265  0.1616  0.3090 -0.0885
13230TIP3    H161105   5.027   5.526  15.332 -0.1049  1.2381  0.2818
13230TIP3    H261106   5.168   5.528  15.277  0.1822  0.6590  0.9933
13231TIP3   OH261107   0.730   6.427   0.130 -0.0838  0.1003 -0.6269
13231TIP3    H161108   0.681   6.442   0.211  0.6492 -0.8372 -0.0009
13231TIP3    H261109   0.674   6.464   0.061 -1.9411 -1.4288  0.0035
13232TIP3   OH261110   2.429   6.452  11.256 -0.5878 -0.3112  0.2441
13232TIP3    H161111   2.355   6.400  11.284  0.2005 -1.9453 -0.6143
13232TIP3    H261112   2.407   6.480  11.167 -0.3203 -0.4954  0.1199
13233TIP3   OH261113   3.594   1.581  15.577  0.1855  0.4022  0.1881
13233TIP3    H161114   3.677   1.620  15.605 -0.2419  1.3803  0.0974
13233TIP3    H261115   3.532   1.604  15.646  0.0425 -0.5749  0.3977
13234TIP3   OH261116   6.657   1.521   0.089 -0.4757 -0.5050  0.1716
13234TIP3    H161117   6.720   1.482   0.150 -0.6967  0.6127  1.1212
13234TIP3    H261118   6.687   1.611   0.078  0.2373 -1.0028 -2.2891
13235TIP3   OH261119   2.552   1.176   0.207 -0.7814 -0.9485  0.0313
13235TIP3    H161120   2.574   1.269   0.213 -0.1924 -1.0884  0.0652
13235TIP3    H261121   2.636   1.131   0.200 -1.1056 -1.3914 -1.2419
13236TIP3   OH261122   2.078   4.115  11.972 -0.3932  0.2222 -0.2747
13236TIP3    H161123   2.038   4.032  11.997  1.7249 -0.7203  0.1485
13236TIP3    H261124   2.086   4.163  12.055  2.3952 -0.9989  0.2213
13237TIP3   OH261125   2.102   6.495  13.807 -0.5549  0.0948  0.0645
13237TIP3    H161126   2.060   6.565  13.856  2.4038  0.1193  2.7095
13237TIP3    H261127   2.156   6.540  13.741 -1.9865  0.1522 -1.0849
13238TIP3   OH261128   6.581   0.801   5.122  0.3416 -0.8072  0.5004
13238TIP3    H161129   6.606   0.779   5.032 -0.1031 -2.0116  0.6624
13238TIP3    H261130   6.486   0.790   5.124 -0.2796  3.6729 -0.0995
13239TIP3   OH261131   2.083   0.544   2.394 -0.5382  0.0880 -0.1244
13239TIP3    H161132   2.139   0.535   2.317  0.7600 -2.5784  1.1076
13239TIP3    H261133   2.097   0.635   2.423  1.5158  0.0917 -1.0521
13240TIP3   OH261134   0.679   2.910  17.027  0.0172 -0.0004 -0.7045
13240TIP3    H161135   0.631   2.955  16.957  0.3060  1.7085  0.1698
13240TIP3    H261136   0.762   2.885  16.987  0.0314  0.6466 -1.0902
13241TIP3   OH261137   0.708   4.789   5.525 -0.4204  0.3315 -0.0475
13241TIP3    H161138   0.744   4.813   5.440  0.0281 -1.6378 -0.4511
13241TIP3    H261139   0.620   4.828   5.526 -0.5985  0.0000 -1.6085
13242TIP3   OH261140   4.373   2.874  12.857  0.1624  0.2330  0.4126
13242TIP3    H161141   4.402   2.852  12.768  2.3757  0.3132  1.0923
13242TIP3    H261142   4.320   2.953  12.846 -1.1187 -0.7940 -1.0442
13243TIP3   OH261143   0.737   6.385   6.023  0.4015  0.6575 -0.4037
13243TIP3    H161144   0.804   6.400   5.956  1.0144  1.6365  0.3980
13243TIP3    H261145   0.712   6.473   6.051  0.8600  0.2639  1.3298
13244TIP3   OH261146   0.408   4.896   3.962 -0.3676 -0.2695 -0.5774
13244TIP3    H161147   0.371   4.943   4.036  0.3074 -0.5460 -0.0537
13244TIP3    H261148   0.381   4.805   3.975 -0.5213 -0.2655 -0.8480
13245TIP3   OH261149   6.043   4.269   4.473  0.4149  1.8221 -0.2756
13245TIP3    H161150   6.021   4.259   4.566 -0.8816  1.1332 -0.6471
13245TIP3    H261151   6.131   4.235   4.465 -0.0283  0.4711  0.4329
13246TIP3   OH261152   5.793   6.583  12.592  0.3862 -0.2358 -0.2297
13246TIP3    H161153   5.766   6.491  12.592  0.7206 -0.3616 -2.1857
13246TIP3    H261154   5.728   6.626  12.537 -0.6687  1.0156  1.9250
13247TIP3   OH261155   6.276   1.284  14.480 -0.0203  0.5802 -0.4240
13247TIP3    H161156   6.267   1.295  14.386  0.3452 -0.6339 -0.6184
13247TIP3    H261157   6.254   1.192  14.496 -2.6847  1.4075  1.0303
13248TIP3   OH261158   2.061   1.909  15.784 -0.1204 -0.2699 -0.7988
13248TIP3    H161159   2.096   1.880  15.868  0.2095  3.2689  0.3850
13248TIP3    H261160   1.980   1.859  15.774  0.7704 -2.0855  0.7371
13249TIP3   OH261161   6.252   0.554  15.231 -0.1111 -0.3033 -0.5829
13249TIP3    H161162   6.238   0.627  15.171  0.7042  0.2499 -0.1254
13249TIP3    H261163   6.347   0.548  15.239 -0.1963  0.5092  1.6519
13250TIP3   OH261164   3.720   1.374  11.782  0.2116  0.2077 -0.2425
13250TIP3    H161165   3.796   1.337  11.827  0.8314  0.7082 -0.8519
13250TIP3    H261166   3.749   1.461  11.755 -0.0693 -0.1416 -1.7438
13251TIP3   OH261167   0.166   3.955  15.154  0.3824  0.2080 -0.1943
13251TIP3    H161168   0.172   3.861  15.168 -0.2273  0.3340  1.0768
13251TIP3    H261169   0.228   3.974  15.084  1.7873 -0.8861  0.7248
13252TIP3   OH261170   2.384   4.201  13.780 -0.3928 -0.0614 -0.0067
13252TIP3    H161171   2.443   4.270  13.809  0.1791 -1.0937  1.3799
13252TIP3    H261172   2.437   4.145  13.724 -0.9202  0.7342 -1.3238
13253TIP3   OH261173   0.563   3.528  14.435  0.2013  0.4880 -0.1792
13253TIP3    H161174   0.517   3.472  14.372 -0.1269 -0.2199  0.6750
13253TIP3    H261175   0.497   3.592  14.463  0.2467  0.5829 -0.2878
13254TIP3   OH261176   1.958   2.581   4.795 -0.1914 -0.0246 -0.6058
13254TIP3    H161177   2.012   2.597   4.717  0.6918 -0.0890 -0.0215
13254TIP3    H261178   1.869   2.574   4.762  0.2416 -0.5857 -1.6733
13255TIP3   OH261179   1.098   4.778  13.504  0.1792 -0.5593  0.6231
13255TIP3    H161180   1.103   4.794  13.599 -2.3662 -1.7387  1.0124
13255TIP3    H261181   1.113   4.684  13.495  1.1234 -0.3310 -0.2349
13256TIP3   OH261182   2.095   4.885   1.999  0.6179 -0.2699 -0.4327
13256TIP3    H161183   2.152   4.951   1.959 -0.0085 -0.1411 -1.1279
13256TIP3    H261184   2.010   4.928   2.005  0.8194 -0.0687  1.6117
13257TIP3   OH261185   3.830   5.488  11.326  0.3183 -0.2868 -0.4606
13257TIP3    H161186   3.808   5.581  11.338  0.7164 -0.0141 -1.7556
13257TIP3    H261187   3.840   5.478  11.231 -0.8676 -1.9241 -0.4394
13258TIP3   OH261188   1.284   6.209  13.220  0.0501 -0.3951  0.2025
13258TIP3    H161189   1.217   6.259  13.174 -1.3824  0.0769  2.6937
13258TIP3    H261190   1.241   6.126  13.242  0.4947 -0.3679  1.2173
13259TIP3   OH261191   5.776   0.723  13.632  0.5032  0.0861  0.0898
13259TIP3    H161192   5.786   0.766  13.717  0.8447  0.7956 -0.3136
13259TIP3    H261193   5.748   0.634  13.655  1.6510 -0.0608  0.9857
13260TIP3   OH261194   4.753   5.744   2.229  0.0551 -0.6653  0.0256
13260TIP3    H161195   4.847   5.764   2.235  0.2003 -0.9774 -1.0027
13260TIP3    H261196   4.742   5.712   2.139 -0.5826 -2.9485  0.8741
13261TIP3   OH261197   0.434   4.851  15.623 -0.4459 -0.3063  0.8666
13261TIP3    H161198   0.493   4.922  15.599  0.0463 -0.6829  0.9318
13261TIP3    H261199   0.376   4.889  15.689  0.5060 -0.2453  1.7011
13262TIP3   OH261200   6.269   4.680  17.136  0.6958 -0.2703 -0.4337
13262TIP3    H161201   6.281   4.715  17.224 -1.0669  1.6722 -0.9150
13262TIP3    H261202   6.338   4.722  17.084  1.9185 -1.6395  0.0577
13263TIP3   OH261203   0.801   0.455  11.423 -0.5762 -0.3953  0.3827
13263TIP3    H161204   0.707   0.437  11.424 -0.0581 -3.2379  0.4310
13263TIP3    H261205   0.838   0.389  11.365  1.5347  0.0631  1.1436
13264TIP3   OH261206   1.523   0.016  14.108  0.5444  0.4967 -0.1828
13264TIP3    H161207   1.451   0.028  14.171  0.5021  1.5123 -0.4168
13264TIP3    H261208   1.559  -0.070  14.129 -1.2078 -0.3416 -0.5366
13265TIP3   OH261209   5.172   2.108  12.993  0.0776  0.5976 -0.1219
13265TIP3    H161210   5.251   2.124  13.045 -0.4597 -3.6883  2.2014
13265TIP3    H261211   5.103   2.156  13.039  0.5798  1.2104  0.0104
13266TIP3   OH261212   6.508   2.507   4.415  0.2600  0.4189  0.5751
13266TIP3    H161213   6.434   2.476   4.361  0.8708 -0.7601  0.3974
13266TIP3    H261214   6.518   2.599   4.391 -0.1862  0.1934 -0.5108
13267TIP3   OH261215   4.884   6.675   5.009 -0.2646 -0.6849  0.1692
13267TIP3    H161216   4.941   6.687   5.085 -0.7955  0.7389  0.3481
13267TIP3    H261217   4.813   6.738   5.021 -0.0383 -0.0142 -1.8383
13268TIP3   OH261218   1.861   5.568  11.814 -0.1141 -0.0182 -0.0186
13268TIP3    H161219   1.948   5.532  11.798  0.5479  1.8845 -0.8359
13268TIP3    H261220   1.832   5.601  11.729 -2.2197 -1.8327 -0.0486
13269TIP3   OH261221   3.232   6.587   0.689 -0.4530  0.7761 -0.3240
13269TIP3    H161222   3.184   6.542   0.759  0.3892 -0.9633 -0.8175
13269TIP3    H261223   3.262   6.668   0.729 -1.1066  0.4181  0.9428
13270TIP3   OH261224   3.468   6.565   1.016  0.2597  0.0327  0.4632
13270TIP3    H161225   3.396   6.504   1.028 -0.4674  0.9478  0.7877
13270TIP3    H261226   3.445   6.615   0.938  0.7475  0.0447  0.3235
13271TIP3   OH261227   3.392   6.348   4.658 -0.1709 -0.2001 -0.5359
13271TIP3    H161228   3.301   6.363   4.632  0.1285  1.1649 -0.8148
13271TIP3    H261229   3.386   6.319   4.749 -0.8946 -0.2297 -0.5894
13272TIP3   OH261230   1.563   3.371  16.715  0.0238  0.2499 -0.3227
13272TIP3    H161231   1.529   3.383  16.626  1.7384  0.5552 -0.9543
13272TIP3    H261232   1.651   3.335  16.702 -0.0597 -0.5474  1.2741
13273TIP3   OH261233   6.781   1.674  11.954 -0.1223  0.4103 -0.4591
13273TIP3    H161234   6.854   1.627  11.913 -0.0674 -0.8331  1.0120
13273TIP3    H261235   6.789   1.654  12.047 -1.1447  1.9446 -0.0282
13274TIP3   OH261236   2.994   3.422   3.330  0.0798 -0.1644 -0.3286
13274TIP3    H161237   2.902   3.425   3.354 -0.3137 -0.3272 -1.7504
13274TIP3    H261238   3.000   3.482   3.255  1.2319  0.2442  0.0793
13275TIP3   OH261239   1.404   4.678  12.011 -0.3719 -0.1311  0.3882
13275TIP3    H161240   1.460   4.732  12.066 -0.9508  0.5507  0.3189
13275TIP3    H261241   1.455   4.598  11.995  1.7465  1.6219 -2.0121
13276TIP3   OH261242   5.532   0.318  11.463  0.2899 -0.1743 -0.3470
13276TIP3    H161243   5.563   0.407  11.447 -0.1862  0.0699  0.0992
13276TIP3    H261244   5.598   0.262  11.422  2.3360  0.2680  2.2285
13277TIP3   OH261245   0.288   1.139  16.750  0.4138  0.1797 -0.7770
13277TIP3    H161246   0.340   1.093  16.684  0.8898  0.0945 -0.3414
13277TIP3    H261247   0.247   1.068  16.800 -0.3719  0.2467 -1.3093
13278TIP3   OH261248   4.389   3.157  10.981  0.3690  0.3253  0.3455
13278TIP3    H161249   4.351   3.209  11.052  0.9284  0.0673  0.8361
13278TIP3    H261250   4.477   3.193  10.969  0.3908  0.1577 -0.0065
13279TIP3   OH261251   0.644   0.771  11.449 -0.4521 -0.2650 -0.3074
13279TIP3    H161252   0.571   0.811  11.496  0.5067  1.7103 -0.4587
13279TIP3    H261253   0.606   0.693  11.408 -2.0505 -0.2364  1.0508
13280TIP3   OH261254   1.831   0.969   6.029 -0.4949 -0.0142  0.1995
13280TIP3    H161255   1.802   1.013   6.109 -2.8968 -1.2470  0.0691
13280TIP3    H261256   1.876   0.890   6.060  0.9989  0.9052  0.3765
13281TIP3   OH261257   5.818   3.748  14.528 -0.3012 -0.3994 -0.1437
13281TIP3    H161258   5.787   3.723  14.441  2.8537  0.3243 -1.5737
13281TIP3    H261259   5.901   3.701  14.538  1.4074  2.6233  0.7011
13282TIP3   OH261260   5.177   5.812   2.951  0.3723  0.3895  0.2708
13282TIP3    H161261   5.176   5.726   2.909  0.1421  1.4200 -1.9186
13282TIP3    H261262   5.270   5.831   2.963  0.3956 -1.1608  2.9803
13283TIP3   OH261263   1.870   0.817   5.806 -0.3060 -0.1391 -0.0498
13283TIP3    H161264   1.865   0.898   5.856 -0.0856  0.5827 -1.1926
13283TIP3    H261265   1.863   0.748   5.872  0.8624  0.7904  1.0796
13284TIP3   OH261266   2.049   5.785   3.196 -0.1019 -0.1272 -0.1074
13284TIP3    H161267   2.020   5.822   3.279  0.7429  1.4333 -0.5069
13284TIP3    H261268   2.134   5.746   3.215  0.0322  0.1151 -0.2154
13285TIP3   OH261269   2.895   0.595   1.983  0.3883 -0.6278 -0.8931
13285TIP3    H161270   2.822   0.607   2.044  1.5945  1.2798  0.2278
13285TIP3    H261271   2.911   0.501   1.983  0.7666 -0.6122  2.2826
13286TIP3   OH261272   3.162   1.225   5.840 -0.0687 -0.3396 -0.3437
13286TIP3    H161273   3.155   1.296   5.903  0.9765 -2.0580  1.7468
13286TIP3    H261274   3.078   1.180   5.845  0.3203 -0.9886  0.4712
13287TIP3   OH261275   4.792   2.635   4.184  0.5899  0.2054  0.3616
13287TIP3    H161276   4.878   2.603   4.211  0.9307  1.1928  0.4693
13287TIP3    H261277   4.797   2.637   4.089  0.7912  0.5387  0.3773
13288TIP3   OH261278   4.694   2.560   1.247  0.3031 -0.4308  0.3141
13288TIP3    H161279   4.701   2.464   1.247 -1.2035 -0.5514  1.0490
13288TIP3    H261280   4.675   2.582   1.155  0.3156 -0.8759  0.2037
13289TIP3   OH261281   1.446   0.876  11.268  0.7503 -0.3368  0.0141
13289TIP3    H161282   1.409   0.956  11.306  2.2741  0.5163 -0.2287
13289TIP3    H261283   1.371   0.828  11.235 -0.1391  1.3578 -0.5158
13290TIP3   OH261284   2.566   1.990  11.950 -0.3333  0.1515  0.5536
13290TIP3    H161285   2.519   1.998  11.868  0.3570  3.7436  0.4354
13290TIP3    H261286   2.647   1.944  11.927  0.1693  1.7368 -0.9290
13291TIP3   OH261287   3.687   1.924  15.004  0.1346 -0.2606  0.4199
13291TIP3    H161288   3.720   1.981  14.936 -2.4605  0.7936 -0.0256
13291TIP3    H261289   3.739   1.844  14.996  0.8986  0.4198 -1.7672
13292TIP3   OH261290   6.291   2.410   0.196  0.0532  0.1455  0.5829
13292TIP3    H161291   6.300   2.324   0.154  0.0949  1.7337 -2.8554
13292TIP3    H261292   6.246   2.392   0.278  0.4280 -3.2099  0.1301
13293TIP3   OH261293   4.092   5.513   5.039  0.1025  0.2608 -0.3022
13293TIP3    H161294   4.161   5.575   5.014  0.6330 -0.8878 -1.7799
13293TIP3    H261295   4.139   5.434   5.066 -0.6299 -0.3981 -0.9316
13294TIP3   OH261296   3.868   6.719  13.760  0.0881  0.1242  0.5404
13294TIP3    H161297   3.821   6.643  13.727 -0.9023  0.6106  0.7852
13294TIP3    H261298   3.803   6.765  13.815  0.5820  1.2627  0.1935
13295TIP3   OH261299   3.722   0.722   0.071 -0.1274 -1.1290 -0.6678
13295TIP3    H161300   3.773   0.801   0.054  0.5965 -1.3089  0.5553
13295TIP3    H261301   3.786   0.659   0.106 -1.0982 -1.4962  0.5048
13296TIP3   OH261302   1.470   2.250   2.155 -0.5434 -0.1972 -0.2518
13296TIP3    H161303   1.473   2.271   2.248 -0.7618 -3.3453  0.5175
13296TIP3    H261304   1.377   2.241   2.135 -0.5112  0.8017 -0.8557
13297TIP3   OH261305   4.780   1.039  14.103  0.9411 -0.6856  0.2305
13297TIP3    H161306   4.763   1.133  14.115 -0.7331 -0.8158 -0.8868
13297TIP3    H261307   4.836   1.034  14.026  0.0890 -0.6603 -0.3963
13298TIP3   OH261308   4.746   5.356  11.373  0.1269  0.1747 -0.1733
13298TIP3    H161309   4.809   5.406  11.424 -0.4820  0.9803 -0.2031
13298TIP3    H261310   4.773   5.370  11.282  0.4731 -0.2596 -0.1395
13299TIP3   OH261311   5.858   6.392  13.135 -0.3882 -0.3345  0.2178
13299TIP3    H161312   5.852   6.423  13.045 -2.0392  0.7727  0.6786
13299TIP3    H261313   5.950   6.402  13.158 -0.0322 -0.2107 -1.1877
13300TIP3   OH261314   0.659   2.910   1.703  0.3955  0.2749  0.2540
13300TIP3    H161315   0.568   2.898   1.676  1.4485 -1.7101 -2.7174
13300TIP3    H261316   0.654   2.942   1.793 -3.2153  0.0099  0.2089
13301TIP3   OH261317   2.143   5.536   5.916  0.4245 -0.1294  0.9066
13301TIP3    H161318   2.167   5.456   5.963  1.8339 -0.5002 -0.4202
13301TIP3    H261319   2.218   5.595   5.927 -0.1227  0.5767  0.9023
13302TIP3   OH261320   1.309   4.404  13.249 -0.4537 -0.1146 -0.0839
13302TIP3    H161321   1.216   4.382  13.257 -0.7147  0.3189 -1.6730
13302TIP3    H261322   1.310   4.483  13.195  0.8941 -0.7507 -1.0218
13303TIP3   OH261323   5.320   5.480   2.652  0.0057  0.4760 -0.3949
13303TIP3    H161324   5.250   5.420   2.624  0.5240  0.0294 -0.7426
13303TIP3    H261325   5.400   5.441   2.617  0.8089 -0.6218  2.4502
13304TIP3   OH261326   5.457   4.870   5.200 -0.4257 -0.3592 -0.1766
13304TIP3    H161327   5.548   4.879   5.227  0.0763 -1.7086 -1.3549
13304TIP3    H261328   5.427   4.789   5.243 -1.2202  0.3099  0.5685
13305TIP3   OH261329   2.032   5.313   3.866  0.4566  0.2254 -0.1386
13305TIP3    H161330   2.052   5.390   3.918  0.6201 -1.1983  1.9599
13305TIP3    H261331   2.115   5.290   3.824  0.4718  0.9966 -0.5404
13306TIP3   OH261332   3.291   6.230  11.443 -0.3357 -0.3335  0.0874
13306TIP3    H161333   3.334   6.222  11.358  0.6683 -1.3626  0.6833
13306TIP3    H261334   3.335   6.304  11.485  0.2778 -0.8546  0.3607
13307TIP3   OH261335   5.261   6.031  11.078 -0.1888  0.6048 -0.4438
13307TIP3    H161336   5.266   6.033  11.173 -0.4808  1.0821 -0.4392
13307TIP3    H261337   5.352   6.020  11.050 -0.1834 -0.2966 -0.0948
13308TIP3   OH261338   5.777   0.754   1.436  0.3738 -0.3140 -0.4261
13308TIP3    H161339   5.826   0.834   1.457 -0.9863  1.1051 -2.3929
13308TIP3    H261340   5.747   0.720   1.520 -0.1301  1.9936  0.3486
13309TIP3   OH261341   4.775   3.708   1.730  0.3314 -0.9053  0.1901
13309TIP3    H161342   4.820   3.633   1.691 -1.2543 -1.7205 -0.0849
13309TIP3    H261343   4.682   3.686   1.726 -0.1709  1.1006  0.0456
13310TIP3   OH261344   0.865   4.895  13.584 -0.6218 -0.0595  0.1193
13310TIP3    H161345   0.889   4.853  13.667  0.1988  0.9577  0.3971
13310TIP3    H261346   0.876   4.826  13.519 -0.1211 -0.5339  0.6938
13311TIP3   OH261347   4.749   5.674   1.348 -0.4820 -0.3976 -0.3984
13311TIP3    H161348   4.700   5.664   1.266 -1.2128  0.0430 -0.0215
13311TIP3    H261349   4.702   5.742   1.396  1.4936  1.2892 -0.7632
13312TIP3   OH261350   1.792   4.893  17.198 -0.2474 -0.2571  0.3180
13312TIP3    H161351   1.853   4.834  17.241 -0.0642  1.1160  1.9378
13312TIP3    H261352   1.707   4.847  17.203  0.0797 -0.8284  0.6509
13313TIP3   OH261353   6.090   5.883  17.146  0.3356 -0.6487 -0.2516
13313TIP3    H161354   6.007   5.915  17.110 -0.1837 -0.2737  1.2536
13313TIP3    H261355   6.102   5.797  17.106  0.1523  0.0579 -1.8905
13314TIP3   OH261356   1.711   5.971  12.599 -0.0409  0.2352 -0.0262
13314TIP3    H161357   1.732   5.920  12.522 -2.4089 -1.1851  0.2141
13314TIP3    H261358   1.618   5.954  12.615  0.1418  1.3060  2.5263
13315TIP3   OH261359   3.611   6.423  12.272 -0.1005 -0.4322 -0.1170
13315TIP3    H161360   3.705   6.412  12.283  0.0479  0.4693 -0.4255
13315TIP3    H261361   3.598   6.518  12.270 -1.1992 -0.5137  1.5073
13316TIP3   OH261362   1.396   2.303   4.413  0.0716 -0.6444 -0.2665
13316TIP3    H161363   1.478   2.344   4.442  0.0411 -1.1781  0.5628
13316TIP3    H261364   1.352   2.371   4.362  0.4663  0.0342  0.3031
13317TIP3   OH261365   0.156   1.523  11.171  0.3218 -0.4046 -0.0902
13317TIP3    H161366   0.212   1.453  11.135 -0.3182 -0.4058 -1.0843
13317TIP3    H261367   0.082   1.528  11.112 -0.1605  0.4182  0.5688
13318TIP3   OH261368   3.388   1.660  15.755 -0.6566 -0.0216 -0.2221
13318TIP3    H161369   3.331   1.587  15.780 -0.8868  0.8777  1.9310
13318TIP3    H261370   3.340   1.738  15.780 -0.3616  0.9060 -2.4454
13319TIP3   OH261371   0.710   3.521   3.227  0.1852  0.4290 -0.1032
13319TIP3    H161372   0.635   3.476   3.266  1.1495  0.0993  1.4226
13319TIP3    H261373   0.673   3.601   3.190 -1.1487 -0.4290 -0.7075
13320TIP3   OH261374   4.825   6.062  16.599 -0.0386 -0.4926  0.7170
13320TIP3    H161375   4.883   6.007  16.547  0.2510 -1.4503  2.0288
13320TIP3    H261376   4.739   6.020  16.591 -0.7394  1.3629 -1.8611
13321TIP3   OH261377   3.828   1.485  14.218  0.2371  0.7549  0.7734
13321TIP3    H161378   3.883   1.557  14.187 -0.6658  0.7178 -0.9742
13321TIP3    H261379   3.778   1.523  14.290 -0.1905  1.8906 -0.1020
13322TIP3   OH261380   3.385   0.724  16.907  1.1150 -0.1823 -0.3117
13322TIP3    H161381   3.349   0.759  16.989  0.4702 -1.0929 -0.2007
13322TIP3    H261382   3.469   0.768  16.897  0.2920  1.4320 -0.1956
13323TIP3   OH261383   0.076   0.090   0.386 -0.1513 -0.3639  0.0872
13323TIP3    H161384   0.106   0.041   0.463 -0.9552 -1.8740 -0.5375
13323TIP3    H261385   0.150   0.088   0.326 -0.2999 -1.1488 -0.0811
13324TIP3   OH261386   3.834   2.924  14.217 -0.3726 -0.0025 -0.1167
13324TIP3    H161387   3.828   2.890  14.306  0.7712  0.2468  0.0595
13324TIP3    H261388   3.928   2.928  14.198 -0.5590  1.0716 -0.8941
13325TIP3   OH261389   3.988   2.400  13.625  0.0341 -0.6125  0.0037
13325TIP3    H161390   3.949   2.487  13.613 -0.7659 -0.9056  0.4388
13325TIP3    H261391   4.064   2.415  13.680  0.1437 -0.1274 -0.2727
13326TIP3   OH261392   1.015   6.378   4.860  0.1795 -0.1789 -0.4134
13326TIP3    H161393   0.987   6.312   4.924  2.1665 -0.7967 -0.1295
13326TIP3    H261394   1.023   6.329   4.778  2.1023 -0.4340 -0.1049
13327TIP3   OH261395   5.751   6.366  15.068 -0.8615 -0.1188  0.0864
13327TIP3    H161396   5.783   6.379  15.157 -1.4504 -0.3866  0.3419
13327TIP3    H261397   5.807   6.296  15.032 -0.7282 -0.1226  0.3018
13328TIP3   OH261398   5.006   4.731  13.495 -0.4177  0.1347 -0.1240
13328TIP3    H161399   4.965   4.717  13.580 -0.4666  2.6017  0.3027
13328TIP3    H261400   4.979   4.819  13.470  0.8918  0.0387 -1.9656
13329TIP3   OH261401   1.556   1.697  14.876  0.2046 -0.1419 -0.0352
13329TIP3    H161402   1.551   1.790  14.899 -0.6441 -0.5383  1.5144
13329TIP3    H261403   1.572   1.653  14.960  1.9015 -1.3000 -0.9390
13330TIP3   OH261404   4.683   5.396   5.351 -0.2860 -0.0294  0.0926
13330TIP3    H161405   4.671   5.481   5.394 -0.5711  0.4339 -0.8976
13330TIP3    H261406   4.747   5.350   5.406  0.5027  1.1460  0.1689
13331TIP3   OH261407   1.496   3.224   4.169  0.2440 -0.4599  0.1401
13331TIP3    H161408   1.527   3.292   4.109  0.1798  0.7900  1.4977
13331TIP3    H261409   1.490   3.268   4.254 -0.7796 -1.9023  0.8311
13332TIP3   OH261410   5.601   1.945  14.896  0.5473 -0.3700 -0.2847
13332TIP3    H161411   5.668   1.995  14.849  1.8216 -0.9941  0.8389
13332TIP3    H261412   5.519   1.969  14.853  1.0866  2.9067  0.4192
13333TIP3   OH261413   5.121   2.699  12.220  0.6528  0.0542  0.4857
13333TIP3    H161414   5.039   2.657  12.197  1.3317 -0.6156 -0.7321
13333TIP3    H261415   5.106   2.733  12.309 -1.0803  0.3697  0.0914
13334TIP3   OH261416   0.627   2.796   2.167  0.4498 -0.4768 -0.2952
13334TIP3    H161417   0.717   2.824   2.150  0.8501 -0.9675  0.9546
13334TIP3    H261418   0.581   2.812   2.085  1.4980  0.5076 -0.7062
13335TIP3   OH261419   1.087   0.378  13.971  0.4256  0.3314 -0.4483
13335TIP3    H161420   1.101   0.463  14.013  0.9727  0.0350 -0.0453
13335TIP3    H261421   1.024   0.397  13.901  0.1235  0.9662 -0.0075
13336TIP3   OH261422   5.566   0.933   0.215  0.1040  0.4238  0.0637
13336TIP3    H161423   5.571   0.971   0.303 -0.9628 -1.1948  0.8516
13336TIP3    H261424   5.473   0.925   0.198  0.2641  2.5234 -2.0545
13337TIP3   OH261425   1.936   2.201  16.060  0.0774 -0.0286  0.0783
13337TIP3    H161426   1.931   2.117  16.105  1.7198  0.9464  2.1587
13337TIP3    H261427   2.014   2.195  16.005 -0.4893 -0.2865 -0.7131
13338TIP3   OH261428   5.363   4.042   6.925  0.4021  0.2632 -0.0806
13338TIP3    H161429   5.273   4.048   6.891  1.2640  0.7331 -2.3806
13338TIP3    H261430   5.397   4.131   6.916  0.7022  0.3840  2.0086
13339TIP3   OH261431   3.358   5.435  14.481 -0.0998  0.2498  0.0611
13339TIP3    H161432   3.386   5.523  14.504 -2.3430  1.1001 -0.2800
13339TIP3    H261433   3.266   5.445  14.456  0.0824 -1.9037 -1.6404
13340TIP3   OH261434   2.449   0.323  12.497 -0.3231 -0.0658 -0.0512
13340TIP3    H161435   2.503   0.340  12.419 -0.1326 -1.4266 -0.2335
13340TIP3    H261436   2.455   0.403  12.548  1.2362  0.0972 -0.4612
13341TIP3   OH261437   2.388   2.883  14.840 -1.0109 -0.1500  0.6655
13341TIP3    H161438   2.390   2.793  14.810 -2.5097 -0.5245  1.5767
13341TIP3    H261439   2.479   2.904  14.862 -0.0425 -0.1911 -2.9836
13342TIP3   OH261440   2.602   1.450   5.176 -0.0179  0.3470  0.0263
13342TIP3    H161441   2.531   1.443   5.112 -0.4418  0.3341  0.4898
13342TIP3    H261442   2.559   1.438   5.261  0.4661  0.8507  0.3470
13343TIP3   OH261443   1.235   1.722  15.863  0.0838 -0.3115 -0.0242
13343TIP3    H161444   1.230   1.646  15.805  0.6884  1.9881 -3.2587
13343TIP3    H261445   1.327   1.723  15.892 -0.2172 -1.4737  0.9862
13344TIP3   OH261446   0.439   3.923  10.793  0.2762 -0.6621 -0.1362
13344TIP3    H161447   0.516   3.872  10.767  1.0852  0.5252 -0.1256
13344TIP3    H261448   0.447   4.005  10.744  0.0950  0.2981  1.4181
13345TIP3   OH261449   6.381   1.799   2.475  0.3038 -0.2409 -0.0505
13345TIP3    H161450   6.319   1.796   2.547  0.7245 -0.3098  0.3105
13345TIP3    H261451   6.368   1.716   2.429 -1.3113  0.6229 -1.1952
13346TIP3   OH261452   5.714   2.988  13.201 -0.0786 -0.0364 -0.2320
13346TIP3    H161453   5.688   3.010  13.111  0.6566  0.1760 -0.3923
13346TIP3    H261454   5.756   3.067  13.234  0.1219 -0.2923  0.1208
13347TIP3   OH261455   4.095   1.810   1.740  0.3274  0.2137  1.0224
13347TIP3    H161456   4.132   1.803   1.828  1.2458  1.0188  0.7083
13347TIP3    H261457   4.169   1.796   1.681  0.0085  1.1245  0.3887
13348TIP3   OH261458   1.660   2.570   2.831 -0.0814 -0.0740 -0.6099
13348TIP3    H161459   1.748   2.533   2.826 -0.9778 -2.3707 -0.1502
13348TIP3    H261460   1.671   2.652   2.880  1.6170 -1.0200  0.6542
13349TIP3   OH261461   3.698   1.689  13.180 -0.1378 -0.0094  0.2913
13349TIP3    H161462   3.617   1.740  13.180 -0.1631 -0.0506 -0.0963
13349TIP3    H261463   3.736   1.706  13.266 -0.8614 -0.4640  0.7102
13350TIP3   OH261464   2.492   6.441  14.342 -0.1225 -0.2805  0.3012
13350TIP3    H161465   2.583   6.467  14.359  0.5845 -1.8431 -0.9431
13350TIP3    H261466   2.478   6.366  14.401 -0.5951 -0.0482  0.4823
13351TIP3   OH261467   0.263   3.112   0.712 -0.2621  0.4436 -0.4089
13351TIP3    H161468   0.202   3.064   0.656 -0.8615  1.1500 -0.3767
13351TIP3    H261469   0.343   3.060   0.711 -0.6101 -0.0876 -1.0867
13352TIP3   OH261470   6.208   4.888   1.369 -0.3724  0.0349  0.6304
13352TIP3    H161471   6.234   4.975   1.399 -0.7002  0.5739 -0.6425
13352TIP3    H261472   6.173   4.901   1.281  1.3685 -1.6342 -0.3595
13353TIP3   OH261473   0.585   2.736   3.357  0.4246 -0.4524  0.3961
13353TIP3    H161474   0.654   2.800   3.340  1.5864 -1.7113  0.3033
13353TIP3    H261475   0.553   2.712   3.270 -1.0358  1.0678  0.4802
13354TIP3   OH261476   1.905   5.047   0.205 -0.0048 -0.2385  0.3691
13354TIP3    H161477   1.846   4.974   0.188 -0.4538  0.2517 -0.1644
13354TIP3    H261478   1.986   5.024   0.159 -0.8573  0.5911 -1.5788
13355TIP3   OH261479   4.157   6.689   0.987 -0.7431  0.3077 -0.2771
13355TIP3    H161480   4.177   6.693   0.894 -0.7748  0.4441 -0.2790
13355TIP3    H261481   4.215   6.755   1.027  1.0378 -1.4548  0.1164
13356TIP3   OH261482   5.545   5.953   0.302 -0.6385 -0.3512 -0.0591
13356TIP3    H161483   5.572   6.045   0.293  1.5124 -0.7172  2.1799
13356TIP3    H261484   5.501   5.933   0.219 -1.1808  2.7090 -0.5697
13357TIP3   OH261485   2.725   1.795   5.913 -0.1224 -0.6023  0.0875
13357TIP3    H161486   2.730   1.873   5.859 -1.1174 -1.3632 -1.1156
13357TIP3    H261487   2.720   1.828   6.003 -3.0544  0.8010 -0.5500
13358TIP3   OH261488   0.060   6.008  14.438  0.0032 -0.0854 -0.1384
13358TIP3    H161489   0.087   6.069  14.369 -1.7880  2.3402  1.2056
13358TIP3    H261490   0.138   5.999  14.494  0.0495  1.6992  0.1158
13359TIP3   OH261491   3.730   4.436  12.904 -0.5513  0.4067 -0.6342
13359TIP3    H161492   3.680   4.497  12.959  1.3651  2.1224 -0.7480
13359TIP3    H261493   3.801   4.405  12.960 -0.6922 -0.6603 -1.0242
13360TIP3   OH261494   3.795   2.174  16.808 -0.4722  1.2938 -0.5798
13360TIP3    H161495   3.770   2.245  16.867 -0.0232  0.8875  0.1118
13360TIP3    H261496   3.881   2.199  16.775  0.1615  0.5721  0.4924
13361TIP3   OH261497   3.878   1.970  14.808 -0.1815 -0.1196 -0.0805
13361TIP3    H161498   3.932   1.901  14.846  2.5072  1.4237 -0.9365
13361TIP3    H261499   3.859   1.940  14.719 -0.6960 -0.6516  0.2095
13362TIP3   OH261500   4.600   5.327  10.959  0.5668 -0.4169 -0.5432
13362TIP3    H161501   4.695   5.323  10.969  0.7348  1.6353 -1.1114
13362TIP3    H261502   4.586   5.341  10.866 -0.3289 -1.2063 -0.5329
13363TIP3   OH261503   5.110   0.380  16.768 -0.2697 -0.2020 -0.1492
13363TIP3    H161504   5.114   0.291  16.732  0.7757  0.3605 -1.4397
13363TIP3    H261505   5.193   0.420  16.744 -2.0705  2.2764 -2.5616
13364TIP3   OH261506   3.481   2.390   4.232  0.1151  0.0363  0.1155
13364TIP3    H161507   3.457   2.444   4.308  0.8715 -0.5229  0.7625
13364TIP3    H261508   3.540   2.445   4.181 -1.3620  0.8651 -0.7041
13365TIP3   OH261509   0.050   4.864  15.902 -0.3687  0.0106  0.1568
13365TIP3    H161510   0.091   4.930  15.846 -1.6841  0.4822 -0.2697
13365TIP3    H261511   0.038   4.788  15.846  1.7627 -0.8421  0.8303
13366TIP3   OH261512   0.517   1.390  16.607 -0.3451 -0.3284  0.2740
13366TIP3    H161513   0.566   1.326  16.659  1.7125  0.0297 -1.1801
13366TIP3    H261514   0.492   1.457  16.670  1.5055 -0.2540  0.9470
13367TIP3   OH261515   0.910   1.306   4.988  0.5451 -0.0891 -0.4323
13367TIP3    H161516   0.972   1.340   5.052  0.4624 -0.7083 -0.0230
13367TIP3    H261517   0.954   1.230   4.949  1.2889  1.2749 -2.3224
13368TIP3   OH261518   5.005   3.799   4.770  0.1613  0.1607 -0.2287
13368TIP3    H161519   4.929   3.854   4.752  0.3792 -0.0023 -1.7324
13368TIP3    H261520   4.994   3.723   4.712  1.5442  0.2129 -0.5921
13369TIP3   OH261521   1.158   6.038  11.935 -0.5676 -0.2256  0.5979
13369TIP3    H161522   1.105   6.107  11.895  0.4525  0.5321  0.5353
13369TIP3    H261523   1.217   6.085  11.994  1.9212 -0.7595 -1.3726
13370TIP3   OH261524   0.378   3.659   1.840 -0.1840 -0.0231  0.4112
13370TIP3    H161525   0.377   3.567   1.816  3.0818 -0.0297  0.0491
13370TIP3    H261526   0.420   3.703   1.766 -0.7362  1.6296  1.0451
13371TIP3   OH261527   0.643   3.456   2.805 -0.2376  0.5072 -0.1438
13371TIP3    H161528   0.562   3.408   2.789  0.0912 -0.1645  0.2067
13371TIP3    H261529   0.692   3.447   2.723  0.8139 -1.7001  0.6937
13372TIP3   OH261530   3.328   3.991   1.209 -0.0139 -0.7109 -0.1885
13372TIP3    H161531   3.292   3.949   1.130  0.4403  1.3416 -1.5200
13372TIP3    H261532   3.251   4.006   1.264 -0.8044  0.7479 -1.6394
13373TIP3   OH261533   4.585   5.555   1.663  0.5318  0.1725  0.3373
13373TIP3    H161534   4.659   5.497   1.644  0.5528  0.2821  0.0773
13373TIP3    H261535   4.617   5.642   1.638  1.0799  0.5330  2.2750
13374TIP3   OH261536   4.891   0.964   5.488  0.1947  0.5976 -0.1315
13374TIP3    H161537   4.965   0.978   5.547 -0.0410  1.9534 -0.1538
13374TIP3    H261538   4.930   0.961   5.401  0.3535  0.1729 -0.0480
13375TIP3   OH261539   6.423   1.175  11.552 -0.3482 -0.5150  0.0744
13375TIP3    H161540   6.504   1.181  11.501  0.0393 -1.3252  0.5954
13375TIP3    H261541   6.354   1.171  11.486 -0.0149  0.6587 -0.3701
13376TIP3   OH261542   2.504   3.052  11.864  0.2582 -0.2272 -0.4831
13376TIP3    H161543   2.425   3.004  11.838  0.2523 -0.6121  0.2375
13376TIP3    H261544   2.566   3.038  11.793 -0.6769  0.9369 -1.5615
13377TIP3   OH261545   4.118   4.884  16.083 -0.2523 -0.2495  0.3963
13377TIP3    H161546   4.192   4.892  16.144 -1.9806 -1.9112  2.7926
13377TIP3    H261547   4.089   4.974  16.068  1.8924  0.3958 -0.1889
13378TIP3   OH261548   4.537   2.581  11.283 -0.3942 -0.3416  0.0327
13378TIP3    H161549   4.525   2.635  11.205  0.0089  0.5261  0.5565
13378TIP3    H261550   4.455   2.532  11.291 -0.7475  0.1567 -0.4851
13379TIP3   OH261551   2.775   0.733   2.516  0.0612  0.0822 -0.8813
13379TIP3    H161552   2.794   0.824   2.493  0.2082 -0.2581 -2.1115
13379TIP3    H261553   2.807   0.682   2.442 -0.0603 -0.9769 -0.2158
13380TIP3   OH261554   0.928   2.876   5.638  0.5941 -0.4614  0.2573
13380TIP3    H161555   0.864   2.885   5.709 -0.2892 -1.1495 -0.4358
13380TIP3    H261556   0.904   2.945   5.575  0.3755 -0.8652 -0.1107
13381TIP3   OH261557   1.024   4.420   6.211 -0.1183 -0.0973  0.0665
13381TIP3    H161558   0.977   4.496   6.177  0.0405 -0.1009 -0.1587
13381TIP3    H261559   0.980   4.345   6.171  0.0205 -0.1047 -0.0727
13382TIP3   OH261560   1.290   3.011  12.185  0.3130 -0.1579  0.2592
13382TIP3    H161561   1.306   2.933  12.237  0.7778 -0.7348 -0.7391
13382TIP3    H261562   1.374   3.057  12.185  0.3436 -0.2134 -0.0700
13383TIP3   OH261563   6.785   5.196   1.481  0.1537 -0.0664 -0.2313
13383TIP3    H161564   6.796   5.161   1.569  0.1472  2.9713  1.0117
13383TIP3    H261565   6.763   5.119   1.428 -0.3692 -1.8622  2.4752
13384TIP3   OH261566   0.573   1.482  14.690  0.1981  0.1634  0.0220
13384TIP3    H161567   0.601   1.568  14.721  0.7500 -0.7219  2.0347
13384TIP3    H261568   0.643   1.455  14.630 -0.0410  1.1508 -0.7244
13385TIP3   OH261569   5.823   2.608  15.861 -0.5004 -0.0004 -0.0828
13385TIP3    H161570   5.753   2.670  15.840 -1.6053 -1.5114 -0.9398
13385TIP3    H261571   5.786   2.552  15.929  1.0784  1.2785  1.9073
13386TIP3   OH261572   4.293   2.063  11.755  1.0591 -0.0077 -0.1777
13386TIP3    H161573   4.305   1.978  11.798  0.0437 -0.0292  0.0581
13386TIP3    H261574   4.265   2.122  11.824 -0.0787  0.0776 -0.7107
13387TIP3   OH261575   5.889   2.212  15.604  0.2015  0.6192  0.1044
13387TIP3    H161576   5.867   2.234  15.695  0.5629  2.1529 -0.1742
13387TIP3    H261577   5.837   2.273  15.551 -1.5107 -1.5413 -0.7984
13388TIP3   OH261578   1.689   1.767   5.108 -0.2262 -0.6136 -0.1943
13388TIP3    H161579   1.670   1.683   5.148  0.9629 -0.7839  0.0359
13388TIP3    H261580   1.610   1.789   5.058 -0.8120 -1.5105  0.3287
13389TIP3   OH261581   0.287   0.797   3.063 -0.3815 -0.2750  0.6817
13389TIP3    H161582   0.206   0.830   3.102 -0.7025 -1.2250  0.8165
13389TIP3    H261583   0.280   0.702   3.069 -0.0612 -0.4017 -0.9516
13390TIP3   OH261584   6.034   0.191   5.254 -0.2985  0.5996 -0.3896
13390TIP3    H161585   6.096   0.131   5.212  1.5352  0.8440  1.9168
13390TIP3    H261586   6.071   0.278   5.238 -1.5460  0.9580 -1.4136
13391TIP3   OH261587   2.639   3.639  13.427  0.2136 -0.0541  0.3435
13391TIP3    H161588   2.671   3.717  13.382  1.7713 -1.5335 -1.1892
13391TIP3    H261589   2.631   3.665  13.518 -0.1606  2.1406 -0.2896
13392TIP3   OH261590   3.977   4.131  13.491  0.0737 -0.3304  0.4208
13392TIP3    H161591   4.026   4.183  13.428  1.7884 -1.5552  0.7261
13392TIP3    H261592   3.886   4.135  13.460  0.9315 -1.2475 -2.3521
13393TIP3   OH261593   4.222   0.710  11.570 -0.2113  0.0694  0.1569
13393TIP3    H161594   4.219   0.776  11.640 -0.3263  0.7380 -0.4654
13393TIP3    H261595   4.133   0.675  11.567 -0.1911 -0.0022  0.3868
13394TIP3   OH261596   1.328   6.424   5.704 -0.0327  0.0432 -0.0672
13394TIP3    H161597   1.241   6.425   5.662  0.8111  0.6442 -1.8491
13394TIP3    H261598   1.357   6.515   5.701 -0.0945  0.1663  2.1930
13395TIP3   OH261599   1.602   3.077   5.093 -0.1451 -0.5779 -0.5948
13395TIP3    H161600   1.628   3.003   5.148 -1.6925 -0.7521 -0.0744
13395TIP3    H261601   1.680   3.132   5.088  0.0622 -0.5937  1.7411
13396TIP3   OH261602   3.895   5.830  13.063 -0.4820  0.0767  0.0127
13396TIP3    H161603   3.989   5.839  13.072 -0.2403 -1.3381 -0.9756
13396TIP3    H261604   3.861   5.840  13.152  0.6105  0.3327  0.4068
13397TIP3   OH261605   6.630   0.967   2.024 -0.4728  0.4443  0.4100
13397TIP3    H161606   6.674   0.882   2.035  1.0288  0.8393 -2.1045
13397TIP3    H261607   6.676   1.026   2.082  0.1445  0.1064  0.2680
13398TIP3   OH261608   1.364   1.459   5.420  0.0237 -0.0657 -0.9249
13398TIP3    H161609   1.284   1.511   5.420 -0.3296 -0.5581 -3.3352
13398TIP3    H261610   1.336   1.370   5.439  0.4809  0.3717  1.9667
13399TIP3   OH261611   4.539   6.193  12.266 -0.3236 -0.2897 -0.2427
13399TIP3    H161612   4.517   6.271  12.318  0.6520 -1.0350  1.3088
13399TIP3    H261613   4.618   6.217  12.218 -0.2161 -0.2044 -0.0236
13400TIP3   OH261614   4.047   2.729  13.959 -0.2509 -1.1362  0.2226
13400TIP3    H161615   4.076   2.753  14.047 -0.9925 -2.7590  0.9379
13400TIP3    H261616   4.038   2.812  13.913  0.9201 -0.3243  1.4386
13401TIP3   OH261617   0.386   1.527  16.335  0.1559 -0.1429  0.6976
13401TIP3    H161618   0.441   1.513  16.258  0.2351  2.6323  0.2087
13401TIP3    H261619   0.448   1.557  16.402 -0.6886  3.0094  0.1446
13402TIP3   OH261620   4.698   3.156   6.265 -0.3724 -0.1087 -0.4128
13402TIP3    H161621   4.631   3.106   6.312 -0.9506  0.6763 -0.3910
13402TIP3    H261622   4.651   3.233   6.232  1.0191  1.6423  1.5920
13403TIP3   OH261623   2.147   5.260  15.189  0.2002  0.0531 -0.5313
13403TIP3    H161624   2.090   5.317  15.241 -0.2927  0.2904 -1.3217
13403TIP3    H261625   2.172   5.313  15.114 -1.2673 -1.1629 -1.9216
13404TIP3   OH261626   3.620   5.954  15.811  0.3494  0.1308  0.2348
13404TIP3    H161627   3.602   6.029  15.754  0.3238  1.8137  2.4065
13404TIP3    H261628   3.598   5.984  15.899 -0.7571 -2.8260  1.0255
13405TIP3   OH261629   4.117   2.499   5.449 -0.0147  0.1569  0.0105
13405TIP3    H161630   4.040   2.485   5.505  0.1924  1.4634  0.6459
13405TIP3    H261631   4.128   2.417   5.402 -2.6793  0.4619 -1.1931
13406TIP3   OH261632   1.864   5.028   1.903  0.2153 -0.7025 -0.2663
13406TIP3    H161633   1.804   5.027   1.829  0.2261  0.1284 -0.2995
13406TIP3    H261634   1.821   5.084   1.968  2.0009  1.9176 -1.2229
13407TIP3   OH261635   1.593   0.242  13.474  0.3292  0.2052 -0.1152
13407TIP3    H161636   1.665   0.305  13.469 -0.6418  1.5272  2.2012
13407TIP3    H261637   1.634   0.158  13.452  2.0365  1.3268 -1.3090
13408TIP3   OH261638   5.960   1.323  14.007 -0.0353  0.5619 -0.6239
13408TIP3    H161639   6.055   1.331  13.997  0.6342 -1.7536  2.9024
13408TIP3    H261640   5.940   1.235  13.974 -0.6945  0.3952  0.2004
13409TIP3   OH261641   6.675   0.388  11.694  0.0270  0.0226  0.4075
13409TIP3    H161642   6.615   0.463  11.696  1.8227  1.4960 -0.1568
13409TIP3    H261643   6.740   0.407  11.761  1.6179 -0.0719 -1.0973
13410TIP3   OH261644   2.446   1.270  16.525  0.2579  0.2465 -0.1488
13410TIP3    H161645   2.383   1.342  16.519 -0.3128 -0.2207  0.1546
13410TIP3    H261646   2.490   1.283  16.609  0.7437  0.7151 -0.4758
13411TIP3   OH261647   0.893   4.244  14.571 -0.5839  0.2623 -0.5474
13411TIP3    H161648   0.957   4.228  14.502 -0.5237 -0.8096 -0.2599
13411TIP3    H261649   0.814   4.271  14.525 -0.6234 -0.6964 -1.0566
13412TIP3   OH261650   3.939   2.716   3.908  0.2972  0.2318  0.3834
13412TIP3    H161651   4.031   2.742   3.904  0.2487  0.6168  1.6719
13412TIP3    H261652   3.903   2.764   3.982 -0.7029 -0.6710  0.5047
13413TIP3   OH261653   2.777   4.740   4.790  0.0528 -0.5785  0.2070
13413TIP3    H161654   2.849   4.678   4.803  1.1365  0.7120  0.3929
13413TIP3    H261655   2.698   4.688   4.806  0.9651 -1.7788  0.9106
13414TIP3   OH261656   6.586   4.332  16.004  0.3471  0.4167  0.9997
13414TIP3    H161657   6.641   4.254  15.996  0.0375  0.3040 -0.0933
13414TIP3    H261658   6.621   4.392  15.939 -1.9504 -0.3371 -0.9929
13415TIP3   OH261659   3.786   2.052   2.436  0.2732  0.2620 -0.3553
13415TIP3    H161660   3.831   2.000   2.369 -0.9211 -1.1268 -0.0891
13415TIP3    H261661   3.843   2.046   2.513 -0.6343 -1.9767  0.1634
13416TIP3   OH261662   5.093   4.968   4.995  0.2763 -0.2415 -0.6270
13416TIP3    H161663   5.188   4.962   5.006  0.0774 -0.0152  1.3075
13416TIP3    H261664   5.057   4.959   5.083 -1.4094  1.4492 -1.1039
13417TIP3   OH261665   3.484   4.900   4.758  0.0938 -0.4034 -0.1206
13417TIP3    H161666   3.447   4.969   4.703  0.8447  1.8021  2.0439
13417TIP3    H261667   3.421   4.891   4.830  0.7945 -0.8732  0.4377
13418TIP3   OH261668   3.791   1.228   2.998  0.1886  0.6542 -0.6745
13418TIP3    H161669   3.849   1.201   2.927  0.7642  1.8861 -0.6860
13418TIP3    H261670   3.838   1.300   3.040 -0.8519  0.9419 -0.0132
13419TIP3   OH261671   4.941   3.891  16.013 -0.1784 -0.8753  0.5707
13419TIP3    H161672   5.018   3.859  16.061  1.2332  1.1969 -0.2340
13419TIP3    H261673   4.938   3.836  15.935  0.7826 -0.6902  0.3887
13420TIP3   OH261674   6.350   4.141  11.786 -0.1574 -0.1288 -0.0265
13420TIP3    H161675   6.441   4.169  11.781 -0.5832  1.0676 -1.4640
13420TIP3    H261676   6.305   4.215  11.827 -0.5679 -0.5072  0.2055
13421TIP3   OH261677   5.600   3.652   2.534 -0.2236  0.2803  0.0790
13421TIP3    H161678   5.608   3.724   2.471  1.8841  0.6996  0.7811
13421TIP3    H261679   5.537   3.684   2.598 -0.7123  0.7419 -0.6237
13422TIP3   OH261680   0.875   1.980  13.884 -0.4194  0.5202 -0.2701
13422TIP3    H161681   0.801   2.024  13.843  1.5986  2.1679 -2.3073
13422TIP3    H261682   0.928   2.051  13.920  0.0740 -0.6459  1.3593
13423TIP3   OH261683   0.155   6.198   1.977  0.2328  0.2049 -0.2126
13423TIP3    H161684   0.228   6.233   1.926  1.2223 -1.2139  0.1897
13423TIP3    H261685   0.179   6.218   2.068  0.1769 -0.3712 -0.0731
13424TIP3   OH261686   3.783   2.582  11.708 -0.0358 -0.4266  0.1174
13424TIP3    H161687   3.729   2.585  11.788  0.0824 -2.3830  0.3103
13424TIP3    H261688   3.828   2.498  11.714 -2.0234 -1.8359 -3.2633
13425TIP3   OH261689   3.122   2.069  13.786  0.2312 -0.2038 -0.0681
13425TIP3    H161690   3.209   2.038  13.762  0.0516 -0.3917 -0.4912
13425TIP3    H261691   3.084   1.998  13.838  0.0177 -0.4739 -0.5919
13426TIP3   OH261692   2.397   5.393   3.509 -0.2312  0.1488  0.5655
13426TIP3    H161693   2.459   5.466   3.517  0.7220 -0.4581 -1.1862
13426TIP3    H261694   2.335   5.407   3.581  1.2827  1.3860  1.6679
13427TIP3   OH261695   3.893   1.872  15.251 -0.3726 -0.5781  0.4232
13427TIP3    H161696   3.849   1.835  15.175 -0.2644  2.1076 -0.9978
13427TIP3    H261697   3.844   1.839  15.326  0.3892 -4.4296 -0.6971
13428TIP3   OH261698   1.695   4.868  14.539 -0.3356  0.2738  0.1929
13428TIP3    H161699   1.687   4.795  14.599  0.0019 -0.5832 -0.8002
13428TIP3    H261700   1.652   4.941  14.584 -1.0794 -0.6458  0.9801
13429TIP3   OH261701   5.286   3.350  16.580  0.3195  0.8882  0.0071
13429TIP3    H161702   5.365   3.320  16.626 -0.7166 -1.3028  0.4217
13429TIP3    H261703   5.224   3.278  16.590 -0.8360  1.4682 -2.5687
13430TIP3   OH261704   3.485   0.985  13.055  0.4368  0.0263  0.3399
13430TIP3    H161705   3.483   0.912  12.992  0.9723 -0.1879  0.5669
13430TIP3    H261706   3.578   0.998  13.072  0.3193  0.5367  0.5684
13431TIP3   OH261707   2.694   5.471  15.968 -0.0987  0.0020 -0.0514
13431TIP3    H161708   2.718   5.391  16.015 -1.9879 -0.1289  0.7670
13431TIP3    H261709   2.751   5.472  15.891  1.1409 -1.2249  0.8284
13432TIP3   OH261710   4.699   0.923  11.351 -0.0058  0.6572 -0.3760
13432TIP3    H161711   4.768   0.888  11.408 -1.5593  0.5390  1.5127
13432TIP3    H261712   4.687   0.856  11.284  1.8689  0.7886 -0.8580
13433TIP3   OH261713   2.031   0.068   6.086  0.0073 -0.4638  0.0271
13433TIP3    H161714   2.062  -0.022   6.095 -0.4386 -0.7914 -1.5121
13433TIP3    H261715   2.110   0.120   6.070 -0.0261 -1.0248 -2.0448
13434TIP3   OH261716   6.448   2.176   6.127  0.3797 -0.4969 -0.4771
13434TIP3    H161717   6.489   2.093   6.150  0.5080 -0.3886 -0.3112
13434TIP3    H261718   6.354   2.159   6.132  0.4057 -0.7271 -0.7825
13435TIP3   OH261719   3.705   1.515   6.014 -0.7932 -0.1428  0.5213
13435TIP3    H161720   3.779   1.510   5.955 -2.7062 -1.4900 -1.8377
13435TIP3    H261721   3.700   1.427   6.054 -2.0713 -0.5538 -0.5324
13436TIP3   OH261722   4.955   2.086  15.356 -0.5488 -1.0260  0.3992
13436TIP3    H161723   4.943   2.066  15.264 -0.5844  3.2635 -0.6502
13436TIP3    H261724   4.870   2.120  15.384  0.3126  0.6074  1.1300
13437TIP3   OH261725   3.212   2.407   3.925  0.4479  0.2858 -0.5187
13437TIP3    H161726   3.159   2.484   3.943 -0.9284 -0.5490 -0.9635
13437TIP3    H261727   3.244   2.419   3.836 -0.4936 -0.0596 -0.9129
13438TIP3   OH261728   0.334   6.562   2.952  0.1415 -0.3468  0.0368
13438TIP3    H161729   0.289   6.489   2.910  1.6577 -1.0222 -0.4278
13438TIP3    H261730   0.307   6.639   2.901 -1.5558 -0.5343  0.6094
13439TIP3   OH261731   0.265   5.380  11.792 -0.2226  0.1685 -0.6442
13439TIP3    H161732   0.204   5.351  11.860 -1.6153 -0.1837 -2.0322
13439TIP3    H261733   0.256   5.475  11.791 -1.8036  0.0178 -1.8093
13440TIP3   OH261734   1.791   2.899  13.392 -0.3772 -0.0674  0.0500
13440TIP3    H161735   1.782   2.935  13.304  2.8384 -2.0532 -1.2001
13440TIP3    H261736   1.711   2.849  13.406  0.4575 -2.4120 -3.0935
13441TIP3   OH261737   3.873   2.007   0.094  0.0486  0.0706 -0.6917
13441TIP3    H161738   3.796   2.058   0.118  2.4527  3.0760  0.8895
13441TIP3    H261739   3.874   2.010  -0.002 -0.4695  2.1346 -0.6658
13442TIP3   OH261740   1.018   2.466  15.723  0.6973 -0.9926 -0.1004
13442TIP3    H161741   0.960   2.400  15.763  1.6970 -1.3872  0.7099
13442TIP3    H261742   0.983   2.478  15.635 -0.8874 -0.9140  0.5219
13443TIP3   OH261743   3.858   0.776  13.209  0.3116 -0.2408 -0.5474
13443TIP3    H161744   3.808   0.715  13.263 -0.0049 -0.8241 -1.4892
13443TIP3    H261745   3.937   0.795  13.260 -0.1084 -0.5802  0.2262
13444TIP3   OH261746   3.876   3.844   5.637  0.9221 -0.4906 -0.0730
13444TIP3    H161747   3.947   3.876   5.692  0.3855  0.8129 -0.1327
13444TIP3    H261748   3.797   3.881   5.676  0.5109  0.1727 -1.5133
13445TIP3   OH261749   6.481   3.636  14.576 -0.3918 -0.2103  0.2371
13445TIP3    H161750   6.395   3.629  14.535 -0.2073 -0.6839 -0.0747
13445TIP3    H261751   6.526   3.555  14.551  0.8665  0.9257 -1.2542
13446TIP3   OH261752   1.867   0.457   2.128 -0.3832  0.7069 -0.2315
13446TIP3    H161753   1.870   0.553   2.133  1.9027  0.6775 -0.2401
13446TIP3    H261754   1.810   0.439   2.053 -0.4934  2.0797 -0.5000
13447TIP3   OH261755   2.646   2.901  14.298  0.1949 -0.3806  0.7772
13447TIP3    H161756   2.733   2.937  14.316 -0.3858  1.4847 -0.0163
13447TIP3    H261757   2.662   2.810  14.273  1.6724 -0.8986  3.3542
13448TIP3   OH261758   4.547   1.022   3.660 -0.5320  0.2448  0.6010
13448TIP3    H161759   4.515   1.112   3.658  3.1485  1.6682  1.6423
13448TIP3    H261760   4.510   0.985   3.740 -0.5351  1.4505  1.1619
13449TIP3   OH261761   1.099   0.699   5.644 -0.3832  0.8469  0.0474
13449TIP3    H161762   1.030   0.668   5.702 -1.5390  1.3393 -1.0513
13449TIP3    H261763   1.161   0.626   5.639 -0.9195  0.3275  0.8651
13450TIP3   OH261764   3.120   0.973  11.329 -0.1422 -0.2985  0.1737
13450TIP3    H161765   3.106   0.882  11.353 -0.4061 -0.3874 -0.3207
13450TIP3    H261766   3.086   0.980  11.239  1.9082 -0.2728 -0.6420
13451TIP3   OH261767   0.191   4.615   2.771 -0.0510 -0.0750 -0.1796
13451TIP3    H161768   0.113   4.669   2.760  0.0954  0.1839  0.0482
13451TIP3    H261769   0.254   4.672   2.815  0.0760 -0.4583  0.1379
13452TIP3   OH261770   4.435   1.581   0.804 -0.5861  0.0321 -0.0796
13452TIP3    H161771   4.395   1.583   0.891 -1.8529  1.5066 -0.6505
13452TIP3    H261772   4.439   1.673   0.778  3.1899 -0.0538 -0.1064
13453TIP3   OH261773   1.532   2.466   0.402  0.4783 -0.1228  0.1600
13453TIP3    H161774   1.566   2.522   0.332 -1.0087  1.0420  0.3434
13453TIP3    H261775   1.465   2.520   0.445 -0.6322 -1.8700  0.6569
13454TIP3   OH261776   0.562   2.386  13.442 -0.2572  0.7064 -0.5229
13454TIP3    H161777   0.608   2.317  13.490 -1.4752 -0.4353 -0.9781
13454TIP3    H261778   0.604   2.467  13.472 -0.6758 -0.0005  2.1072
13455TIP3   OH261779   2.819   3.080  14.169  0.1213 -0.0094 -0.2033
13455TIP3    H161780   2.852   3.002  14.124  1.7880  0.8172 -0.4413
13455TIP3    H261781   2.727   3.084  14.146  0.5189 -0.7059 -1.9429
13456TIP3   OH261782   2.285   1.651   0.118 -0.6251  0.1908 -0.3559
13456TIP3    H161783   2.294   1.716   0.048 -1.0190  0.2900 -0.3160
13456TIP3    H261784   2.340   1.578   0.089  0.4563  0.8580 -0.0111
13457TIP3   OH261785   4.137   0.681   3.947  0.0821 -0.2211 -0.4787
13457TIP3    H161786   4.223   0.675   3.988  0.0922  1.0707 -0.2653
13457TIP3    H261787   4.075   0.669   4.019  0.1001  1.7697 -0.1007
13458TIP3   OH261788   4.849   4.139   6.232  0.3720  0.0581 -0.0233
13458TIP3    H161789   4.879   4.230   6.233 -1.2721  0.6249  0.2206
13458TIP3    H261790   4.811   4.125   6.319  0.8268 -0.9430  0.0252
13459TIP3   OH261791   2.916   5.532  15.773 -0.0737  0.1913  0.0377
13459TIP3    H161792   2.855   5.490  15.712 -0.1512 -1.8105  1.4639
13459TIP3    H261793   3.003   5.513  15.738 -0.1653  0.5498 -0.3919
13460TIP3   OH261794   3.311   2.383   6.431  0.6049  0.4347 -0.7068
13460TIP3    H161795   3.278   2.417   6.348  0.2597  0.1819 -0.6744
13460TIP3    H261796   3.385   2.327   6.407 -0.5244 -0.9775 -0.9933
13461TIP3   OH261797   0.298   4.969  12.046  0.4166 -0.0890  0.2955
13461TIP3    H161798   0.303   4.879  12.015  3.3632 -0.4772  1.7667
13461TIP3    H261799   0.327   5.022  11.972 -0.2542 -0.4289 -0.2097
13462TIP3   OH261800   1.878   0.440  17.044 -0.0451 -0.5076  0.0671
13462TIP3    H161801   1.827   0.411  17.119 -0.8601 -1.6387 -0.9029
13462TIP3    H261802   1.936   0.367  17.024 -0.1374 -0.3829 -0.6726
13463TIP3   OH261803   3.941   3.406  14.681  0.6299  0.1322 -0.0455
13463TIP3    H161804   3.953   3.490  14.724 -1.7572  0.5875 -0.1698
13463TIP3    H261805   3.925   3.428  14.589 -0.8444 -0.3784  0.0771
13464TIP3   OH261806   2.463   0.038  14.349  0.6129 -0.2122  0.0678
13464TIP3    H161807   2.397  -0.015  14.306  2.1618 -0.5505 -1.9987
13464TIP3    H261808   2.535  -0.022  14.366  0.4429  0.1521  2.2627
13465TIP3   OH261809   1.908   3.275  14.823 -0.3324 -0.0277  0.2411
13465TIP3    H161810   1.873   3.224  14.896 -1.1474 -1.4357 -1.0990
13465TIP3    H261811   1.979   3.220  14.787  0.0430  0.6339 -0.0382
13466TIP3   OH261812   1.690   2.982  14.830 -0.4447  0.5483  0.1586
13466TIP3    H161813   1.720   2.962  14.742  0.5653  0.1601  0.5833
13466TIP3    H261814   1.659   3.072  14.825  0.0748  0.6935 -0.4690
13467TIP3   OH261815   0.282   0.414   0.330  0.0078 -0.3610  0.0061
13467TIP3    H161816   0.245   0.371   0.252 -1.1861  1.6821 -0.5831
13467TIP3    H261817   0.248   0.503   0.327  0.5242 -0.0430  2.5077
13468TIP3   OH261818   0.311   4.362  13.616  0.2766  0.7184  0.7675
13468TIP3    H161819   0.272   4.420  13.682  1.2855  0.4199  1.6357
13468TIP3    H261820   0.405   4.375  13.625  0.4446  0.1804 -0.1741
13469TIP3   OH261821   4.014   4.722   4.879  0.2781  0.0805  0.1476
13469TIP3    H161822   3.927   4.761   4.874  0.2894  0.0226 -0.4867
13469TIP3    H261823   4.001   4.630   4.855  0.4504 -0.0256  0.4480
13470TIP3   OH261824   4.652   3.269   2.502 -0.0333 -0.2339  0.3599
13470TIP3    H161825   4.623   3.219   2.426 -1.5768 -0.7968  1.2945
13470TIP3    H261826   4.578   3.325   2.524  0.0880 -0.6380  1.9039
13471TIP3   OH261827   3.238   5.968   2.440  0.1728 -0.3481 -0.5939
13471TIP3    H161828   3.251   5.876   2.462  0.6688 -0.0020  0.6603
13471TIP3    H261829   3.174   5.999   2.504  0.1891  0.2343 -0.8538
13472TIP3   OH261830   1.978   5.208   0.420  0.1221 -0.8001  0.0310
13472TIP3    H161831   1.971   5.149   0.345  0.5801 -0.2844 -0.4219
13472TIP3    H261832   2.072   5.221   0.432  0.0253 -0.1308  0.0985
13473TIP3   OH261833   3.950   5.495  11.924 -0.3858 -0.6223 -0.3074
13473TIP3    H161834   3.920   5.561  11.862 -0.7870 -0.3497  0.1729
13473TIP3    H261835   3.999   5.545  11.990 -2.1145 -0.5896  0.9719
13474TIP3   OH261836   5.485   3.054   0.301 -0.1094  0.3123 -0.4169
13474TIP3    H161837   5.421   3.093   0.242 -1.6387 -1.4335 -0.0022
13474TIP3    H261838   5.542   3.126   0.327 -1.5217  1.7941 -1.3273
13475TIP3   OH261839   0.824   5.792  15.874  0.3463 -0.2320  0.1607
13475TIP3    H161840   0.896   5.748  15.830 -0.7166 -1.6342 -0.2021
13475TIP3    H261841   0.772   5.830  15.803  0.9073  1.0992  0.4365
13476TIP3   OH261842   0.773   4.785   4.457  0.5778 -0.0725  0.5838
13476TIP3    H161843   0.685   4.812   4.483  0.2167  0.0524 -0.7301
13476TIP3    H261844   0.779   4.693   4.483  0.0110 -0.1193  0.5504
13477TIP3   OH261845   0.991   2.600  14.318  0.0611  0.2023  0.0259
13477TIP3    H161846   1.030   2.660  14.382  1.7851 -0.3171 -0.5193
13477TIP3    H261847   1.030   2.514  14.338  0.5824  0.0185 -1.6622
13478TIP3   OH261848   6.033   1.079   4.022  0.0230 -0.3157 -0.8599
13478TIP3    H161849   5.999   1.040   4.103 -3.0230 -0.9132 -2.3419
13478TIP3    H261850   6.089   1.012   3.984 -1.7357 -1.6331 -1.2085
13479TIP3   OH261851   6.161   6.115   0.367 -0.4171  0.3130 -0.4956
13479TIP3    H161852   6.238   6.071   0.332 -1.0063 -0.2563 -1.1157
13479TIP3    H261853   6.105   6.130   0.290 -0.9465  0.6537 -0.0477
13480TIP3   OH261854   2.988   5.741   0.680  0.0401 -0.3713  0.0809
13480TIP3    H161855   3.049   5.814   0.670 -1.0974  0.7007  0.7786
13480TIP3    H261856   2.931   5.747   0.603 -0.5029 -0.0610  0.4945
13481TIP3   OH261857   1.706   0.988   6.296 -0.0231 -0.6753 -0.0052
13481TIP3    H161858   1.711   1.080   6.272 -2.2245 -0.4624  0.2892
13481TIP3    H261859   1.777   0.976   6.360 -0.6042  1.1272  0.9958
13482TIP3   OH261860   5.788   4.561  11.506  0.2591  0.5140  0.1304
13482TIP3    H161861   5.761   4.649  11.531  2.0115  0.9652  0.4735
13482TIP3    H261862   5.838   4.573  11.425  3.7088  0.3178  2.1337
13483TIP3   OH261863   5.351   4.443  13.945 -0.1156 -0.1001  0.0784
13483TIP3    H161864   5.343   4.348  13.949 -1.6014  0.0638  1.4733
13483TIP3    H261865   5.333   4.473  14.034 -0.7576  1.5673 -0.5876
13484TIP3   OH261866   5.292   3.298   6.717 -0.1768  0.2009 -0.6537
13484TIP3    H161867   5.259   3.380   6.756  1.1229  1.9384 -3.0784
13484TIP3    H261868   5.250   3.295   6.631  0.8537 -0.9950 -1.1136
13485TIP3   OH261869   5.498   6.037  14.583 -0.2041 -0.4653 -0.1738
13485TIP3    H161870   5.580   6.081  14.608 -1.1090  1.3438 -0.3237
13485TIP3    H261871   5.447   6.033  14.663 -0.0681 -1.3777 -0.1340
13486TIP3   OH261872   6.739   4.099   5.733 -0.1248  0.0612  0.1610
13486TIP3    H161873   6.758   4.164   5.666  0.0781 -1.4069 -1.2329
13486TIP3    H261874   6.678   4.143   5.792 -0.0729  1.4747 -0.8176
13487TIP3   OH261875   4.271   6.274  12.674  0.6026 -0.0641  0.3206
13487TIP3    H161876   4.238   6.328  12.745  0.8576  0.0479  0.3559
13487TIP3    H261877   4.312   6.199  12.717  0.5952 -0.0882  0.2868
13488TIP3   OH261878   3.809   2.321   4.794  0.5067 -0.1265 -0.0035
13488TIP3    H161879   3.872   2.336   4.864  2.4446  1.6403 -2.0583
13488TIP3    H261880   3.854   2.264   4.731 -0.8449 -0.8753 -0.3343
13489TIP3   OH261881   0.116   2.989  16.554  0.2763  0.1475 -0.0685
13489TIP3    H161882   0.065   3.031  16.624 -0.2779 -1.2971  0.4064
13489TIP3    H261883   0.082   2.900  16.549  1.0813 -0.0994 -1.4318
13490TIP3   OH261884   6.299   4.314  12.958  0.4937 -0.3959 -0.3443
13490TIP3    H161885   6.315   4.357  13.042 -0.6128 -0.7338  0.0462
13490TIP3    H261886   6.215   4.270  12.969  1.9359 -3.3399 -0.4457
13491TIP3   OH261887   2.950   6.240  12.487  0.3277 -0.0602  0.0899
13491TIP3    H161888   2.971   6.150  12.463  1.5283  0.3266 -0.3105
13491TIP3    H261889   2.933   6.236  12.581 -1.9649 -1.1191 -0.3329
13492TIP3   OH261890   6.023   5.127  10.954 -0.1122  0.4732  0.0631
13492TIP3    H161891   6.042   5.170  11.037 -1.9950  2.4513 -0.4775
13492TIP3    H261892   6.088   5.161  10.893  2.5414 -2.4813  1.1082
13493TIP3   OH261893   6.355   4.549  14.771  0.9443  0.5938 -0.1446
13493TIP3    H161894   6.401   4.473  14.735  1.5648  0.8691  0.0527
13493TIP3    H261895   6.405   4.572  14.850 -0.5866 -0.2109  1.0974
13494TIP3   OH261896   4.594   3.891   6.160  0.6463 -0.2949 -0.2370
13494TIP3    H161897   4.599   3.795   6.154 -0.7409 -0.4988  1.3326
13494TIP3    H261898   4.628   3.911   6.247  0.2135  0.5739 -0.2653
13495TIP3   OH261899   4.522   1.609  13.771 -0.6166 -0.5012  0.1902
13495TIP3    H161900   4.555   1.644  13.854 -1.7087 -0.7471  0.7347
13495TIP3    H261901   4.585   1.542  13.746  1.3721  1.6453 -0.7431
13496TIP3   OH261902   0.577   4.273  12.695  0.0119 -0.3889 -0.1642
13496TIP3    H161903   0.546   4.359  12.722 -0.3960  0.0942 -2.1021
13496TIP3    H261904   0.671   4.275  12.710  0.0134  0.4066 -0.2779
13497TIP3   OH261905   6.304   4.519   0.545 -0.0203  0.7506  0.3426
13497TIP3    H161906   6.364   4.444   0.547 -0.2238  0.5910  0.4468
13497TIP3    H261907   6.361   4.594   0.528 -0.0088  0.4016 -1.1738
13498TIP3   OH261908   3.640   6.589  11.439  0.6630  0.4047 -0.4840
13498TIP3    H161909   3.568   6.633  11.484  0.6337 -0.0740 -0.0614
13498TIP3    H261910   3.692   6.660  11.401 -1.1036  0.6824 -2.4471
13499TIP3   OH261911   4.035   5.344   6.506 -0.4994  0.1674  0.0339
13499TIP3    H161912   4.037   5.439   6.516 -0.4046  0.2188 -0.4671
13499TIP3    H261913   4.076   5.328   6.421 -0.3376 -0.3340  0.2030
13500TIP3   OH261914   0.329   2.282   3.815  0.1582  1.1425  0.2262
13500TIP3    H161915   0.372   2.289   3.900  2.6182 -1.2996 -0.7194
13500TIP3    H261916   0.394   2.316   3.753 -1.4293  2.4707 -0.7699
13501TIP3   OH261917   5.377   1.117  12.897 -0.6675 -0.0026  0.1720
13501TIP3    H161918   5.444   1.066  12.941  0.6246  2.2640  0.8882
13501TIP3    H261919   5.299   1.061  12.898  0.8317 -2.1209  0.4943
13502TIP3   OH261920   6.257   3.420   2.309  0.5035  0.2730 -0.3287
13502TIP3    H161921   6.258   3.466   2.393 -0.4549 -0.3958  0.0512
13502TIP3    H261922   6.301   3.337   2.326 -0.7937 -0.4022 -0.1568
13503TIP3   OH261923   2.615   0.812  15.825  0.1827  0.3035  0.4626
13503TIP3    H161924   2.569   0.801  15.742 -1.0595 -0.3161  1.2220
13503TIP3    H261925   2.691   0.755  15.818  0.3145  0.5858 -0.4214
13504TIP3   OH261926   6.621   1.923  16.893  0.0013  0.0550 -0.0804
13504TIP3    H161927   6.631   1.830  16.914  0.4282  0.3251  0.9122
13504TIP3    H261928   6.705   1.962  16.915 -1.1790  1.2505  2.5601
13505TIP3   OH261929   3.309   5.657   0.065  0.1355  0.0889  0.1307
13505TIP3    H161930   3.336   5.726   0.126 -0.7253  0.4304  0.1274
13505TIP3    H261931   3.391   5.629   0.024  0.6915  0.0667  1.2196
13506TIP3   OH261932   0.377   4.037   6.024 -0.2668  0.3889 -0.1353
13506TIP3    H161933   0.383   3.942   6.027 -0.2763  0.3694 -0.7385
13506TIP3    H261934   0.332   4.057   5.942 -0.1156  0.9207 -0.0965
13507TIP3   OH261935   5.218   0.426   5.337 -0.2183  0.1484  0.0551
13507TIP3    H161936   5.214   0.332   5.320 -0.1854  0.0198  0.7502
13507TIP3    H261937   5.127   0.451   5.354 -0.3806  0.4493 -1.1967
13508TIP3   OH261938   4.752   4.443   1.004 -0.9111  0.2485 -0.3306
13508TIP3    H161939   4.664   4.409   0.986 -0.9754  0.9303 -1.3469
13508TIP3    H261940   4.737   4.519   1.060 -0.9951  0.4849 -0.6679
13509TIP3   OH261941   6.027   2.320  11.208  0.2438 -0.3618  0.0052
13509TIP3    H161942   6.101   2.381  11.205 -0.1253  0.0271 -1.8970
13509TIP3    H261943   6.015   2.301  11.301  2.5104 -0.1682  0.3612
13510TIP3   OH261944   0.770   0.015  14.677 -0.4735  0.1963 -0.6751
13510TIP3    H161945   0.752   0.043  14.588 -1.0480 -1.6118 -1.1522
13510TIP3    H261946   0.686   0.022  14.722 -0.6301 -0.7676 -0.8096
13511TIP3   OH261947   0.890   3.658  13.067  0.7685 -0.0013 -0.0307
13511TIP3    H161948   0.849   3.656  12.980  0.8600  1.1889 -0.1224
13511TIP3    H261949   0.889   3.568  13.097  0.3046 -0.3518 -1.0780
13512TIP3   OH261950   4.240   3.355   6.248  0.5880 -0.1038 -0.0783
13512TIP3    H161951   4.256   3.444   6.215  0.8461  0.0566  0.4714
13512TIP3    H261952   4.220   3.304   6.170 -0.8553  0.7153 -0.2597
13513TIP3   OH261953   0.578   1.023  15.797  0.5124  0.3270 -0.3452
13513TIP3    H161954   0.493   1.056  15.766 -1.2917 -1.3501  2.6287
13513TIP3    H261955   0.588   1.061  15.884  4.1343  2.6144 -1.6142
13514TIP3   OH261956   4.376   5.308   3.295  0.1327  0.1470 -0.0130
13514TIP3    H161957   4.314   5.240   3.321 -0.0743  0.4539  0.3087
13514TIP3    H261958   4.422   5.331   3.376  0.9863 -0.3977 -0.3371
13515TIP3   OH261959   5.300   6.641   1.632  0.2037  0.2407 -0.2567
13515TIP3    H161960   5.231   6.706   1.648 -0.7038 -0.9156  0.6690
13515TIP3    H261961   5.381   6.689   1.645 -0.4547  1.1085  0.7683
13516TIP3   OH261962   0.933   6.647  13.861 -0.1283  0.3509 -0.6217
13516TIP3    H161963   0.982   6.567  13.842 -1.3951 -0.6577  0.2527
13516TIP3    H261964   0.999   6.717  13.857  1.7864 -1.1799  2.4163
13517TIP3   OH261965   5.852   6.404   6.107  0.1931  0.3311 -0.2695
13517TIP3    H161966   5.914   6.413   6.034  0.5359 -0.3387 -0.0703
13517TIP3    H261967   5.864   6.483   6.159 -0.3244  0.9884 -1.1467
13518TIP3   OH261968   1.939   0.516  11.117 -0.3944  0.2690  0.0302
13518TIP3    H161969   1.938   0.608  11.089 -2.6387  0.4514  0.6742
13518TIP3    H261970   1.865   0.476  11.072  0.4439 -1.2133 -0.0781
13519TIP3   OH261971   4.093   4.432  14.626 -0.1826 -0.4718  0.2133
13519TIP3    H161972   4.006   4.469  14.607 -0.0811 -0.0704  0.5250
13519TIP3    H261973   4.081   4.383  14.707 -0.7001 -2.4875 -1.0401
13520TIP3   OH261974   3.855   1.938  12.677  0.6304 -0.3674 -0.0129
13520TIP3    H161975   3.837   1.845  12.687 -1.1264 -0.0132  0.3192
13520TIP3    H261976   3.881   1.967  12.764  0.6877 -0.4445 -0.0044
13521TIP3   OH261977   6.389   5.996  14.493 -0.0309  0.3028 -0.3459
13521TIP3    H161978   6.409   6.043  14.412 -0.8990  1.3654  0.0483
13521TIP3    H261979   6.467   5.941  14.508  0.4801  0.7016 -1.4539
13522TIP3   OH261980   4.113   1.703   4.093  0.0396 -0.7979 -0.0678
13522TIP3    H161981   4.060   1.708   4.172  0.5895 -0.1873  0.2610
13522TIP3    H261982   4.191   1.654   4.119  1.3564  1.4872  0.4110
13523TIP3   OH261983   6.364   4.804  11.585  0.2621 -0.4765  0.2974
13523TIP3    H161984   6.413   4.886  11.577  0.7846 -1.0009 -2.4837
13523TIP3    H261985   6.335   4.802  11.676  0.1867  2.8355  0.4116
13524TIP3   OH261986   0.649   2.554  11.328 -0.5813  0.4988 -0.1505
13524TIP3    H161987   0.568   2.525  11.285  0.4117 -0.4471 -1.4106
13524TIP3    H261988   0.716   2.550  11.260  0.5862  1.0914  0.9282
13525TIP3   OH261989   6.081   3.291   0.609 -0.4090  0.0822  0.2637
13525TIP3    H161990   6.092   3.374   0.656 -0.3687  0.9386 -1.2327
13525TIP3    H261991   6.170   3.268   0.581 -0.5760  0.1045 -0.2848
13526TIP3   OH261992   5.766   4.156  15.349 -0.0096 -0.1620  0.5048
13526TIP3    H161993   5.715   4.134  15.426 -1.3097  0.0913 -0.2650
13526TIP3    H261994   5.853   4.177  15.383 -0.8182  0.8709  2.0055
13527TIP3   OH261995   0.945   3.042   3.331  0.3487  0.0036 -0.1636
13527TIP3    H161996   1.032   3.002   3.335  0.6358  0.6057 -0.3033
13527TIP3    H261997   0.951   3.107   3.262  0.3216  1.2923  1.0264
13528TIP3   OH261998   1.091   0.583   6.103 -0.7584  0.1589  0.2496
13528TIP3    H161999   1.152   0.534   6.048 -0.7400  1.5968 -1.0651
13528TIP3    H262000   1.144   0.653   6.142 -1.5866  1.6152 -1.1527
13529TIP3   OH262001   3.029   0.707   3.457 -0.1129  0.2251 -0.0941
13529TIP3    H162002   3.116   0.668   3.457 -0.3099 -0.2588  1.3677
13529TIP3    H262003   3.012   0.728   3.549 -1.2327  1.0135 -0.4632
13530TIP3   OH262004   2.616   3.493  15.327 -0.5539 -0.4842 -0.3488
13530TIP3    H162005   2.540   3.545  15.300  1.2916  2.9439  0.7166
13530TIP3    H262006   2.640   3.443  15.249 -3.5320 -1.2488 -0.8580
13531TIP3   OH262007   3.100   4.502  12.895 -0.4954 -0.2839  0.5203
13531TIP3    H162008   3.007   4.520  12.910 -0.3654  0.4866  0.4097
13531TIP3    H262009   3.143   4.525  12.977 -0.2926  0.1884  0.2840
13532TIP3   OH262010   1.684   4.939  12.280 -0.5327  0.1721 -0.4856
13532TIP3    H162011   1.728   4.974  12.358 -1.2712 -1.4042  0.6524
13532TIP3    H262012   1.706   5.002  12.210  3.0593 -0.2490  0.1599
13533TIP3   OH262013   5.949   1.795  15.798 -0.2213 -0.4042 -0.2042
13533TIP3    H162014   5.886   1.753  15.740  0.8141 -2.5392  0.1445
13533TIP3    H262015   6.033   1.784  15.754  0.2046  0.3296  0.4249
13534TIP3   OH262016   5.479   5.470   5.603 -0.3512 -0.3307 -0.4333
13534TIP3    H162017   5.493   5.524   5.680 -3.3855 -1.0772  0.7319
13534TIP3    H262018   5.487   5.380   5.635 -1.3303 -0.6369 -1.0102
13535TIP3   OH262019   5.698   1.901  14.392  0.1171  0.2265 -0.3708
13535TIP3    H162020   5.727   1.941  14.310 -0.9898 -0.6672 -1.2120
13535TIP3    H262021   5.757   1.827  14.405  2.2779  2.1739  1.2761
13536TIP3   OH262022   3.332   4.046  15.223  0.3607  0.7032  0.2610
13536TIP3    H162023   3.267   4.051  15.292  0.3652  0.2161  0.2985
13536TIP3    H262024   3.405   3.998  15.262  0.1320 -0.0714 -0.2629
13537TIP3   OH262025   2.521   1.754   5.220  0.5250 -0.7998 -0.4007
13537TIP3    H162026   2.564   1.787   5.299  0.1015  0.1447 -0.5550
13537TIP3    H262027   2.570   1.675   5.197 -1.2205 -2.8741  2.5639
13538TIP3   OH262028   4.543   0.960   2.392  0.0117 -0.0632  0.0755
13538TIP3    H162029   4.635   0.935   2.392  0.1446  0.4134  0.1016
13538TIP3    H262030   4.506   0.917   2.469 -0.0570 -1.1979 -0.5805
13539TIP3   OH262031   4.006   1.469  14.438 -0.2264 -0.1874 -0.5924
13539TIP3    H162032   4.022   1.467  14.344 -0.0874 -0.4121 -0.5637
13539TIP3    H262033   4.051   1.547  14.469 -0.7015  0.1658 -0.7913
13540TIP3   OH262034   6.312   3.352   0.978  0.3660 -0.6703  0.2488
13540TIP3    H162035   6.319   3.363   1.073  0.1714 -1.1357  0.3178
13540TIP3    H262036   6.224   3.317   0.964 -0.2894  1.0946 -0.2635
13541TIP3   OH262037   2.682   4.640  13.018  0.0614  0.0138  0.4086
13541TIP3    H162038   2.686   4.639  12.923  0.1656 -0.1528  0.4140
13541TIP3    H262039   2.698   4.549  13.044 -0.0373  0.0458  0.5816
13542TIP3   OH262040   6.441   4.005  14.516 -0.6279 -0.1000  0.1338
13542TIP3    H162041   6.500   3.934  14.490  0.1525  0.5646  0.0955
13542TIP3    H262042   6.366   3.997  14.457  0.3001  0.2559 -1.1015
13543TIP3   OH262043   6.549   0.941  13.651 -0.4375 -0.3011  0.1209
13543TIP3    H162044   6.569   0.859  13.696  0.9094  1.0319  2.0211
13543TIP3    H262045   6.546   0.917  13.558  0.7125 -2.3546  0.5855
13544TIP3   OH262046   5.821   4.766   4.497 -0.8407  0.0881 -0.1842
13544TIP3    H162047   5.805   4.687   4.445  0.7823 -0.6996  0.4746
13544TIP3    H262048   5.827   4.837   4.434  1.7225 -0.9408 -1.1623
13545TIP3   OH262049   1.747   4.834  15.328  0.3367 -0.3477  0.0477
13545TIP3    H162050   1.685   4.788  15.271 -1.4138  3.5331 -1.3574
13545TIP3    H262051   1.830   4.834  15.279 -0.0455 -0.7041 -0.5971
13546TIP3   OH262052   0.657   3.310  12.702  1.0293  1.3170 -0.1493
13546TIP3    H162053   0.736   3.258  12.685  0.9880  1.0936  0.3493
13546TIP3    H262054   0.666   3.386  12.644 -0.1895 -0.5258 -2.8505
13547TIP3   OH262055   3.317   3.743   6.556  0.4575 -1.0247  0.4995
13547TIP3    H162056   3.352   3.821   6.599 -0.6709 -0.7350  0.9213
13547TIP3    H262057   3.370   3.671   6.589 -0.4354 -0.8207  2.4686
13548TIP3   OH262058   5.540   6.745   5.719 -0.1176  0.1424  0.2666
13548TIP3    H162059   5.607   6.772   5.656  1.2497  0.5628  1.8767
13548TIP3    H262060   5.576   6.767   5.805 -3.1054  2.1994  1.1093
13549TIP3   OH262061   5.940   4.903  12.472 -0.4721  0.3941  0.0304
13549TIP3    H162062   5.994   4.920  12.550  0.1951 -1.2513 -0.0595
13549TIP3    H262063   5.860   4.864  12.506 -0.2090 -0.2634 -0.0975
13550TIP3   OH262064   5.682   6.670  13.750 -0.4083  0.0315  0.5913
13550TIP3    H162065   5.751   6.611  13.721  0.1934  0.1553  1.7183
13550TIP3    H262066   5.606   6.614  13.764 -0.8105  0.0206 -1.5031
13551TIP3   OH262067   4.073   6.581  13.535  0.4227 -0.4230  0.4394
13551TIP3    H162068   3.984   6.579  13.500  1.2473 -1.9440 -1.6683
13551TIP3    H262069   4.064   6.550  13.625 -0.9823 -2.1676 -0.2681
13552TIP3   OH262070   5.936   4.283   1.107 -0.0600 -0.1144  0.6878
13552TIP3    H162071   5.990   4.361   1.125  0.3136 -0.0571 -0.6151
13552TIP3    H262072   5.930   4.280   1.011  1.5352 -2.7663  0.6322
13553TIP3   OH262073   3.588   2.834   0.603  0.5047  0.7041  0.3434
13553TIP3    H162074   3.575   2.870   0.691 -2.9086  1.4041 -0.3623
13553TIP3    H262075   3.571   2.741   0.613 -0.3390  0.8550  0.3539
13554TIP3   OH262076   0.552   4.214  12.236  0.3886  0.0540  0.2303
13554TIP3    H162077   0.558   4.278  12.165  2.5979  0.2604  0.5667
13554TIP3    H262078   0.526   4.264  12.313 -1.8797 -0.1486 -0.3579
13555TIP3   OH262079   4.942   1.093   3.469 -0.3386 -0.3562 -0.2952
13555TIP3    H162080   4.894   1.011   3.486 -1.4169  0.4023  0.3980
13555TIP3    H262081   5.015   1.091   3.531  0.5803 -1.5610 -1.4083
13556TIP3   OH262082   1.302   1.121  15.243 -0.1690 -0.1088  0.0075
13556TIP3    H162083   1.213   1.097  15.218  0.2579  0.2346 -1.8678
13556TIP3    H262084   1.352   1.040  15.239 -0.2555 -0.1893  0.4851
13557TIP3   OH262085   6.640   2.638  12.232  0.0284  0.7389  0.3630
13557TIP3    H162086   6.645   2.690  12.151  0.1683 -0.4240 -0.3864
13557TIP3    H262087   6.728   2.603  12.244 -0.3193 -0.1836  0.2843
13558TIP3   OH262088   5.399   5.167   3.368  0.5583 -0.0070 -0.1027
13558TIP3    H162089   5.419   5.127   3.453 -1.9653  1.1982  1.1095
13558TIP3    H262090   5.483   5.200   3.337  2.1824 -3.5092  0.2671
13559TIP3   OH262091   3.613   5.141  16.930  0.1612 -0.3886  0.2576
13559TIP3    H162092   3.642   5.232  16.926 -0.3505 -0.2954 -1.6120
13559TIP3    H262093   3.694   5.091  16.936  0.4075  0.2316  2.7380
13560TIP3   OH262094   4.403   6.086   5.218 -0.7328 -0.3313  0.8806
13560TIP3    H162095   4.440   6.091   5.130 -0.5479 -0.0021  0.9766
13560TIP3    H262096   4.356   6.002   5.220  0.0521 -0.7746  0.7845
13561TIP3   OH262097   1.642   4.260  14.218 -0.2618  0.1653  0.0097
13561TIP3    H162098   1.661   4.222  14.132 -0.5741 -0.0345  0.0265
13561TIP3    H262099   1.698   4.337  14.224  3.1308 -2.3202  1.4828
13562TIP3   OH262100   2.898   1.969   4.624  0.2795 -0.1521 -0.0147
13562TIP3    H162101   2.810   1.992   4.594 -0.1702 -0.7889  0.8142
13562TIP3    H262102   2.952   2.043   4.596 -0.3189 -0.2314 -1.4464
13563TIP3   OH262103   3.834   1.947   1.422  0.0923 -0.1542 -0.1031
13563TIP3    H162104   3.820   1.857   1.392  1.2028  0.9489 -4.1219
13563TIP3    H262105   3.746   1.982   1.436 -0.4250 -0.8974 -1.4493
13564TIP3   OH262106   6.291   1.832  11.839 -0.1224 -0.2289 -0.2566
13564TIP3    H162107   6.351   1.758  11.834  1.4759  1.0589 -0.6829
13564TIP3    H262108   6.206   1.796  11.815  1.0343 -1.5018 -2.6214
13565TIP3   OH262109   2.232   0.960  14.669  0.3723  0.2207  0.1561
13565TIP3    H162110   2.160   0.916  14.625  0.0889 -0.3598  1.1973
13565TIP3    H262111   2.309   0.908  14.647  0.1477 -0.3842  0.7878
13566TIP3   OH262112   2.839   5.234  16.079  0.2958  0.0027 -0.1922
13566TIP3    H162113   2.784   5.159  16.102  1.3467 -0.7394 -0.0701
13566TIP3    H262114   2.920   5.220  16.128  0.5226  1.1893 -0.2157
13567TIP3   OH262115   6.482   6.493  12.878 -0.2095  0.8545 -0.3517
13567TIP3    H162116   6.509   6.429  12.812  0.7111 -0.4146  1.2295
13567TIP3    H262117   6.550   6.560  12.875  0.5351  0.1365  0.2010
13568TIP3   OH262118   2.825   2.241   1.949 -0.3425 -0.1044  0.3332
13568TIP3    H162119   2.903   2.220   1.898  0.9925  2.4163  1.2669
13568TIP3    H262120   2.778   2.306   1.896 -0.4879  0.2831  0.9314
13569TIP3   OH262121   5.142   5.975   5.009 -0.3101  0.6298 -0.1598
13569TIP3    H162122   5.074   5.908   5.016 -1.6309  1.7705 -1.5752
13569TIP3    H262123   5.223   5.929   5.031 -1.3717 -1.0590  0.3643
13570TIP3   OH262124   5.405   2.324   3.693 -0.3119 -0.4282  0.4210
13570TIP3    H162125   5.431   2.302   3.782  0.3641 -1.9912 -0.1465
13570TIP3    H262126   5.439   2.252   3.640 -1.0236  0.3077 -1.0502
13571TIP3   OH262127   2.054   0.399  14.662  0.4447  0.0001  0.3298
13571TIP3    H162128   1.987   0.463  14.638 -1.8063 -1.7560  1.7726
13571TIP3    H262129   2.049   0.393  14.757  2.6189 -0.2034  0.4423
13572TIP3   OH262130   4.929   6.575   4.217  0.0561 -0.0591 -0.3286
13572TIP3    H162131   4.942   6.557   4.310  1.7256 -0.9312 -0.6967
13572TIP3    H262132   5.017   6.570   4.180 -0.5849  0.3563 -1.9453
13573TIP3   OH262133   3.746   5.631   4.175 -0.0932  0.0788  0.3369
13573TIP3    H162134   3.719   5.565   4.111  0.3162  0.8616 -0.6462
13573TIP3    H262135   3.816   5.588   4.225  0.6939  0.0159 -0.7943
13574TIP3   OH262136   0.651   0.033   1.250 -0.0022 -0.2760 -0.1714
13574TIP3    H162137   0.601  -0.034   1.202 -0.3919 -0.7405  0.8781
13574TIP3    H262138   0.586   0.100   1.271 -0.0932 -0.6702  0.8076
13575TIP3   OH262139   5.826   6.392  15.342 -0.2997 -0.4087  0.1811
13575TIP3    H162140   5.789   6.478  15.358 -0.3269 -0.5380  0.8110
13575TIP3    H262141   5.816   6.345  15.425  0.1007 -0.8749 -0.0293
13576TIP3   OH262142   6.685   0.625   0.487 -0.2428 -0.0101  0.1679
13576TIP3    H162143   6.693   0.687   0.414 -0.5974 -1.2715 -0.9766
13576TIP3    H262144   6.725   0.545   0.454 -0.3723 -0.5869  1.3954
13577TIP3   OH262145   5.874   3.930   2.807  0.0984  0.0299  0.3716
13577TIP3    H162146   5.838   3.946   2.720  0.1434 -1.2909  0.0998
13577TIP3    H262147   5.968   3.941   2.796  0.1408 -0.5406  0.1611
13578TIP3   OH262148   5.574   4.717  12.073  0.2098  1.0139 -0.1567
13578TIP3    H162149   5.618   4.751  12.150  0.8215  3.2710 -1.4291
13578TIP3    H262150   5.587   4.785  12.006  1.0701 -1.5669 -2.7163
13579TIP3   OH262151   1.041   5.179  12.142 -0.2431  0.8837 -0.2424
13579TIP3    H162152   1.085   5.166  12.058 -2.8607 -0.2437 -1.4940
13579TIP3    H262153   1.070   5.105  12.196 -1.1395 -0.2558 -1.3024
13580TIP3   OH262154   3.003   2.848  16.741  0.1924  0.4653 -0.3449
13580TIP3    H162155   3.056   2.898  16.802  0.2630  0.3920 -0.3456
13580TIP3    H262156   3.029   2.880  16.654 -0.5857  1.2223 -0.2921
13581TIP3   OH262157   0.086   6.494  11.983 -0.1527 -0.1341  0.4771
13581TIP3    H162158   0.169   6.447  11.991  0.7506  1.7575  2.8018
13581TIP3    H262159   0.023   6.427  11.957  1.8184 -1.8790  0.0621
13582TIP3   OH262160   2.188   6.595  15.094 -0.5422  0.1559  0.5548
13582TIP3    H162161   2.113   6.551  15.134 -0.4280 -1.3131 -0.7539
13582TIP3    H262162   2.247   6.523  15.070  0.9095  1.2371  0.8299
13583TIP3   OH262163   4.916   4.268   3.578  0.2496  0.0218 -0.2193
13583TIP3    H162164   4.829   4.229   3.588  1.0669 -1.5865  0.6746
13583TIP3    H262165   4.977   4.201   3.609  1.7796  1.3892 -0.1953
13584TIP3   OH262166   0.858   3.782  15.310  0.2939 -0.1869  0.1451
13584TIP3    H162167   0.906   3.859  15.341  0.0267  1.0072 -2.2300
13584TIP3    H262168   0.769   3.796  15.340 -0.0626  1.1820 -1.4489
13585TIP3   OH262169   4.328   5.694  16.668 -0.1143 -0.6286  0.5275
13585TIP3    H162170   4.322   5.644  16.749 -0.3185 -0.6925  0.4734
13585TIP3    H262171   4.344   5.784  16.696  0.3205 -0.7355  0.6256
13586TIP3   OH262172   2.196   5.982   3.664  0.0725 -0.0025  0.2728
13586TIP3    H162173   2.156   6.058   3.622  1.4045  0.7039  0.2834
13586TIP3    H262174   2.287   6.007   3.679  0.1907 -1.0993  1.4861
13587TIP3   OH262175   3.947   2.490   2.842 -0.7329 -0.0567  0.4491
13587TIP3    H162176   3.921   2.488   2.934 -0.2391 -0.5957  0.5809
13587TIP3    H262177   3.867   2.470   2.794 -0.3432 -2.9778  0.8955
13588TIP3   OH262178   1.091   6.284   3.576  0.0034  0.0169 -0.6644
13588TIP3    H162179   1.164   6.225   3.595 -2.6328 -2.9789  0.7059
13588TIP3    H262180   1.075   6.273   3.482 -1.6110 -2.9780 -0.1108
13589TIP3   OH262181   2.879   4.976  13.317  0.1559 -0.1651  0.0519
13589TIP3    H162182   2.819   5.051  13.314  1.1870  0.7280  1.0469
13589TIP3    H262183   2.856   4.930  13.397  1.5209  0.8300  1.0470
13590TIP3   OH262184   0.940   0.327   2.356  0.2177  0.1018  0.0890
13590TIP3    H162185   0.892   0.401   2.319 -1.3080 -1.3202 -0.8408
13590TIP3    H262186   1.016   0.317   2.300 -1.0314 -0.7535 -1.5117
13591TIP3   OH262187   3.959   4.515  14.149  0.3348 -0.3083  0.4348
13591TIP3    H162188   3.915   4.570  14.214 -0.2053 -1.0507  0.7008
13591TIP3    H262189   3.935   4.426  14.172  1.3625 -0.6772  0.1137
13592TIP3   OH262190   0.643   3.072  15.921 -0.0966 -0.2080 -0.2896
13592TIP3    H162191   0.646   3.132  15.846  0.3519  1.9429  1.4065
13592TIP3    H262192   0.571   3.012  15.901 -1.7161  1.9845 -1.2367
13593TIP3   OH262193   3.334   0.578  10.615 -0.4618 -0.0797  0.1433
13593TIP3    H162194   3.336   0.623  10.700  2.2629  0.3794 -0.1100
13593TIP3    H262195   3.313   0.647  10.552 -0.5705 -0.0204  0.2438
13594TIP3   OH262196   3.772   4.483  16.845 -0.0687  0.1153 -0.2713
13594TIP3    H162197   3.700   4.426  16.816 -0.2291  1.0569 -1.7874
13594TIP3    H262198   3.738   4.572  16.832  0.5126  0.5624  1.2212
13595TIP3   OH262199   3.505   3.847  16.001 -0.0950 -0.1556  0.2616
13595TIP3    H162200   3.549   3.922  15.961 -2.0751  1.6406  1.3590
13595TIP3    H262201   3.557   3.771  15.973  1.1277  1.4637 -2.0443
13596TIP3   OH262202   2.899   4.271   0.411 -0.0697 -0.1197  0.2805
13596TIP3    H162203   2.900   4.274   0.507 -1.8149 -0.5977  0.3328
13596TIP3    H262204   2.887   4.179   0.390  2.1693 -0.2889 -0.4639
13597TIP3   OH262205   5.957   1.296  12.213 -0.2577 -0.1545  0.1480
13597TIP3    H162206   5.896   1.258  12.150  0.3429  0.0169 -0.5408
13597TIP3    H262207   6.043   1.263  12.188 -0.0592 -0.4173  1.1329
13598TIP3   OH262208   1.948   0.620  14.065  0.5263 -0.5376  0.2919
13598TIP3    H162209   1.901   0.630  13.982  2.0563 -0.5138 -0.5909
13598TIP3    H262210   1.921   0.696  14.117  0.1309 -0.1555 -0.4601
13599TIP3   OH262211   4.898   6.070   0.007  0.0279 -0.5951 -0.5532
13599TIP3    H162212   4.806   6.076   0.032  0.2288 -1.4195  0.3768
13599TIP3    H262213   4.924   6.161  -0.007 -1.3441 -0.4333 -2.4034
13600TIP3   OH262214   4.665   0.380  14.862  0.1456 -0.2673  0.2181
13600TIP3    H162215   4.664   0.374  14.767  0.4238 -1.1428  0.2707
13600TIP3    H262216   4.756   0.369  14.887  0.0903  0.0581  0.5861
13601TIP3   OH262217   6.186   1.417   2.145  0.2643  0.0356 -0.0295
13601TIP3    H162218   6.163   1.325   2.160  0.3088  0.2375  1.3249
13601TIP3    H262219   6.255   1.413   2.078  1.0000 -0.9883  0.7689
13602TIP3   OH262220   3.043   6.686  14.471  0.2186  0.4998  0.4682
13602TIP3    H162221   3.120   6.649  14.515 -0.0029  0.5695  0.9200
13602TIP3    H262222   3.043   6.647  14.384  0.4440  0.0622  0.6669
13603TIP3   OH262223   3.067   4.840   1.179  0.0796 -0.0152 -0.0614
13603TIP3    H162224   2.993   4.896   1.201 -0.5745 -1.2444  0.9431
13603TIP3    H262225   3.075   4.846   1.084 -0.7758  0.7754 -0.0847
13604TIP3   OH262226   6.339   6.289  13.732  0.4286 -0.6715 -0.4442
13604TIP3    H162227   6.379   6.203  13.739 -1.5034 -1.4718  1.3546
13604TIP3    H262228   6.325   6.317  13.822  2.1562  2.1052 -0.9658
13605TIP3   OH262229   5.528   5.679  13.019  0.2115  1.0297 -0.2291
13605TIP3    H162230   5.540   5.751  12.957 -0.0432 -0.5948 -2.2326
13605TIP3    H262231   5.433   5.671  13.027  0.2456  1.4532  0.6633
13606TIP3   OH262232   2.059   5.353  13.283  0.4284  0.8100  0.7652
13606TIP3    H162233   2.030   5.279  13.229  1.5312 -0.5675  2.0260
13606TIP3    H262234   1.978   5.385  13.322  0.1275 -0.8159  1.5354
13607TIP3   OH262235   5.245   3.578  13.235 -0.1789  0.3021 -0.3957
13607TIP3    H162236   5.340   3.590  13.232 -0.0004 -1.1699 -0.9911
13607TIP3    H262237   5.220   3.603  13.324  0.5650  1.9992 -0.6353
13608TIP3   OH262238   1.205   0.762   0.392  0.2915 -0.3133  0.0957
13608TIP3    H162239   1.205   0.667   0.380  1.6083 -0.2362 -0.5747
13608TIP3    H262240   1.201   0.775   0.486 -0.3792 -1.0275  0.1716
13609TIP3   OH262241   4.040   1.843  13.984  0.8351  0.1286 -0.6286
13609TIP3    H162242   4.047   1.937  13.967  1.2180 -0.2169 -2.4408
13609TIP3    H262243   4.127   1.817  14.013  1.1838  0.0051 -1.7900
13610TIP3   OH262244   5.783   1.583   4.291 -0.0090 -0.8009 -0.4663
13610TIP3    H162245   5.867   1.542   4.313 -0.0554  1.2388  4.0613
13610TIP3    H262246   5.802   1.677   4.290 -1.8658 -0.4241 -1.1025
13611TIP3   OH262247   3.023   3.305  14.187  0.4009 -0.5668 -0.1458
13611TIP3    H162248   3.013   3.356  14.106  1.1182  0.3899  0.3746
13611TIP3    H262249   2.961   3.232  14.176 -1.1245  0.7585 -0.6100
13612TIP3   OH262250   1.484   5.100   3.847  0.0299  0.0762 -0.0551
13612TIP3    H162251   1.577   5.124   3.851  0.4462 -1.1261 -1.7974
13612TIP3    H262252   1.476   5.049   3.766 -2.4140  1.2016 -0.5606
13613TIP3   OH262253   2.232   3.166   0.069 -0.0650  0.9062  0.1684
13613TIP3    H162254   2.292   3.234   0.099  0.4059  1.2288 -1.4225
13613TIP3    H262255   2.288   3.089   0.054 -0.6808 -0.0466  2.5144
13614TIP3   OH262256   3.562   3.652   1.775 -0.3045  0.0681  0.0463
13614TIP3    H162257   3.624   3.634   1.846  1.7915  0.1921 -1.7191
13614TIP3    H262258   3.545   3.746   1.781 -0.4275  0.0121  0.6125
13615TIP3   OH262259   6.298   4.056   1.485  0.0439 -0.2487  0.3795
13615TIP3    H162260   6.381   4.042   1.438 -1.5545  0.7328 -2.9416
13615TIP3    H262261   6.303   4.147   1.515  0.7776 -0.6625  1.5498
13616TIP3   OH262262   0.409   5.568  12.910  0.5772  0.3095  0.4813
13616TIP3    H162263   0.328   5.591  12.864  0.5639 -1.7257 -0.5723
13616TIP3    H262264   0.443   5.651  12.941 -2.2999  1.1464  1.5752
13617TIP3   OH262265   5.715   2.831   5.006  0.4500  0.6275  0.5159
13617TIP3    H162266   5.653   2.768   5.044 -1.8355  0.7013 -2.8044
13617TIP3    H262267   5.672   2.916   5.015 -0.5260  0.5594 -2.7362
13618TIP3   OH262268   1.121   2.958  14.259 -0.8971  0.1888  0.1029
13618TIP3    H162269   1.043   2.961  14.203 -0.9387  0.0782  0.1551
13618TIP3    H262270   1.129   3.046  14.295 -1.4505 -0.0103  0.7208
13619TIP3   OH262271   2.488   5.710   1.120  0.3095  0.2473  0.4931
13619TIP3    H162272   2.419   5.665   1.168  0.1646  1.1127  1.1215
13619TIP3    H262273   2.451   5.796   1.099  1.7107  1.3283  2.2407
13620TIP3   OH262274   6.053   1.579   4.380 -0.6972 -0.3759  0.2111
13620TIP3    H162275   6.130   1.587   4.324 -0.0277 -1.7831  0.8931
13620TIP3    H262276   6.065   1.647   4.446  0.4293 -1.1505  0.8294
13621TIP3   OH262277   1.582   1.497   1.467  0.0771  0.4720  0.3410
13621TIP3    H162278   1.604   1.467   1.379  0.4412 -0.2028  0.6542
13621TIP3    H262279   1.498   1.542   1.457  0.4003  0.9010 -0.4428
13622TIP3   OH262280   0.148   4.135  11.560  0.1824  0.2317 -0.0021
13622TIP3    H162281   0.084   4.078  11.519 -0.3252  0.6686  0.1782
13622TIP3    H262282   0.136   4.220  11.517  2.2678 -0.2835 -1.6689
13623TIP3   OH262283   5.840   2.633  15.341 -0.4708 -0.1611 -0.7013
13623TIP3    H162284   5.762   2.579  15.331 -2.2581  2.4883 -1.5909
13623TIP3    H262285   5.835   2.695  15.269  0.7372  2.1327  1.1277
13624TIP3   OH262286   4.092   0.743  13.633 -0.2546 -0.2473  0.1012
13624TIP3    H162287   4.006   0.782  13.647  1.5641  3.2452  2.1289
13624TIP3    H262288   4.110   0.697  13.715 -0.3030 -1.2950 -0.4642
13625TIP3   OH262289   3.124   4.523   4.776  0.5128  0.1136  0.2635
13625TIP3    H162290   3.211   4.489   4.756  1.1669  2.1191 -0.3908
13625TIP3    H262291   3.132   4.617   4.765 -1.7779  0.3084  0.0738
13626TIP3   OH262292   3.170   1.263  10.636 -0.6233 -0.4409 -0.4976
13626TIP3    H162293   3.215   1.229  10.713 -0.6057  0.1207 -0.2564
13626TIP3    H262294   3.112   1.192  10.608 -0.3229 -0.7996 -0.2177
13627TIP3   OH262295   6.128   6.696   0.940 -0.2062  0.0641 -0.3464
13627TIP3    H162296   6.061   6.698   1.008  0.1327 -0.2957  0.0007
13627TIP3    H262297   6.102   6.624   0.882 -1.0533  1.0212 -1.1820
13628TIP3   OH262298   0.402   4.602   4.986 -0.0008  0.8291  0.1630
13628TIP3    H162299   0.422   4.532   4.923  2.8371  1.0072  0.7931
13628TIP3    H262300   0.405   4.558   5.071 -1.0213  1.1672  0.3761
13629TIP3   OH262301   0.913   4.496   4.341 -0.3089  0.3512  0.0027
13629TIP3    H162302   0.861   4.485   4.421 -1.4682 -1.0618 -0.9117
13629TIP3    H262303   0.980   4.428   4.346 -0.3260  0.3204 -0.1827
13630TIP3   OH262304   2.342   1.987  11.562 -0.2833  0.0673 -0.1559
13630TIP3    H162305   2.264   2.043  11.560 -1.8710 -2.0573 -0.4185
13630TIP3    H262306   2.343   1.951  11.651  1.0390  0.9269  0.1853
13631TIP3   OH262307   0.866   6.098  13.667  0.2938 -0.0075 -0.1902
13631TIP3    H162308   0.773   6.104  13.643  0.0380 -0.3673  0.6608
13631TIP3    H262309   0.903   6.183  13.644 -0.0736 -0.1403 -1.2765
13632TIP3   OH262310   4.926   3.612   5.181 -0.8840 -0.2102 -0.3205
13632TIP3    H162311   4.992   3.543   5.173 -0.5921  0.0411 -0.0224
13632TIP3    H262312   4.876   3.588   5.259 -0.4143  0.2383  0.1171
13633TIP3   OH262313   4.175   6.623   5.541  0.0574 -0.0233  0.4606
13633TIP3    H162314   4.218   6.565   5.604  0.5661 -3.3851 -2.7957
13633TIP3    H262315   4.088   6.584   5.528 -0.2807  0.9945 -0.4583
13634TIP3   OH262316   6.778   6.539   2.961  0.3458 -0.3927  0.0699
13634TIP3    H162317   6.839   6.498   3.023  1.1670 -0.7583 -0.9679
13634TIP3    H262318   6.798   6.498   2.877  1.0091  1.9325 -0.9606
13635TIP3   OH262319   6.647   3.906   4.259  0.4703  0.3975  0.0281
13635TIP3    H162320   6.706   3.942   4.192 -0.6067 -0.1403 -1.2236
13635TIP3    H262321   6.700   3.906   4.339  2.5203 -0.9608 -1.2562
13636TIP3   OH262322   3.890   3.875  13.549 -0.4649  0.0786 -0.3119
13636TIP3    H162323   3.822   3.924  13.596  2.0308  1.4543  2.0333
13636TIP3    H262324   3.953   3.942  13.522  0.6154 -1.3022 -1.2879
13637TIP3   OH262325   3.921   5.205   3.895  0.5675  0.4555  0.3086
13637TIP3    H162326   3.858   5.159   3.840 -0.6312  1.1995  1.0239
13637TIP3    H262327   3.970   5.136   3.939 -0.3487 -0.1525  0.3973
13638TIP3   OH262328   6.616   6.180   5.833 -0.4536  0.2299  0.3773
13638TIP3    H162329   6.562   6.134   5.769 -1.7549  1.9682  0.2025
13638TIP3    H262330   6.581   6.269   5.835 -0.9776  0.0152  4.0776
13639TIP3   OH262331   1.982   1.422  12.329 -0.0074 -0.6590  0.0767
13639TIP3    H162332   1.913   1.444  12.392 -0.4981  2.4369 -1.4651
13639TIP3    H262333   1.935   1.410  12.246  1.0686 -0.5190 -0.5566
13640TIP3   OH262334   4.351   3.301  15.082  0.4829  0.3263  0.1855
13640TIP3    H162335   4.342   3.277  15.175 -0.5079  2.2853  0.6210
13640TIP3    H262336   4.425   3.361  15.080  1.3566 -0.7585 -0.5170
13641TIP3   OH262337   4.185   4.589  12.374 -0.6675 -0.6605 -0.1329
13641TIP3    H162338   4.188   4.522  12.305 -0.7489  0.1595 -0.9364
13641TIP3    H262339   4.145   4.665  12.332  0.4737  0.2811  0.4586
13642TIP3   OH262340   0.332   3.428  12.109  0.1010 -0.5633 -0.7331
13642TIP3    H162341   0.385   3.450  12.032  1.1335 -1.3041 -0.2463
13642TIP3    H262342   0.354   3.496  12.174 -1.4578  0.5983 -1.3829
13643TIP3   OH262343   5.256   1.578   5.728 -0.0318  0.0537  0.0427
13643TIP3    H162344   5.286   1.576   5.819  1.0975 -0.8411 -0.3249
13643TIP3    H262345   5.161   1.579   5.733  0.0482  1.5081  1.2499
13644TIP3   OH262346   2.938   1.976   3.788 -0.5622  0.1131  0.6157
13644TIP3    H162347   2.847   2.007   3.790 -0.1012  1.5355 -0.2499
13644TIP3    H262348   2.947   1.938   3.700  0.2307  1.6700  0.0144
13645TIP3   OH262349   3.184   4.261   2.251  0.5936  0.5035  0.3254
13645TIP3    H162350   3.228   4.210   2.183  1.2873  0.6094  0.6914
13645TIP3    H262351   3.096   4.224   2.256  0.9263 -0.3101  0.2175
13646TIP3   OH262352   1.193   2.388  13.878 -0.1929 -0.3590 -0.3280
13646TIP3    H162353   1.251   2.353  13.810 -0.6048  0.9904 -1.3850
13646TIP3    H262354   1.229   2.474  13.898 -0.5879 -0.3996  0.5591
13647TIP3   OH262355   0.119   0.413   2.271 -0.3910  0.4968  0.0794
13647TIP3    H162356   0.161   0.474   2.211  0.4120  1.3967  1.5408
13647TIP3    H262357   0.190   0.384   2.329 -1.2604  0.0111  0.9047
13648TIP3   OH262358   1.032   4.562  14.286  0.5760  0.7156 -0.1376
13648TIP3    H162359   0.937   4.570  14.277  0.3947 -1.7533 -0.8398
13648TIP3    H262360   1.044   4.498  14.357  1.6866  0.0541 -0.9089
13649TIP3   OH262361   3.015   2.219   4.540 -0.3180  0.2799 -0.1677
13649TIP3    H162362   3.099   2.236   4.584 -1.5277  2.8458  1.2596
13649TIP3    H262363   2.960   2.293   4.564 -2.3285 -0.2478 -2.8665
13650TIP3   OH262364   5.456   5.814   0.058  0.4747  0.3980 -0.7275
13650TIP3    H162365   5.370   5.778   0.080  0.1781  1.8673  0.5370
13650TIP3    H262366   5.517   5.765   0.113  0.1272  1.4192  0.5900
13651TIP3   OH262367   5.063   5.502   1.711  0.4784  0.1589 -0.3379
13651TIP3    H162368   5.010   5.466   1.781  1.6675 -0.9730  0.0099
13651TIP3    H262369   5.031   5.458   1.632 -0.0716  0.5534 -0.3328
13652TIP3   OH262370   2.374   4.139   5.016 -0.3592  0.0733 -0.8350
13652TIP3    H162371   2.387   4.181   5.101  1.4388 -0.2525 -0.9403
13652TIP3    H262372   2.328   4.057   5.036 -2.1117  1.1266 -0.4378
13653TIP3   OH262373   0.730   4.149  11.786 -0.6149  0.0675 -0.9881
13653TIP3    H162374   0.671   4.091  11.834  1.5643 -1.9397 -0.6500
13653TIP3    H262375   0.693   4.236  11.798 -1.5329 -0.6896  2.2446
13654TIP3   OH262376   3.865   0.462   6.205 -0.0372  0.3681 -0.2322
13654TIP3    H162377   3.903   0.383   6.244 -3.3384 -1.8628 -1.2757
13654TIP3    H262378   3.791   0.483   6.262 -2.4275 -0.5006 -2.9478
13655TIP3   OH262379   5.769   1.772  16.399 -0.1769 -0.7029 -0.1356
13655TIP3    H162380   5.807   1.853  16.432 -0.6563  0.9286 -3.3803
13655TIP3    H262381   5.841   1.709  16.404  1.1444  0.7449 -0.4788
13656TIP3   OH262382   5.432   3.949   2.804 -0.3158  0.0337  0.2675
13656TIP3    H162383   5.416   3.937   2.898  2.2106 -1.6924  0.5357
13656TIP3    H262384   5.412   3.864   2.765 -0.1977  0.3925 -0.5830
13657TIP3   OH262385   6.348   5.177   4.937  0.1595 -0.3431 -0.1382
13657TIP3    H162386   6.301   5.138   5.010  0.6350  0.0380  0.3671
13657TIP3    H262387   6.440   5.177   4.964  0.0126  2.6306  0.5737
13658TIP3   OH262388   2.893   5.723  14.857 -0.1967  0.7742 -0.5192
13658TIP3    H162389   2.924   5.754  14.942  0.2947  0.6873 -0.6668
13658TIP3    H262390   2.838   5.647  14.878 -0.5076  1.0689 -0.2399
13659TIP3   OH262391   3.698   3.040  15.600 -0.0616 -0.3298  0.3651
13659TIP3    H162392   3.704   2.959  15.650 -0.8993  0.6654  2.1396
13659TIP3    H262393   3.624   3.027  15.542 -0.6263 -0.5771  1.1362
13660TIP3   OH262394   3.981   0.570   2.198  0.0835 -0.1428  0.0007
13660TIP3    H162395   3.950   0.577   2.289  0.6343  0.0858  0.1690
13660TIP3    H262396   4.052   0.506   2.202 -1.2197 -1.6672 -0.6080
13661TIP3   OH262397   5.485   6.262   2.799  0.1250  0.1990  0.1094
13661TIP3    H162398   5.547   6.237   2.730 -1.2431 -2.2608 -0.2956
13661TIP3    H262399   5.414   6.306   2.754 -0.0080  0.0092  0.1292
13662TIP3   OH262400   6.206   6.353  15.849 -0.0471  0.3644  0.2727
13662TIP3    H162401   6.276   6.353  15.784 -0.8195  0.2842 -0.5692
13662TIP3    H262402   6.194   6.446  15.871  0.2704  0.3835  0.3654
13663TIP3   OH262403   2.555   2.068   5.170  0.4183  0.3682  0.1173
13663TIP3    H162404   2.605   2.035   5.096 -0.2918  1.3311 -0.8125
13663TIP3    H262405   2.540   1.992   5.225  1.8998 -0.1433 -0.1788
13664TIP3   OH262406   3.528   4.222   3.996  0.4356 -0.0633 -0.0876
13664TIP3    H162407   3.590   4.149   3.990 -1.7577 -1.9117 -0.8550
13664TIP3    H262408   3.524   4.256   3.906  1.8291  1.3921  0.3608
13665TIP3   OH262409   3.255   6.043   4.422  0.0601  0.3835 -0.2791
13665TIP3    H162410   3.342   6.081   4.436  1.1271 -2.6539  1.7852
13665TIP3    H262411   3.220   6.029   4.510 -1.9746  0.3010 -1.0632
13666TIP3   OH262412   1.032   4.277   1.128 -0.0185  0.2671  0.2731
13666TIP3    H162413   1.033   4.319   1.214 -0.9160  2.6537 -0.8389
13666TIP3    H262414   0.940   4.275   1.102  0.0436 -2.0720  0.1084
13667TIP3   OH262415   5.757   3.995  14.667 -0.4215 -0.0602  0.0671
13667TIP3    H162416   5.834   4.046  14.644 -0.8567  1.0108  0.9594
13667TIP3    H262417   5.769   3.911  14.622  0.5945  0.5949 -0.9028
13668TIP3   OH262418   3.079   2.474   1.738 -0.0382  0.2267  0.0463
13668TIP3    H162419   3.066   2.393   1.688  0.6639 -0.4248  0.9037
13668TIP3    H262420   3.024   2.538   1.693  0.0825 -0.4990 -1.1779
13669TIP3   OH262421   3.219   2.592   2.641  0.3866  0.1629 -1.0173
13669TIP3    H162422   3.213   2.499   2.619  0.6117  0.2238 -1.3538
13669TIP3    H262423   3.136   2.612   2.684  1.1489 -0.6641  0.8736
13670TIP3   OH262424   1.502   0.763  10.638 -0.3900 -0.0709 -0.8907
13670TIP3    H162425   1.502   0.859  10.636 -1.6033 -0.0722 -0.8654
13670TIP3    H262426   1.595   0.740  10.644 -0.0178  1.0694 -2.0399
13671TIP3   OH262427   6.760   2.185   2.741  0.3782  0.0256  0.4324
13671TIP3    H162428   6.694   2.203   2.674 -0.2054 -0.9348  0.7455
13671TIP3    H262429   6.808   2.267   2.750  0.3540  0.2203 -1.0488
13672TIP3   OH262430   0.327   1.117  15.731 -0.1555 -0.1885  0.1585
13672TIP3    H162431   0.322   1.205  15.768  2.2812  1.5866 -3.4445
13672TIP3    H262432   0.267   1.119  15.656 -1.7766 -2.3466  1.3333
13673TIP3   OH262433   3.469   5.964   4.808 -0.4395 -0.1861  0.2379
13673TIP3    H162434   3.480   5.953   4.714  0.6380  1.0353  0.2073
13673TIP3    H262435   3.462   6.058   4.822 -1.5042 -0.4054  1.2943
13674TIP3   OH262436   3.610   3.626  12.771 -0.2745  0.2512 -0.3650
13674TIP3    H162437   3.574   3.584  12.849 -0.0171 -0.2455 -0.5082
13674TIP3    H262438   3.565   3.584  12.698 -2.2466  2.3728 -0.4195
13675TIP3   OH262439   1.205   4.651   3.095  0.0013  0.0661  0.1601
13675TIP3    H162440   1.183   4.702   3.016 -2.3973  0.1456  0.8468
13675TIP3    H262441   1.188   4.711   3.167  1.0619 -0.4094  0.8116
13676TIP3   OH262442   1.919   4.738  12.168  0.2060  0.2154 -0.5447
13676TIP3    H162443   1.863   4.742  12.246  1.5557  0.9705  0.3957
13676TIP3    H262444   1.892   4.813  12.115 -0.4153 -0.0496 -0.6090
13677TIP3   OH262445   1.631   5.529  16.041  0.4259  0.6197 -0.4179
13677TIP3    H162446   1.581   5.583  16.103 -0.9227  0.3301 -1.2269
13677TIP3    H262447   1.659   5.453  16.092 -2.4757 -0.6660 -0.6145
13678TIP3   OH262448   5.642   5.790  16.857 -0.2783 -0.1154  0.0408
13678TIP3    H162449   5.699   5.851  16.904 -1.1589 -0.1273  1.1394
13678TIP3    H262450   5.694   5.763  16.781  1.1805 -0.1195  1.0077
13679TIP3   OH262451   3.524   5.208  12.657 -0.1523  0.5635 -0.0383
13679TIP3    H162452   3.597   5.236  12.712  2.4524 -0.1963 -2.9219
13679TIP3    H262453   3.489   5.289  12.621 -0.9561  0.9533  1.5672
13680TIP3   OH262454   4.955   2.712  11.893 -0.2275  0.4935 -0.2918
13680TIP3    H162455   5.051   2.708  11.884 -0.3760  0.9330 -2.4397
13680TIP3    H262456   4.932   2.628  11.932  1.2409  1.3671  2.5688
13681TIP3   OH262457   0.522   5.392  16.773 -0.4744  0.0151  0.0014
13681TIP3    H162458   0.466   5.314  16.779  2.2529 -1.9424  1.0122
13681TIP3    H262459   0.573   5.378  16.693  0.3680  0.5236  0.4513
13682TIP3   OH262460   1.110   1.774  11.392 -0.1102  0.4470 -0.4682
13682TIP3    H162461   1.118   1.837  11.463  2.9322  0.0360 -0.4004
13682TIP3    H262462   1.029   1.800  11.346 -0.6749  2.3253  1.5083
13683TIP3   OH262463   1.194   1.232   1.980  0.0288  0.1988 -0.1696
13683TIP3    H162464   1.138   1.259   1.907 -0.0114  0.0608 -0.1916
13683TIP3    H262465   1.243   1.157   1.945  0.8797  0.8703 -0.4375
13684TIP3   OH262466   4.061   5.651  13.611  0.4619  0.1783  0.3844
13684TIP3    H162467   4.120   5.682  13.680  0.6345 -0.7024  0.6354
13684TIP3    H262468   4.029   5.731  13.570  1.4454  0.6761  0.5739
13685TIP3   OH262469   3.523   2.024   2.608 -0.0087 -0.0776 -0.1086
13685TIP3    H162470   3.484   2.055   2.526 -1.6748  1.0334  1.0852
13685TIP3    H262471   3.617   2.036   2.595 -0.2656  0.2810 -1.7928
13686TIP3   OH262472   2.791   5.565   0.211 -0.3561  0.3448 -0.0767
13686TIP3    H162473   2.858   5.621   0.169 -1.3762  1.8403  0.2499
13686TIP3    H262474   2.836   5.482   0.227  1.6616  1.5740  0.8189
13687TIP3   OH262475   2.527   1.309   0.935  0.1664 -0.4499  0.2936
13687TIP3    H162476   2.441   1.326   0.898 -0.3387  1.5379  2.2226
13687TIP3    H262477   2.585   1.372   0.891  0.4763 -1.2486 -0.4413
13688TIP3   OH262478   0.405   5.520  11.104 -0.0558 -0.0196  0.5201
13688TIP3    H162479   0.395   5.584  11.175  2.4102  0.8374  0.1287
13688TIP3    H262480   0.391   5.435  11.147 -0.0248  0.5749  1.7262
13689TIP3   OH262481   2.153   4.322   5.497  0.5307 -0.9527 -0.0645
13689TIP3    H162482   2.068   4.306   5.537  0.4921  1.1029  0.7203
13689TIP3    H262483   2.216   4.312   5.569  0.8926 -1.5698 -0.4533
13690TIP3   OH262484   3.372   0.422   0.601 -0.2170 -0.5228  0.1519
13690TIP3    H162485   3.306   0.357   0.576 -0.5930 -0.3869  0.7974
13690TIP3    H262486   3.322   0.503   0.615 -0.0013 -0.5973  1.3613
13691TIP3   OH262487   5.100   2.313   1.138  0.3679 -0.5074 -0.3095
13691TIP3    H162488   5.050   2.394   1.133  1.8175  0.3707 -0.8197
13691TIP3    H262489   5.102   2.291   1.231  0.5773  0.4232 -0.0968
13692TIP3   OH262490   2.800   5.691  16.743  0.7646  0.0741 -0.4230
13692TIP3    H162491   2.888   5.730  16.745  0.7949  0.0381 -0.9242
13692TIP3    H262492   2.758   5.722  16.823  0.7989  1.1177 -0.8019
13693TIP3   OH262493   0.814   1.011  16.781 -0.6018 -0.2341 -0.1239
13693TIP3    H162494   0.849   1.060  16.707 -1.5177  1.7590  0.7007
13693TIP3    H262495   0.740   0.962  16.745 -0.6600  0.2347 -0.6480
13694TIP3   OH262496   1.096   0.778  12.960 -0.1662  0.2271  0.0797
13694TIP3    H162497   1.111   0.726  13.039 -2.2614 -0.5783 -0.0285
13694TIP3    H262498   1.142   0.861  12.977 -2.1573  0.8039  2.9536
13695TIP3   OH262499   5.764   4.290  11.509  0.3446 -0.1252 -0.2656
13695TIP3    H162500   5.769   4.382  11.535  4.3542 -0.4502  0.3987
13695TIP3    H262501   5.717   4.248  11.581  2.8544  0.6258  1.9153
13696TIP3   OH262502   3.878   3.483  11.715  0.8310 -0.3057  0.2363
13696TIP3    H162503   3.960   3.507  11.671  0.8010  0.8130  0.7664
13696TIP3    H262504   3.813   3.486  11.645  0.4864  3.0990  0.5743
13697TIP3   OH262505   3.504   1.736   2.577  0.2411 -0.3886 -0.4263
13697TIP3    H162506   3.492   1.820   2.622 -1.5132 -0.0365 -1.5186
13697TIP3    H262507   3.573   1.754   2.513  0.0001  0.1648 -0.5356
13698TIP3   OH262508   5.234   3.748  11.312 -0.3719  1.0801 -0.9212
13698TIP3    H162509   5.184   3.734  11.393 -0.2143  1.4372 -0.7609
13698TIP3    H262510   5.233   3.663  11.268 -1.7363  1.2765 -1.2680
13699TIP3   OH262511   3.656   6.568   5.757 -0.3799  0.4427  0.1754
13699TIP3    H162512   3.662   6.495   5.818  1.6471  1.0453  0.7257
13699TIP3    H262513   3.702   6.538   5.679  0.6623  1.2000  0.4882
13700TIP3   OH262514   3.618   1.677  15.234  0.1178 -0.4592  0.4235
13700TIP3    H162515   3.600   1.603  15.291 -0.8919 -0.3291  0.3026
13700TIP3    H262516   3.583   1.753  15.282 -0.0831 -0.2557 -0.0388
13701TIP3   OH262517   0.833   5.793  13.767 -0.4690  0.5681  0.7546
13701TIP3    H162518   0.824   5.789  13.672  0.4994  1.5552  0.6086
13701TIP3    H262519   0.927   5.784  13.782 -0.7218 -0.7075  1.6941
13702TIP3   OH262520   6.179   3.604   4.770 -0.1862 -0.2036  0.1438
13702TIP3    H162521   6.229   3.544   4.715 -2.0677 -0.7642 -0.9857
13702TIP3    H262522   6.223   3.601   4.855  0.9390 -1.6258 -0.4732
13703TIP3   OH262523   5.283   1.863  10.899  0.2649 -0.5115  0.4961
13703TIP3    H162524   5.308   1.857  10.807 -0.1731  1.4625  0.2157
13703TIP3    H262525   5.241   1.949  10.907  3.3719  0.8607  3.2659
13704TIP3   OH262526   6.399   6.448  12.549 -0.1576 -0.0944  0.1058
13704TIP3    H162527   6.451   6.470  12.472  0.3900  0.2945  0.5778
13704TIP3    H262528   6.336   6.520  12.557  0.4089  0.3557  0.5672
13705TIP3   OH262529   4.235   2.006   5.454 -0.1139 -0.1898  0.4129
13705TIP3    H162530   4.204   2.065   5.523 -0.6439  0.2079 -0.1592
13705TIP3    H262531   4.322   2.037   5.433 -0.3332  0.2984  0.2164
13706TIP3   OH262532   0.162   3.412   2.275  0.2441  0.2230  0.8720
13706TIP3    H162533   0.203   3.382   2.194  1.3433 -1.6326  2.0821
13706TIP3    H262534   0.222   3.479   2.308  0.6947 -0.2516  1.0254
13707TIP3   OH262535   0.352   4.152  16.917 -0.2142 -0.2735 -0.0004
13707TIP3    H162536   0.414   4.087  16.883  0.5778 -0.0333  0.9502
13707TIP3    H262537   0.393   4.236  16.898 -1.2375 -0.0377 -1.2213
13708TIP3   OH262538   1.522   6.029  14.289  0.0148 -0.4420  0.5456
13708TIP3    H162539   1.454   6.096  14.292 -0.3381 -0.8361  1.4058
13708TIP3    H262540   1.492   5.967  14.222 -0.8629 -1.0350  1.4808
13709TIP3   OH262541   4.813   2.366   1.530 -0.0602  0.2226  0.2653
13709TIP3    H162542   4.848   2.308   1.597  2.8636  0.4397 -1.0165
13709TIP3    H262543   4.797   2.308   1.455 -0.7447  0.4361  0.2433
13710TIP3   OH262544   4.704   3.231  15.845 -0.2128 -0.3732 -0.4086
13710TIP3    H162545   4.775   3.199  15.788  0.1193 -0.0405 -0.1797
13710TIP3    H262546   4.705   3.171  15.919 -1.5697 -1.6798 -1.4099
13711TIP3   OH262547   5.493   4.016   1.269 -0.1334  0.4079 -0.5086
13711TIP3    H162548   5.467   4.031   1.178 -0.4672  1.9669 -0.1721
13711TIP3    H262549   5.449   4.085   1.318  1.2375  0.4915  0.6367
13712TIP3   OH262550   4.977   1.552   5.172  0.2053  0.0677  0.1436
13712TIP3    H162551   5.068   1.573   5.149 -0.3639  1.2679 -1.0996
13712TIP3    H262552   4.983   1.473   5.226  1.8684 -0.6812 -1.1089
13713TIP3   OH262553   6.037   4.165   2.977  0.1137  0.0236  0.3721
13713TIP3    H162554   6.092   4.231   2.934 -2.9815  0.4009 -3.3653
13713TIP3    H262555   6.018   4.101   2.908 -0.9618 -2.1397  2.6007
13714TIP3   OH262556   6.628   5.993   1.066 -0.5628 -0.2134 -0.0803
13714TIP3    H162557   6.558   5.973   1.129  0.4868  1.4013  1.6358
13714TIP3    H262558   6.652   6.083   1.085  2.0374 -0.7701 -0.6312
13715TIP3   OH262559   5.499   3.757  12.233  0.3426 -0.2377  0.2635
13715TIP3    H162560   5.456   3.823  12.179  0.8595  1.2871  1.6811
13715TIP3    H262561   5.432   3.729  12.296  0.4274 -0.3094  0.3232
13716TIP3   OH262562   2.789   4.157  15.931 -0.2012  0.2279  0.1365
13716TIP3    H162563   2.759   4.121  16.015 -0.0816 -0.3220 -0.0570
13716TIP3    H262564   2.793   4.081  15.872 -0.0724  0.5781 -0.3055
13717TIP3   OH262565   4.871   3.373  16.533 -0.1981  0.2949  0.5774
13717TIP3    H162566   4.856   3.467  16.542 -1.2496  0.0741  1.2560
13717TIP3    H262567   4.928   3.351  16.607  0.4901  0.4933  0.1049
13718TIP3   OH262568   6.693   3.227   5.649 -0.1306 -0.1043 -0.0244
13718TIP3    H162569   6.629   3.173   5.696  0.3756 -0.0857  0.6987
13718TIP3    H262570   6.749   3.263   5.718  0.4342  0.1685 -0.6203
13719TIP3   OH262571   3.456   5.317  12.207  0.0398  0.4495 -0.0447
13719TIP3    H162572   3.525   5.336  12.271 -1.5867  0.9446  1.5999
13719TIP3    H262573   3.400   5.254  12.251 -0.3054 -0.3353 -1.5726
13720TIP3   OH262574   5.873   1.278  16.772 -0.5408 -0.1980  0.2367
13720TIP3    H162575   5.950   1.324  16.805 -0.4901  1.1099 -1.5909
13720TIP3    H262576   5.909   1.205  16.721 -0.4122  1.5032 -2.1831
13721TIP3   OH262577   2.368   3.932  14.822  0.1619  0.0316 -0.8000
13721TIP3    H162578   2.353   3.952  14.730 -0.3177 -0.2779 -0.7913
13721TIP3    H262579   2.316   3.996  14.870 -0.6423 -0.6414 -0.7604
13722TIP3   OH262580   2.574   2.420   2.638  0.0894 -0.6129 -0.0325
13722TIP3    H162581   2.641   2.488   2.635 -1.0476  0.5798  1.0244
13722TIP3    H262582   2.558   2.398   2.546  0.1186  0.9023 -0.4168
13723TIP3   OH262583   2.513   0.023   5.707  0.0863 -0.1047  0.2372
13723TIP3    H162584   2.486  -0.010   5.792 -0.7261 -1.3888 -0.4973
13723TIP3    H262585   2.505   0.118   5.714 -0.7643 -0.2495  1.3098
13724TIP3   OH262586   5.768   4.418  15.480  0.7270 -0.5462  0.1262
13724TIP3    H162587   5.733   4.504  15.506  0.1857 -0.9272  0.6656
13724TIP3    H262588   5.863   4.428  15.484  0.6618 -0.1163  0.6711
13725TIP3   OH262589   3.617   5.945   0.142 -0.3470 -0.2750  0.2849
13725TIP3    H162590   3.535   5.906   0.171 -0.9913  1.3340  0.6621
13725TIP3    H262591   3.656   5.981   0.222 -0.2158  0.6672 -0.1928
13726TIP3   OH262592   4.504   2.644   2.642  0.0156 -0.1862  0.0716
13726TIP3    H162593   4.538   2.734   2.645  3.3658 -1.2916 -2.2954
13726TIP3    H262594   4.470   2.635   2.553  0.7726 -1.6560 -0.0711
13727TIP3   OH262595   4.489   2.315   2.372 -0.1424 -0.6844  0.3246
13727TIP3    H162596   4.543   2.300   2.294  0.9111 -0.3188  0.9812
13727TIP3    H262597   4.472   2.409   2.372  0.7516 -0.5154  1.1103
13728TIP3   OH262598   5.765   0.585   0.810  0.2789  0.5534  0.2268
13728TIP3    H162599   5.701   0.584   0.739 -0.0435 -4.7875  0.4052
13728TIP3    H262600   5.712   0.582   0.890  0.7212 -0.6126  0.4773
13729TIP3   OH262601   0.501   0.040  14.812 -0.5742  0.1144  0.3179
13729TIP3    H162602   0.405   0.041  14.824 -0.4714 -2.5603  1.8567
13729TIP3    H262603   0.532   0.111  14.868 -1.6531  1.0091 -0.1921
13730TIP3   OH262604   4.973   1.972  16.271  0.1546 -0.2590 -0.5796
13730TIP3    H162605   4.895   2.022  16.245  0.1864 -0.0649 -0.3037
13730TIP3    H262606   5.001   1.928  16.191 -1.3933 -1.8853 -0.2732
13731TIP3   OH262607   6.333   3.946  16.078 -0.2073  0.2018 -0.5477
13731TIP3    H162608   6.372   4.011  16.136  1.4030  0.0026 -1.3949
13731TIP3    H262609   6.327   3.867  16.132  2.4702 -0.3477 -1.0087
13732TIP3   OH262610   1.460   1.331   1.190 -0.0997  0.5716  0.0810
13732TIP3    H162611   1.493   1.421   1.187  0.9740  0.1596 -1.9369
13732TIP3    H262612   1.537   1.279   1.214 -0.1324 -0.0390 -1.1174
13733TIP3   OH262613   3.038   1.547   4.817 -0.1419  0.6871 -0.1573
13733TIP3    H162614   3.033   1.469   4.872  1.6049  0.3122 -0.4806
13733TIP3    H262615   2.975   1.531   4.747  1.2411 -1.1420 -1.0436
13734TIP3   OH262616   0.154   6.152   5.588  0.1474  0.0520  0.1770
13734TIP3    H162617   0.117   6.104   5.662 -0.5360 -1.3178 -1.0201
13734TIP3    H262618   0.193   6.230   5.627 -1.2119 -0.0737  1.8393
13735TIP3   OH262619   0.166   4.847  15.074  0.0492  0.3157  0.0136
13735TIP3    H162620   0.248   4.803  15.095 -0.4228 -0.8387 -0.5100
13735TIP3    H262621   0.192   4.932  15.037  0.9538  0.7595  1.6216
13736TIP3   OH262622   6.656   4.256  12.466 -0.0637  0.0579  0.0725
13736TIP3    H162623   6.587   4.318  12.486  0.6751  2.0387 -3.3054
13736TIP3    H262624   6.731   4.286  12.518 -0.6867 -0.0919  1.0818
13737TIP3   OH262625   4.321   0.925  14.849  0.1283  0.2093  0.3895
13737TIP3    H162626   4.308   0.832  14.868  1.1737 -0.1622 -0.6779
13737TIP3    H262627   4.281   0.937  14.763  1.7670  0.3006 -0.3766
13738TIP3   OH262628   4.080   3.790  15.414 -0.0683  0.0257 -0.3557
13738TIP3    H162629   4.070   3.790  15.509 -1.3770  0.5232 -0.4820
13738TIP3    H262630   4.151   3.852  15.397 -0.3482  0.5245  0.2539
13739TIP3   OH262631   4.515   2.356  13.882 -0.1633 -0.9987  0.0233
13739TIP3    H162632   4.458   2.374  13.807  1.1344 -0.0757 -0.7621
13739TIP3    H262633   4.514   2.437  13.933  2.0174 -0.2305 -1.0716
13740TIP3   OH262634   3.621   5.130   1.782  0.6050 -0.2091  0.3207
13740TIP3    H162635   3.683   5.203   1.778  1.6746 -1.1349 -0.2603
13740TIP3    H262636   3.611   5.111   1.875  2.6982 -1.3137  0.3371
13741TIP3   OH262637   1.486   3.503   2.265  0.2685 -0.8802 -0.1169
13741TIP3    H162638   1.428   3.429   2.243  1.0129 -1.3545 -0.5057
13741TIP3    H262639   1.461   3.526   2.355  0.2170 -1.7904  0.1140
13742TIP3   OH262640   3.616   1.482  16.261  0.0926 -0.4656 -0.1570
13742TIP3    H162641   3.586   1.404  16.214  0.0259 -0.1859 -0.5864
13742TIP3    H262642   3.681   1.522  16.203  2.5585 -1.9801  1.4956
13743TIP3   OH262643   3.656   6.210  17.096  0.2030  0.5632 -0.2612
13743TIP3    H162644   3.704   6.161  17.164  1.4555  0.4693 -1.1995
13743TIP3    H262645   3.575   6.160  17.084  0.6362 -0.2507  0.1221
13744TIP3   OH262646   2.657   2.782   4.206 -0.0017 -0.2166  0.1095
13744TIP3    H162647   2.611   2.847   4.259  1.1114  1.3840 -0.8398
13744TIP3    H262648   2.630   2.800   4.116 -1.4829 -2.5918  0.0550
13745TIP3   OH262649   1.020   5.326   2.711 -0.2544 -0.0671  0.5930
13745TIP3    H162650   1.071   5.356   2.786  1.3730 -1.3228  0.0302
13745TIP3    H262651   0.978   5.405   2.676  0.3165  0.7854  1.8123
13746TIP3   OH262652   2.440   4.627  14.047  1.2272  0.1722 -0.3340
13746TIP3    H162653   2.372   4.664  14.103  0.5858  0.3873 -1.2427
13746TIP3    H262654   2.476   4.554  14.098  0.1040 -0.1411  0.0270
13747TIP3   OH262655   3.791   2.617  13.392 -0.2789 -0.4247 -0.1398
13747TIP3    H162656   3.749   2.534  13.368  0.8024 -0.7153 -1.0570
13747TIP3    H262657   3.847   2.638  13.317  1.3589 -0.1421  1.1464
13748TIP3   OH262658   5.562   1.837   1.127  0.2148  0.0739 -0.0717
13748TIP3    H162659   5.557   1.749   1.090 -1.2173  0.2538 -0.3122
13748TIP3    H262660   5.519   1.829   1.213 -0.4553  0.6798 -0.3560
13749TIP3   OH262661   3.420   4.941   1.249 -0.1059 -0.0302 -0.4998
13749TIP3    H162662   3.389   5.031   1.258 -1.1907 -0.4689  0.2358
13749TIP3    H262663   3.392   4.913   1.162  1.7993  0.9267 -1.4536
13750TIP3   OH262664   5.245   2.600  15.405 -0.3367  0.7851 -0.0632
13750TIP3    H162665   5.226   2.598  15.311 -0.0181 -1.5395 -0.1074
13750TIP3    H262666   5.248   2.508  15.431 -0.0217  1.3880  2.1550
13751TIP3   OH262667   0.931   6.765  12.476 -0.0711  0.0360  0.2715
13751TIP3    H162668   0.991   6.769  12.401 -1.4732 -1.0113 -0.9506
13751TIP3    H262669   0.861   6.828  12.453  1.0418  2.0168  2.1540
13752TIP3   OH262670   3.291   3.580   4.891  0.1868  0.4767 -0.1909
13752TIP3    H162671   3.295   3.523   4.968 -0.4087  0.7631  0.0585
13752TIP3    H262672   3.264   3.522   4.820 -2.7027  0.8724  0.5319
13753TIP3   OH262673   1.285   6.597  13.968  0.0872 -0.0225  0.2205
13753TIP3    H162674   1.345   6.613  14.041 -1.6008  0.2068  1.5665
13753TIP3    H262675   1.338   6.616  13.890  1.9169 -0.2986  1.3535
13754TIP3   OH262676   2.863   6.198   1.717  0.6172 -0.4860  0.3876
13754TIP3    H162677   2.894   6.132   1.655 -0.1126 -0.2837 -0.1902
13754TIP3    H262678   2.907   6.175   1.799  2.8812  0.2154 -0.5759
13755TIP3   OH262679   2.564   6.260  11.525  0.1793  0.6304  0.4403
13755TIP3    H162680   2.473   6.279  11.502 -1.1619 -3.1572  2.0403
13755TIP3    H262681   2.566   6.266  11.621  0.8755 -2.0296  0.6262
13756TIP3   OH262682   2.210   6.059  11.572  0.3260  0.0981 -0.0971
13756TIP3    H162683   2.221   6.096  11.660  1.0995  0.9942 -0.5601
13756TIP3    H262684   2.175   5.971  11.587  1.2779 -0.0805  1.1508
13757TIP3   OH262685   5.914   6.189   3.739 -0.3934 -0.3254  0.4285
13757TIP3    H162686   5.824   6.201   3.707 -0.0616  0.5171 -0.2281
13757TIP3    H262687   5.962   6.262   3.699  0.7622 -1.2821  0.0820
13758TIP3   OH262688   6.605   6.106  15.612  0.2228 -0.2723 -0.1584
13758TIP3    H162689   6.656   6.178  15.576  0.2303 -0.0088  0.3663
13758TIP3    H262690   6.625   6.031  15.556 -1.1957  0.5658 -1.8186
13759TIP3   OH262691   3.031   3.504  15.975 -0.2616 -0.2765  0.0479
13759TIP3    H162692   2.993   3.421  15.945  1.4438 -1.1047  0.0929
13759TIP3    H262693   2.959   3.566  15.971 -0.8626 -1.0573 -2.9291
13760TIP3   OH262694   0.772   0.195   5.271 -0.3136 -0.0107  0.5351
13760TIP3    H162695   0.693   0.225   5.224  0.0789 -0.2987 -0.3257
13760TIP3    H262696   0.751   0.105   5.297 -0.4153  0.0401  0.6264
13761TIP3   OH262697   1.921   0.779   2.110  0.4121 -0.3832  0.1813
13761TIP3    H162698   1.983   0.810   2.044  0.5495  0.7717  0.8415
13761TIP3    H262699   1.914   0.851   2.172 -0.4924 -1.0688  0.8893
13762TIP3   OH262700   2.649   2.848  15.712 -0.3689 -0.0355 -0.1154
13762TIP3    H162701   2.577   2.848  15.648 -0.3238 -0.3638 -0.1662
13762TIP3    H262702   2.717   2.901  15.671  0.1613 -1.3071 -0.9178
13763TIP3   OH262703   4.191   2.096  12.646 -0.5975 -0.5203  0.5389
13763TIP3    H162704   4.211   2.179  12.603  0.4794 -0.7380  0.6015
13763TIP3    H262705   4.113   2.063  12.601 -0.6292  0.1947  0.0679
13764TIP3   OH262706   0.233   0.010  13.086  0.4282 -1.0915  0.0471
13764TIP3    H162707   0.306   0.067  13.110 -1.1159  0.9150  0.0792
13764TIP3    H262708   0.198  -0.020  13.170 -0.6565  0.3743  0.1285
13765TIP3   OH262709   2.397   1.558   1.105  0.3129 -0.0174 -0.0248
13765TIP3    H162710   2.355   1.562   1.191 -0.1576 -1.2391 -0.1824
13765TIP3    H262711   2.335   1.508   1.051  1.3350 -0.6347 -0.6321
13766TIP3   OH262712   1.243   4.738  11.797 -0.8958  0.0760 -0.1303
13766TIP3    H162713   1.279   4.705  11.880 -2.1438  0.7812  0.7114
13766TIP3    H262714   1.149   4.723  11.804 -1.0129  0.1468 -1.4344
13767TIP3   OH262715   4.937   1.188   0.422  0.2312  0.2828 -0.3482
13767TIP3    H162716   5.007   1.171   0.360  0.5797 -0.3586  0.2108
13767TIP3    H262717   4.975   1.170   0.508 -0.7049 -0.4334 -0.0610
13768TIP3   OH262718   6.676   5.106  14.495 -0.5333  0.5080  0.1306
13768TIP3    H162719   6.744   5.065  14.548 -3.6831 -1.4341  2.8373
13768TIP3    H262720   6.654   5.039  14.430 -1.2755  0.3479  0.5488
13769TIP3   OH262721   4.140   5.096   3.345  0.2482  0.2956  0.2924
13769TIP3    H162722   4.215   5.042   3.322  0.4620  0.9793 -0.6410
13769TIP3    H262723   4.065   5.047   3.310  0.4766  0.7858 -0.9135
13770TIP3   OH262724   6.358   2.508  13.218 -0.3485 -0.1261  0.1953
13770TIP3    H162725   6.425   2.549  13.162 -0.7129 -1.0954 -0.9630
13770TIP3    H262726   6.347   2.570  13.290  1.3004  0.3832  0.0441
13771TIP3   OH262727   0.805   1.170   5.336 -0.1126  0.1153 -0.5872
13771TIP3    H162728   0.762   1.148   5.419  0.2903  0.8739 -0.1732
13771TIP3    H262729   0.767   1.254   5.311  0.9136  0.6651 -0.3525
13772TIP3   OH262730   1.575   0.312  12.140 -0.2758 -0.4804 -0.4864
13772TIP3    H162731   1.496   0.291  12.189  1.2477 -1.6774  1.5562
13772TIP3    H262732   1.561   0.401  12.108 -2.3499 -0.6088 -0.0118
13773TIP3   OH262733   3.798   0.055   3.617  0.2460  0.0532  0.1344
13773TIP3    H162734   3.790  -0.028   3.569  0.8777  0.4705 -0.7057
13773TIP3    H262735   3.871   0.100   3.575  0.1717  0.8613  0.8562
13774TIP3   OH262736   4.309   4.119  14.364  0.3864 -0.2995 -0.1340
13774TIP3    H162737   4.231   4.064  14.358  0.7522 -0.9524  1.0040
13774TIP3    H262738   4.277   4.208  14.347 -0.4069 -0.7035 -0.7937
13775TIP3   OH262739   2.274   3.964   2.897  0.1681 -0.0767  0.3777
13775TIP3    H162740   2.235   4.051   2.884  0.1997 -0.0382  0.5350
13775TIP3    H262741   2.351   3.980   2.951  0.0266 -0.2351  0.6278
13776TIP3   OH262742   6.007   2.054  12.409  0.5705  0.2228 -0.1568
13776TIP3    H162743   5.970   2.083  12.325 -0.5932 -2.0043 -0.4608
13776TIP3    H262744   6.097   2.030  12.389  0.4262  0.1200 -0.6915
13777TIP3   OH262745   5.709   2.506  14.269  0.5196  0.0919 -0.1457
13777TIP3    H162746   5.666   2.591  14.266 -0.6346 -0.4159  1.4429
13777TIP3    H262747   5.706   2.480  14.361 -0.9795 -2.5726 -0.8840
13778TIP3   OH262748   2.915   2.716  16.123  0.0298  0.0226 -0.5502
13778TIP3    H162749   2.918   2.740  16.030 -1.0458  1.4694 -0.2272
13778TIP3    H262750   2.914   2.620  16.123  2.4440 -0.0500 -1.9364
13779TIP3   OH262751   2.622   5.168  13.024  0.6882 -0.1784  0.7131
13779TIP3    H162752   2.619   5.216  12.942  0.4243  1.3912  1.6285
13779TIP3    H262753   2.615   5.076  12.998  0.3907  0.3135 -0.9981
13780TIP3   OH262754   6.315   3.894  14.939 -0.6179  0.2969  0.1213
13780TIP3    H162755   6.362   3.875  14.858  1.0591  2.0694  0.6269
13780TIP3    H262756   6.334   3.819  14.996  0.4887  0.3463 -0.1703
13781TIP3   OH262757   3.546   3.622  12.309 -0.3589 -0.5392 -0.3596
13781TIP3    H162758   3.593   3.578  12.238  0.4727  0.5375 -0.4823
13781TIP3    H262759   3.457   3.633  12.274  0.4712  1.5265 -1.9540
13782TIP3   OH262760   6.244   4.752  11.346  0.4103  0.7755 -0.6047
13782TIP3    H162761   6.292   4.750  11.429  0.2299 -1.0561 -0.5207
13782TIP3    H262762   6.152   4.746  11.372  0.3515  0.2337 -0.9275
13783TIP3   OH262763   3.729   3.813  15.068  0.6303 -0.0039  0.1009
13783TIP3    H162764   3.664   3.812  15.139  0.4892  2.2037  0.0377
13783TIP3    H262765   3.804   3.859  15.104  1.3106 -0.5797 -0.5613
13784TIP3   OH262766   4.690   2.405  12.737  0.5179  0.2046  0.5349
13784TIP3    H162767   4.718   2.347  12.807  1.1358  0.2034  0.2912
13784TIP3    H262768   4.722   2.362  12.657 -1.7377 -0.7413  0.0851
13785TIP3   OH262769   6.249   4.792   0.150 -0.0898 -0.1245 -0.3245
13785TIP3    H162770   6.234   4.716   0.205  1.3024 -0.7426 -0.7723
13785TIP3    H262771   6.240   4.867   0.208  0.4737 -0.7260  0.5365
13786TIP3   OH262772   2.434   4.470  16.287 -0.1549 -0.2435  0.0899
13786TIP3    H162773   2.342   4.495  16.302  0.1130 -0.3998  2.2675
13786TIP3    H262774   2.438   4.445  16.195 -2.5766 -1.3369  0.2480
13787TIP3   OH262775   2.114   1.587  12.115  0.0363  0.1278  0.1813
13787TIP3    H162776   2.073   1.516  12.163 -3.1408  1.0151 -1.0792
13787TIP3    H262777   2.190   1.547  12.073 -0.0026 -1.7867  1.8347
13788TIP3   OH262778   2.451   2.814   0.865 -0.4093  0.8772  0.0287
13788TIP3    H162779   2.373   2.761   0.881  0.4953 -1.2199 -2.1753
13788TIP3    H262780   2.434   2.856   0.780  1.2381 -0.3686 -0.9392
13789TIP3   OH262781   3.304   3.433   5.136  0.2529  0.3213 -0.0836
13789TIP3    H162782   3.358   3.465   5.208 -0.8616  2.0249  0.0080
13789TIP3    H262783   3.240   3.375   5.178  1.2998 -0.8556 -0.0671
13790TIP3   OH262784   1.091   1.592   1.112 -0.3154  0.1063 -0.0810
13790TIP3    H162785   1.093   1.578   1.017  0.7931 -0.4304  0.0124
13790TIP3    H262786   1.072   1.505   1.148 -1.5169  0.4629  0.1571
13791TIP3   OH262787   4.871   0.637   3.093  0.4160 -0.5128  0.0138
13791TIP3    H162788   4.961   0.664   3.108 -0.4218  2.1739  0.6090
13791TIP3    H262789   4.836   0.618   3.181  0.3092 -1.2446 -0.1835
13792TIP3   OH262790   2.176   2.792   1.309  0.1208 -1.0149  0.2833
13792TIP3    H162791   2.100   2.848   1.296  0.1649 -0.5125  2.1155
13792TIP3    H262792   2.158   2.745   1.391  1.7007 -1.0137  0.6532
13793TIP3   OH262793   3.688   4.122  12.695  0.7029  0.0854 -0.5027
13793TIP3    H162794   3.724   4.170  12.620 -0.2718  0.4489 -0.7507
13793TIP3    H262795   3.671   4.034  12.660 -0.8192  0.5795 -1.0394
13794TIP3   OH262796   2.327   2.552  11.920  0.9525  0.4635  0.0663
13794TIP3    H162797   2.334   2.458  11.902 -3.1350 -0.1889  1.3423
13794TIP3    H262798   2.344   2.593  11.835  1.7905 -1.4583 -0.7318
13795TIP3   OH262799   5.740   0.540   3.202  0.0430  0.1247 -0.0156
13795TIP3    H162800   5.648   0.541   3.226  0.2833  1.3470  0.8939
13795TIP3    H262801   5.743   0.584   3.117 -0.4243 -1.5109 -0.8956
13796TIP3   OH262802   5.619   3.690   6.113 -0.5155 -0.1701  0.1698
13796TIP3    H162803   5.552   3.621   6.106 -0.8287  0.1545 -0.0661
13796TIP3    H262804   5.687   3.651   6.168 -0.8319 -0.5570  0.2967
13797TIP3   OH262805   5.810   5.951   1.494  0.0744  0.1656  0.1326
13797TIP3    H162806   5.726   5.996   1.488 -0.6426 -1.0875  0.5879
13797TIP3    H262807   5.814   5.919   1.584  1.1199  0.3622  0.1648
13798TIP3   OH262808   5.610   2.108  12.911 -0.0835 -0.3007 -0.1431
13798TIP3    H162809   5.662   2.097  12.990  0.1551  0.3687 -0.2091
13798TIP3    H262810   5.531   2.153  12.940  0.2416  0.4230 -0.3766
13799TIP3   OH262811   0.271   2.706  12.818  0.0583  0.9861 -0.3039
13799TIP3    H162812   0.316   2.787  12.842 -0.8270  1.1351  0.8592
13799TIP3    H262813   0.340   2.650  12.782  0.8505  1.8785 -0.1892
13800TIP3   OH262814   4.061   1.554  13.631  0.2702  0.1034  0.5171
13800TIP3    H162815   4.097   1.554  13.720  1.2575  1.1438  0.1299
13800TIP3    H262816   4.069   1.464  13.601  1.8084  0.1669  0.7338
13801TIP3   OH262817   5.600   5.128   5.310  0.2126  0.0229  0.0607
13801TIP3    H162818   5.510   5.113   5.282  0.7733 -2.4317 -0.5150
13801TIP3    H262819   5.646   5.046   5.291  2.5400  1.1716  0.4811
13802TIP3   OH262820   2.513   3.064   2.543  0.0103 -0.2993  0.0811
13802TIP3    H162821   2.521   3.027   2.631  0.6230  0.3416  0.3094
13802TIP3    H262822   2.505   3.159   2.558  0.5150 -0.1523 -0.5636
13803TIP3   OH262823   6.410   3.317  12.701 -0.1305 -0.2390 -0.3897
13803TIP3    H162824   6.350   3.332  12.773 -1.5814  0.7993 -1.7972
13803TIP3    H262825   6.479   3.262  12.739 -1.3464 -0.4880  1.5324
13804TIP3   OH262826   0.505   4.982   1.833 -0.5541 -0.6629  0.3004
13804TIP3    H162827   0.574   4.939   1.782 -0.1454  0.6445 -0.2572
13804TIP3    H262828   0.476   4.914   1.894  1.6274 -1.0615  0.9483
13805TIP3   OH262829   4.331   5.255  13.546  0.0766  0.0882  0.7415
13805TIP3    H162830   4.342   5.167  13.583  0.1490 -0.5762 -0.8143
13805TIP3    H262831   4.322   5.240  13.452 -1.3786  1.6378  0.6150
13806TIP3   OH262832   5.183   2.615   2.705  0.1817 -0.5636  0.2272
13806TIP3    H162833   5.263   2.617   2.757  0.3390  0.6533 -0.0613
13806TIP3    H262834   5.188   2.693   2.650 -2.2218  0.6453  1.6999
13807TIP3   OH262835   3.925   6.730  14.915 -0.4380 -0.2067 -0.4402
13807TIP3    H162836   3.833   6.706  14.926 -0.5290 -0.0699 -0.8724
13807TIP3    H262837   3.967   6.652  14.879 -0.1638 -0.6180  0.7652
13808TIP3   OH262838   1.111   3.611   5.167 -0.2418 -0.1801  0.9057
13808TIP3    H162839   1.202   3.584   5.153  0.3349  2.1996 -0.2343
13808TIP3    H262840   1.075   3.621   5.078 -0.7657  1.5781  1.2913
13809TIP3   OH262841   3.845   5.262  16.640 -0.4808 -0.2969  0.9699
13809TIP3    H162842   3.869   5.184  16.589 -0.3348  2.5233 -3.5633
13809TIP3    H262843   3.769   5.298  16.594 -0.5355  2.2619  2.9456
13810TIP3   OH262844   6.418   1.866  17.096 -0.2531 -0.0963  0.5271
13810TIP3    H162845   6.448   1.881  17.007  0.5523  2.9113  1.2460
13810TIP3    H262846   6.445   1.776  17.115  0.2649 -0.5058 -1.9666
13811TIP3   OH262847   2.961   5.619   5.046 -0.1245  0.0905 -0.5059
13811TIP3    H162848   2.917   5.700   5.021 -1.4686 -0.4455  0.0530
13811TIP3    H262849   2.938   5.557   4.976  0.2468 -0.0233 -0.5287
13812TIP3   OH262850   6.112   6.563  14.090 -0.1752  0.3549 -0.4018
13812TIP3    H162851   6.102   6.490  14.151 -1.6227 -0.5742 -1.6943
13812TIP3    H262852   6.066   6.534  14.011 -0.1833  2.3953 -1.1716
13813TIP3   OH262853   1.328   1.412  14.351  0.7062  0.4414 -0.0125
13813TIP3    H162854   1.399   1.421  14.413 -0.6097 -1.0569  1.7775
13813TIP3    H262855   1.296   1.501  14.336 -0.1371  0.6568  2.8726
13814TIP3   OH262856   4.724   4.331  10.823  0.4926  0.3117 -0.3571
13814TIP3    H162857   4.678   4.271  10.764 -3.4511  2.0090  0.8726
13814TIP3    H262858   4.770   4.273  10.884 -1.3517 -1.4551 -0.5934
13815TIP3   OH262859   0.764   6.019   1.265  0.0471 -0.2231  0.9794
13815TIP3    H162860   0.807   6.099   1.295 -1.2995  0.5437  0.8743
13815TIP3    H262861   0.750   5.968   1.345 -0.9297  0.5448  1.2993
13816TIP3   OH262862   3.681   4.794  14.522  0.1838 -0.4621  0.2510
13816TIP3    H162863   3.595   4.759  14.500  0.1706 -0.8901  0.9629
13816TIP3    H262864   3.667   4.843  14.602  0.5527 -0.3182  0.2273
13817TIP3   OH262865   2.357   5.732  15.775  0.5028  0.4755 -0.4335
13817TIP3    H162866   2.349   5.709  15.868 -1.0459  1.0263 -0.4219
13817TIP3    H262867   2.372   5.649  15.730 -1.4982 -0.1326 -0.0001
13818TIP3   OH262868   2.006   1.579   4.351 -0.2919 -0.6916  0.0797
13818TIP3    H162869   1.973   1.530   4.426 -0.3220 -1.1804 -0.2543
13818TIP3    H262870   2.076   1.634   4.387 -2.1902  1.1994  1.0209
13819TIP3   OH262871   3.956   4.060  15.531 -0.0018 -0.0940 -0.1257
13819TIP3    H162872   4.012   4.113  15.587 -0.4198 -2.1898  2.3693
13819TIP3    H262873   3.891   4.122  15.496  1.6577  1.6663 -0.1888
13820TIP3   OH262874   0.468   4.115  11.597 -0.0232  0.8814 -0.9602
13820TIP3    H162875   0.471   4.020  11.609  0.3341  0.9713 -0.2603
13820TIP3    H262876   0.376   4.138  11.604 -0.0559  0.6458 -0.6236
13821TIP3   OH262877   1.755   3.381  14.219 -0.1524  0.5967  0.2052
13821TIP3    H162878   1.775   3.291  14.247 -0.0026  0.4319 -0.4159
13821TIP3    H262879   1.676   3.372  14.165 -0.1775  0.8499  0.1986
13822TIP3   OH262880   0.160   1.708  15.377 -0.0543 -0.0371 -0.1764
13822TIP3    H162881   0.162   1.793  15.420 -1.1305  0.7270 -1.6041
13822TIP3    H262882   0.206   1.721  15.295 -0.3928 -0.7828 -0.4874
13823TIP3   OH262883   4.230   4.671   1.574 -0.2380  0.3278 -0.3641
13823TIP3    H162884   4.149   4.653   1.526  0.0872  0.8297 -1.1162
13823TIP3    H262885   4.271   4.585   1.585 -0.4506  0.1757 -0.7497
13824TIP3   OH262886   1.787   1.259  13.053 -0.1255 -0.1759  0.1097
13824TIP3    H162887   1.828   1.251  12.967 -0.2778 -0.9594  0.1030
13824TIP3    H262888   1.852   1.304  13.107 -0.6192  1.6947 -0.8120
13825TIP3   OH262889   5.086   3.906  13.066 -0.1674  0.2235  0.4683
13825TIP3    H162890   5.149   3.856  13.014  0.8074  2.5097 -0.5910
13825TIP3    H262891   5.137   3.978  13.103 -1.8208  1.2098  0.8809
13826TIP3   OH262892   4.722   0.587  13.597 -0.1196 -0.4064  0.5006
13826TIP3    H162893   4.816   0.580  13.610 -0.1101 -3.4928 -0.8590
13826TIP3    H262894   4.694   0.654  13.660  2.6087 -1.1111  2.5668
13827TIP3   OH262895   6.680   3.114  12.453  0.2421  0.0788 -0.1058
13827TIP3    H162896   6.729   3.110  12.535  0.1533  1.8094  0.0343
13827TIP3    H262897   6.745   3.144  12.388  0.1076 -0.4943 -0.5135
13828TIP3   OH262898   4.673   0.485  15.628 -0.0145  0.7599 -0.2996
13828TIP3    H162899   4.581   0.497  15.602 -0.2348 -0.0313  0.0991
13828TIP3    H262900   4.723   0.534  15.562 -0.7940  2.3701  0.2858
13829TIP3   OH262901   2.487   4.022  16.528 -0.3082 -0.1164  0.1004
13829TIP3    H162902   2.440   3.980  16.600  1.2445  0.1768  1.2904
13829TIP3    H262903   2.460   4.113  16.531  0.7989  0.1838  1.1776
13830TIP3   OH262904   3.793   3.995   0.228  0.0219 -0.0653  0.3537
13830TIP3    H162905   3.848   3.950   0.164  0.7673  2.5822 -0.9488
13830TIP3    H262906   3.715   3.941   0.234  0.9599 -1.6425 -0.9740
13831TIP3   OH262907   1.933   4.209  13.587  0.3130 -0.0724 -0.3142
13831TIP3    H162908   2.009   4.181  13.537 -0.9118 -1.2613 -1.5489
13831TIP3    H262909   1.859   4.201  13.527 -0.7413  1.5136  0.7168
13832TIP3   OH262910   0.635   4.649  13.352  0.4430 -0.4452 -0.7036
13832TIP3    H162911   0.630   4.642  13.256 -0.8583  0.7671 -0.7419
13832TIP3    H262912   0.626   4.742  13.370 -1.3969 -0.8547  0.6870
13833TIP3   OH262913   3.505   3.487   5.388  0.9294 -0.4730 -0.0495
13833TIP3    H162914   3.493   3.561   5.449  0.4806  1.0426 -1.9122
13833TIP3    H262915   3.595   3.498   5.355  0.1302  0.5699 -1.9757
13834TIP3   OH262916   4.111   0.811   0.714 -0.2197  0.2787 -0.0028
13834TIP3    H162917   4.126   0.732   0.766  0.1700  1.1740  1.2706
13834TIP3    H262918   4.181   0.810   0.649 -0.2359 -0.4465 -0.0107
13835TIP3   OH262919   5.378   4.791  14.996  0.4056  0.4108 -0.0037
13835TIP3    H162920   5.421   4.828  14.918  0.4515  0.4274  0.0299
13835TIP3    H262921   5.427   4.828  15.069  0.9628 -0.3523  0.0094
13836TIP3   OH262922   6.647   0.815  16.119 -0.3190  0.4282  0.5330
13836TIP3    H162923   6.594   0.788  16.194  0.6995 -0.1247  1.0723
13836TIP3    H262924   6.720   0.863  16.158  0.7277 -0.6882 -0.0367
13837TIP3   OH262925   6.320   0.871   1.189  0.2221 -0.7421  0.0580
13837TIP3    H162926   6.356   0.795   1.144  2.1169 -0.2314  0.6907
13837TIP3    H262927   6.245   0.897   1.136 -0.2962 -2.8847 -0.3025
13838TIP3   OH262928   6.126   4.487  16.553 -0.3901 -0.1502  0.1307
13838TIP3    H162929   6.085   4.412  16.596  1.4612 -0.8564  0.6831
13838TIP3    H262930   6.216   4.459  16.535 -1.4853 -0.4362 -5.6092
13839TIP3   OH262931   4.385   0.797   0.885  0.1508 -0.6386  0.3743
13839TIP3    H162932   4.446   0.869   0.901  0.6139 -0.8725 -0.3099
13839TIP3    H262933   4.353   0.774   0.972 -0.2465  0.6005  0.5658
13840TIP3   OH262934   2.011   4.988  11.806 -0.2319 -0.0886 -0.0054
13840TIP3    H162935   2.023   5.063  11.864  0.6813  0.6264 -1.0953
13840TIP3    H262936   1.943   4.936  11.848 -1.6722  1.9189  0.1970
13841TIP3   OH262937   5.434   3.200   4.884 -0.1686 -0.3037  0.0585
13841TIP3    H162938   5.374   3.125   4.882  0.1840 -0.6163  1.1673
13841TIP3    H262939   5.414   3.249   4.804 -1.9445 -0.3843  0.4364
13842TIP3   OH262940   6.672   2.387   1.585 -0.4562  0.0771  0.0340
13842TIP3    H162941   6.603   2.323   1.600  0.0952 -0.3280  0.8349
13842TIP3    H262942   6.753   2.342   1.608  0.1638  0.2880 -1.6585
13843TIP3   OH262943   4.231   6.085  15.897  0.4685 -0.3602 -0.3122
13843TIP3    H162944   4.144   6.050  15.919  0.0105  0.9761  0.0469
13843TIP3    H262945   4.245   6.057  15.806  1.5452 -4.2572  0.9681
13844TIP3   OH262946   6.513   3.562   0.757  0.2449  0.3778  0.0357
13844TIP3    H162947   6.605   3.564   0.783  0.5299 -0.1464 -0.9025
13844TIP3    H262948   6.495   3.469   0.741 -0.8864  0.2930  1.7243
13845TIP3   OH262949   0.592   4.452  16.033  0.0522  0.5179 -0.1288
13845TIP3    H162950   0.522   4.435  15.969 -0.6572  1.5763  0.3517
13845TIP3    H262951   0.548   4.446  16.118  0.5874  0.9927  0.1852
13846TIP3   OH262952   3.421   4.861   2.614  0.5993 -0.1513 -0.7280
13846TIP3    H162953   3.411   4.767   2.631  0.4159  0.4716  2.8878
13846TIP3    H262954   3.515   4.876   2.624  0.7587 -0.0790 -2.2153
13847TIP3   OH262955   3.090   4.277  15.654  0.0375 -0.4242  0.4256
13847TIP3    H162956   3.159   4.245  15.595 -1.3398 -0.5786 -1.1511
13847TIP3    H262957   3.058   4.199  15.698  0.5027 -0.4195  0.7817
13848TIP3   OH262958   2.533   0.371  15.608 -0.0068 -0.2630  0.1502
13848TIP3    H162959   2.553   0.377  15.515  1.2191  2.3979  0.5185
13848TIP3    H262960   2.452   0.320  15.613  1.7890 -3.4410 -2.0782
13849TIP3   OH262961   2.262   5.094   0.263 -0.0903  0.3516  0.0310
13849TIP3    H162962   2.301   5.180   0.280  0.4457  0.5678 -2.1590
13849TIP3    H262963   2.268   5.083   0.168  0.4342 -2.4009  0.3407
13850TIP3   OH262964   1.483   6.448  15.965 -0.0852  0.0512 -0.2771
13850TIP3    H162965   1.388   6.440  15.973 -0.2286  0.6684 -1.2635
13850TIP3    H262966   1.517   6.402  16.042 -1.2711  3.3203  2.3357
13851TIP3   OH262967   5.864   6.165   1.720 -0.3478  0.7737  0.0567
13851TIP3    H162968   5.777   6.172   1.681 -0.7175 -1.4026  0.4495
13851TIP3    H262969   5.868   6.077   1.757  2.1524  0.6924 -0.2753
13852TIP3   OH262970   3.195   2.885  15.356  0.4411 -0.6218 -0.4212
13852TIP3    H162971   3.157   2.840  15.432  1.4458  0.4476  0.7339
13852TIP3    H262972   3.123   2.891  15.293 -0.5170 -1.1587  0.6022
13853TIP3   OH262973   2.885   1.940  14.964 -0.4342  0.0589  0.2132
13853TIP3    H162974   2.940   1.924  14.887  0.6893  0.2333  0.9597
13853TIP3    H262975   2.906   2.030  14.991  0.6636 -0.6546  1.8665
13854TIP3   OH262976   5.911   5.821   0.624 -0.5104 -0.7694 -0.6606
13854TIP3    H162977   5.874   5.861   0.545 -1.2824 -1.6065 -0.7230
13854TIP3    H262978   5.861   5.741   0.636 -0.8662 -0.2939  1.0801
13855TIP3   OH262979   5.340   2.763   0.994  0.0251  0.0613  0.0969
13855TIP3    H162980   5.361   2.789   0.904 -1.8036  3.7679  0.6461
13855TIP3    H262981   5.369   2.837   1.048  0.7943 -1.9587  2.5638
13856TIP3   OH262982   1.081   4.385   0.330  0.2854  0.6905 -0.2710
13856TIP3    H162983   1.056   4.296   0.304  1.1507  0.8619 -1.7481
13856TIP3    H262984   1.158   4.374   0.385  0.2521  0.5164 -0.2590
13857TIP3   OH262985   0.654   5.489  11.610 -0.3860 -0.7046  0.3314
13857TIP3    H162986   0.743   5.454  11.607  0.1044  0.6570 -1.2999
13857TIP3    H262987   0.606   5.439  11.543 -0.5559 -0.6086  0.3816
13858TIP3   OH262988   1.670   2.381   4.451 -0.3410 -0.4626 -0.0943
13858TIP3    H162989   1.755   2.406   4.414 -0.8631  0.8304 -0.4531
13858TIP3    H262990   1.692   2.334   4.531  0.6864  2.4655  1.4334
13859TIP3   OH262991   0.954   2.206  16.192 -0.0111  0.2411 -0.3060
13859TIP3    H162992   0.885   2.152  16.230  2.9942 -3.2865  0.4285
13859TIP3    H262993   0.969   2.169  16.106  2.8420 -0.8811  0.6172
13860TIP3   OH262994   2.941   3.477  11.662  0.1046 -0.4867  0.1975
13860TIP3    H162995   2.892   3.399  11.686  1.3042 -1.3540 -0.0966
13860TIP3    H262996   2.895   3.549  11.705 -2.0770 -1.1172 -0.9955
13861TIP3   OH262997   6.240   3.905  15.269 -0.3587  0.2616 -0.5700
13861TIP3    H162998   6.229   3.921  15.363  0.1055  1.6294 -0.7439
13861TIP3    H262999   6.168   3.954  15.228 -1.3668 -1.4276 -0.8448
13862TIP3   OH263000   4.166   4.553   4.688 -0.0886 -0.6421 -0.0560
13862TIP3    H163001   4.260   4.534   4.685  0.0810 -0.1325  1.8821
13862TIP3    H263002   4.161   4.648   4.697 -0.7638 -0.7650  0.9614
13863TIP3   OH263003   6.204   2.936   2.381 -0.1676 -0.2755  0.1098
13863TIP3    H163004   6.190   2.847   2.414  0.1027  0.5123  2.4020
13863TIP3    H263005   6.278   2.969   2.431 -1.4710  1.9277  0.6418
13864TIP3   OH263006   0.519   0.374   2.431 -0.0798 -0.4227 -0.3038
13864TIP3    H163007   0.535   0.302   2.492 -0.9142 -0.4374 -0.1026
13864TIP3    H263008   0.436   0.411   2.459 -0.0612  0.0907 -0.9280
13865TIP3   OH263009   4.549   5.140   0.220  0.0538  0.0786  0.0384
13865TIP3    H163010   4.543   5.048   0.244  2.0503 -0.2221 -0.4955
13865TIP3    H263011   4.629   5.146   0.167 -0.9245  1.8173 -1.3193
13866TIP3   OH263012   3.534   2.763   3.805  0.5547 -0.1158 -0.9051
13866TIP3    H163013   3.483   2.839   3.834  0.7333  0.4670 -2.1038
13866TIP3    H263014   3.493   2.688   3.848  0.2246  0.6305  0.0904
13867TIP3   OH263015   2.764   3.471  15.819 -0.0466 -0.7743 -0.0386
13867TIP3    H163016   2.807   3.527  15.754 -0.8812  0.6118  0.5815
13867TIP3    H263017   2.719   3.404  15.767  0.8140 -0.7709 -0.8000
13868TIP3   OH263018   4.975   0.914  13.737  0.3544  0.1366 -0.5300
13868TIP3    H163019   4.991   0.993  13.790  0.9646 -0.5833  0.3895
13868TIP3    H263020   5.013   0.934  13.652  1.6243  0.3876  0.0800
13869TIP3   OH263021   2.440   4.160  16.238  0.5354 -0.1332  0.1746
13869TIP3    H163022   2.462   4.087  16.181  0.0836 -1.4378  1.6447
13869TIP3    H263023   2.415   4.120  16.321 -2.4420  1.5045  0.1473
13870TIP3   OH263024   0.006   3.447   0.182 -0.2060 -0.0691  0.5538
13870TIP3    H163025   0.094   3.413   0.197  0.3379 -0.8868 -3.7996
13870TIP3    H263026   0.020   3.535   0.146 -1.0451 -0.7971 -1.6396
13871TIP3   OH263027   1.956   1.684   0.613 -0.1649 -0.2873 -0.1495
13871TIP3    H163028   1.913   1.770   0.615 -1.2642 -0.8245 -0.0955
13871TIP3    H263029   1.886   1.622   0.635  1.0940 -0.9981  2.0520
13872TIP3   OH263030   3.128   3.593   1.867 -0.2949 -0.3268 -0.1799
13872TIP3    H163031   3.042   3.599   1.826 -0.4505 -0.9858  0.0283
13872TIP3    H263032   3.110   3.556   1.954  0.1369  0.0754  0.0789
13873TIP3   OH263033   3.752   0.890  13.883  0.8440  0.3103  0.2289
13873TIP3    H163034   3.815   0.955  13.914 -0.5452  2.2938 -0.9476
13873TIP3    H263035   3.764   0.888  13.788  0.2358 -0.4496  0.1620
13874TIP3   OH263036   5.364   0.442   0.552 -0.0890 -0.4631  0.0384
13874TIP3    H163037   5.378   0.438   0.457 -0.6207  0.0228 -0.0627
13874TIP3    H263038   5.423   0.511   0.582 -0.6916  0.1050 -0.0856
13875TIP3   OH263039   4.903   0.476   3.630  0.3316  0.2368 -0.0171
13875TIP3    H163040   4.919   0.441   3.543 -0.5210 -0.7088  0.1941
13875TIP3    H263041   4.816   0.517   3.623  0.8443  1.3427  0.0306
13876TIP3   OH263042   1.123   6.224   4.610  0.0527  0.8811  0.2367
13876TIP3    H163043   1.153   6.147   4.562 -0.7766  0.8903 -0.3161
13876TIP3    H263044   1.100   6.287   4.542 -0.4831  1.1458  0.6591
13877TIP3   OH263045   5.310   5.283   4.589  0.5457  0.3649  0.0552
13877TIP3    H163046   5.332   5.205   4.640  0.4396  0.8687  0.8866
13877TIP3    H263047   5.343   5.265   4.501 -1.5438 -1.5919 -0.3744
13878TIP3   OH263048   5.112   0.113   5.466  0.4014  0.0206 -0.1629
13878TIP3    H163049   5.192   0.141   5.510  0.4625 -0.9832  0.3594
13878TIP3    H263050   5.042   0.135   5.528  0.3413  0.1023 -0.2577
13879TIP3   OH263051   5.408   3.251   5.266  0.4130 -0.3634 -0.3538
13879TIP3    H163052   5.484   3.218   5.314  0.3618  0.7944  0.5579
13879TIP3    H263053   5.344   3.273   5.334 -0.6044 -0.9840 -1.0886
13880TIP3   OH263054   1.334   6.164  12.095  0.3609  0.0238 -0.0275
13880TIP3    H163055   1.399   6.192  12.160  0.9693 -0.9718 -0.2042
13880TIP3    H263056   1.344   6.227  12.023  0.6413  0.2914  0.2412
13881TIP3   OH263057   3.185   2.688   5.359 -0.3192  0.0633  0.2620
13881TIP3    H163058   3.101   2.644   5.370  1.5100 -3.3817  1.3873
13881TIP3    H263059   3.224   2.646   5.282  0.6404  1.1841  0.1191
13882TIP3   OH263060   3.931   5.398  13.662 -0.2417 -0.4075 -0.2074
13882TIP3    H163061   3.905   5.369  13.575  1.9686  1.0039 -1.3799
13882TIP3    H263062   3.951   5.491  13.651  0.1400 -0.2331  1.7910
13883TIP3   OH263063   4.046   6.467   0.009  0.0825  0.4401  0.2600
13883TIP3    H163064   3.982   6.424   0.066  2.0422  0.2044  2.3425
13883TIP3    H263065   4.066   6.550   0.054  2.3632 -0.1844  0.4271
13884TIP3   OH263066   6.106   0.417   1.599  0.2914 -0.1891 -0.4239
13884TIP3    H163067   6.116   0.390   1.508  2.9663  1.2863 -0.6133
13884TIP3    H263068   6.048   0.493   1.596 -2.1271 -1.9537 -0.5153
13885TIP3   OH263069   2.619   0.324   5.215 -0.1093  0.4201 -0.1072
13885TIP3    H163070   2.588   0.307   5.303  1.0808  1.0289  0.4441
13885TIP3    H263071   2.623   0.238   5.173  0.4453 -0.0016  0.8056
13886TIP3   OH263072   3.567   2.263   0.713 -0.3442 -0.2036 -0.3635
13886TIP3    H163073   3.615   2.253   0.795  0.2769  0.2910 -0.6697
13886TIP3    H263074   3.559   2.174   0.679  0.7587 -0.2253 -0.5517
13887TIP3   OH263075   3.871   4.280   4.391 -0.4245 -0.6665 -0.0623
13887TIP3    H163076   3.807   4.317   4.453 -1.1143  0.8605 -1.6481
13887TIP3    H263077   3.956   4.303   4.430 -0.7884 -2.7545  2.0840
13888TIP3   OH263078   6.110   5.044  11.567 -0.7840 -0.0225  0.0554
13888TIP3    H163079   6.107   5.080  11.656  1.3532  0.4927 -0.0375
13888TIP3    H263080   6.120   4.949  11.579 -0.5081  0.0472  0.3708
13889TIP3   OH263081   2.334   3.162   3.488 -0.4897 -0.1726  0.4408
13889TIP3    H163082   2.290   3.077   3.483  1.7405 -1.2753 -2.0521
13889TIP3    H263083   2.264   3.225   3.502 -2.1586 -2.4227  2.6230
13890TIP3   OH263084   6.480   4.359  15.412  0.3490  0.1635 -0.1427
13890TIP3    H163085   6.547   4.425  15.395  0.8519 -0.4239 -0.4513
13890TIP3    H263086   6.468   4.314  15.328 -2.2799  1.9386 -0.7763
13891TIP3   OH263087   0.448   6.031   1.503  0.1090 -0.0251  0.2844
13891TIP3    H163088   0.513   6.069   1.562 -0.7982 -0.1483  1.3789
13891TIP3    H263089   0.372   6.088   1.510 -0.4026 -0.6746  0.1005
13892TIP3   OH263090   1.191   4.724  11.494  0.5835  0.4958 -0.2667
13892TIP3    H163091   1.286   4.711  11.487  0.3995 -0.7155 -0.4815
13892TIP3    H263092   1.157   4.639  11.520 -0.3761  1.1119  0.4902
13893TIP3   OH263093   0.724   5.064  16.779 -0.0051  0.2219 -0.3947
13893TIP3    H163094   0.724   4.978  16.820 -2.0237  0.6752  0.6440
13893TIP3    H263095   0.681   5.051  16.695 -2.2807  0.5926  0.6833
13894TIP3   OH263096   4.522   2.813   0.409 -0.5573  0.4609  0.2793
13894TIP3    H163097   4.439   2.797   0.455 -0.0687  1.4305  1.5261
13894TIP3    H263098   4.585   2.757   0.453 -0.1343  1.2156  0.6364
13895TIP3   OH263099   0.228   4.866  12.475  0.0440 -0.2276  0.0831
13895TIP3    H163100   0.303   4.824  12.517  1.7088  1.2527 -1.3372
13895TIP3    H263101   0.261   4.895  12.390 -2.2912 -0.0161 -0.7908
13896TIP3   OH263102   5.194   3.755  16.590  0.6144 -0.2042  0.1559
13896TIP3    H163103   5.206   3.698  16.515  1.0685  1.0969 -0.7713
13896TIP3    H263104   5.258   3.724  16.655 -0.0063 -1.5312  0.1364
13897TIP3   OH263105   1.966   3.579   2.416 -0.0922  0.3580  0.1464
13897TIP3    H163106   2.041   3.554   2.362  0.1229 -0.3304  0.7599
13897TIP3    H263107   1.998   3.650   2.471 -0.1299  0.6244 -0.1727
13898TIP3   OH263108   4.633   3.774  16.762  0.6768 -0.0727  0.6689
13898TIP3    H163109   4.588   3.855  16.782  1.7123 -0.0970  3.3071
13898TIP3    H263110   4.588   3.707  16.814  0.7738 -0.9272 -0.3209
13899TIP3   OH263111   4.024   5.412  14.058  0.1483  0.0990  0.6002
13899TIP3    H163112   4.039   5.371  14.143 -0.1181  0.1059  0.6488
13899TIP3    H263113   3.929   5.418  14.050  0.1784  0.3577  0.4247
13900TIP3   OH263114   0.188   1.766   4.273  0.4922 -0.5813  0.0087
13900TIP3    H163115   0.208   1.776   4.366  1.7937  1.2414 -0.4460
13900TIP3    H263116   0.274   1.760   4.231  0.0733  3.1523 -1.5435
13901TIP3   OH263117   0.454   4.078   1.762 -0.1002  0.0561 -0.4274
13901TIP3    H163118   0.436   4.130   1.684 -1.5145 -0.7358 -0.6442
13901TIP3    H263119   0.476   3.991   1.729 -0.3886 -0.1993  0.0403
13902TIP3   OH263120   2.490   5.257   6.542 -0.9763  0.0139  0.4976
13902TIP3    H163121   2.506   5.178   6.491  1.0366  0.3303  0.6054
13902TIP3    H263122   2.400   5.247   6.574 -0.2246 -2.9794  1.8750
13903TIP3   OH263123   4.699   0.744   5.471  0.5431  0.3274 -0.1128
13903TIP3    H163124   4.642   0.818   5.494 -0.6482 -0.2451 -1.1923
13903TIP3    H263125   4.785   0.785   5.454  0.0698  1.3858  0.0010
13904TIP3   OH263126   1.444   4.532  16.707 -0.1863  0.4202  0.1699
13904TIP3    H163127   1.442   4.438  16.687  0.6523  0.1279  1.4094
13904TIP3    H263128   1.391   4.541  16.786 -2.3575  1.3688 -1.3438
13905TIP3   OH263129   0.778   4.351  10.624 -0.2928 -0.1194  0.2293
13905TIP3    H163130   0.697   4.324  10.580  0.4144 -1.4544 -0.2888
13905TIP3    H263131   0.830   4.393  10.555 -0.0429 -0.3607  0.2700
13906TIP3   OH263132   1.275   1.219   5.492  0.1469 -0.8147 -0.2641
13906TIP3    H163133   1.337   1.162   5.539 -0.9568 -1.0081  0.9888
13906TIP3    H263134   1.223   1.158   5.438  0.7337 -0.6994 -0.9696
13907TIP3   OH263135   6.112   3.185  16.265 -0.0422 -0.3082  0.0279
13907TIP3    H163136   6.154   3.140  16.338 -0.6926 -1.4144 -0.2578
13907TIP3    H263137   6.030   3.218  16.301  0.0579 -0.0711  0.0348
13908TIP3   OH263138   3.646   6.021  15.384  0.1745 -0.9301  0.3609
13908TIP3    H163139   3.703   6.087  15.423 -0.5091 -1.3835  2.1959
13908TIP3    H263140   3.559   6.061  15.386  0.3805 -0.1821 -2.5420
13909TIP3   OH263141   2.783   0.421  16.246 -0.2031  0.3728 -0.0168
13909TIP3    H163142   2.762   0.500  16.295 -1.7742  0.3713 -0.6378
13909TIP3    H263143   2.860   0.385  16.289 -0.8063  1.0455  1.6539
13910TIP3   OH263144   4.668   0.805   1.648 -0.0277  0.0233  0.2660
13910TIP3    H163145   4.684   0.813   1.742 -0.5989 -0.0405  0.3733
13910TIP3    H263146   4.590   0.750   1.642 -0.3206  0.4892 -0.2266
13911TIP3   OH263147   4.813   4.246  17.193 -0.8251  0.0660  0.3960
13911TIP3    H163148   4.890   4.225  17.246 -1.1283 -1.5654  0.2245
13911TIP3    H263149   4.848   4.277  17.109 -0.3479 -0.6004  0.3484
13912TIP3   OH263150   3.655   6.422  16.396  0.0591  0.1761  0.1031
13912TIP3    H163151   3.605   6.375  16.463  1.2828  1.4605  1.9740
13912TIP3    H263152   3.698   6.353  16.345  0.4027 -0.7859  1.6633
13913TIP3   OH263153   3.142   3.317   1.718  0.6617 -0.3955 -0.2297
13913TIP3    H163154   3.100   3.392   1.761 -0.5157 -0.7388 -0.7730
13913TIP3    H263155   3.199   3.280   1.786  1.3647  1.0797 -0.0024
13914TIP3   OH263156   2.128   2.443  15.748  0.0265 -0.4899 -0.4632
13914TIP3    H163157   2.062   2.444  15.679 -0.7956  0.2931  0.3144
13914TIP3    H263158   2.211   2.437  15.702 -0.4090  1.7340 -1.6168
13915TIP3   OH263159   5.930   2.604  12.887 -0.4340 -0.1295 -0.2402
13915TIP3    H163160   5.940   2.549  12.964  0.4054  0.9391  0.4432
13915TIP3    H263161   5.899   2.688  12.921  1.7552  0.9552 -0.8194
13916TIP3   OH263162   2.445   0.714   2.243 -0.2119 -0.5567 -0.5706
13916TIP3    H163163   2.351   0.698   2.239 -0.8105  2.5466 -0.1644
13916TIP3    H263164   2.466   0.754   2.159  0.6785 -0.7810 -0.4629
13917TIP3   OH263165   6.267   0.236  13.443 -0.1075 -0.6891  0.0455
13917TIP3    H163166   6.314   0.154  13.461 -0.7527 -1.4859 -1.7559
13917TIP3    H263167   6.176   0.210  13.435 -0.2478  0.1189 -1.0576
13918TIP3   OH263168   3.070   6.664   4.411  0.3899 -0.1925 -0.0541
13918TIP3    H163169   3.158   6.638   4.436 -0.0119 -1.7899 -0.2889
13918TIP3    H263170   3.013   6.599   4.452 -0.7564  1.4076  0.9375
13919TIP3   OH263171   6.573   1.404  13.316  0.4478 -0.5091  0.0827
13919TIP3    H163172   6.585   1.328  13.259 -0.1583 -1.0425  0.6661
13919TIP3    H263173   6.655   1.411  13.364  0.8145 -0.2910 -0.5585
13920TIP3   OH263174   3.942   3.996  12.230 -0.0130 -0.0930 -0.1637
13920TIP3    H163175   3.960   3.912  12.187  0.0567 -0.6821  1.0244
13920TIP3    H263176   4.029   4.036  12.240  0.0415 -0.2683  0.0707
13921TIP3   OH263177   2.174   6.685   1.027 -0.4535  0.0966 -0.1021
13921TIP3    H163178   2.251   6.731   1.060  0.0064 -2.0303  1.8729
13921TIP3    H263179   2.101   6.720   1.077 -0.6620  1.4120 -1.2958
13922TIP3   OH263180   1.257   5.862  11.223 -0.2258 -0.2705 -0.0685
13922TIP3    H163181   1.176   5.899  11.189  0.3882 -1.1040 -2.5718
13922TIP3    H263182   1.239   5.768  11.231  0.3104 -0.3807 -0.1205
13923TIP3   OH263183   3.194   1.469   2.207 -0.2404  0.1876 -0.1043
13923TIP3    H163184   3.170   1.561   2.215  0.8746  0.4027  0.8295
13923TIP3    H263185   3.167   1.445   2.119 -2.8138  0.7278  0.4806
13924TIP3   OH263186   2.025   2.110  16.573 -0.1126  0.2330 -0.6094
13924TIP3    H163187   2.075   2.117  16.492  1.4048 -0.3569  0.2575
13924TIP3    H263188   1.991   2.199  16.588  0.8541  0.6953 -1.1166
13925TIP3   OH263189   3.231   6.719  13.231 -0.2088  0.0134  0.6657
13925TIP3    H163190   3.203   6.790  13.288 -0.3093  1.3243 -0.9815
13925TIP3    H263191   3.159   6.709  13.168  1.2676  0.7722 -1.1926
13926TIP3   OH263192   2.147   0.797   2.473  0.2379 -0.2257 -0.8865
13926TIP3    H163193   2.130   0.882   2.433 -3.1302 -0.6188 -0.4036
13926TIP3    H263194   2.172   0.817   2.563 -4.3940  0.1678  0.4055
13927TIP3   OH263195   6.336   0.860  13.439  0.3979  0.7966 -0.4098
13927TIP3    H163196   6.313   0.803  13.365 -0.2054  2.2183 -1.3381
13927TIP3    H263197   6.253   0.902  13.464  0.5243  0.0642  1.3268
13928TIP3   OH263198   4.571   5.814   5.669  0.0532 -0.2419 -0.2969
13928TIP3    H163199   4.563   5.900   5.710  0.0460 -1.8665  3.3728
13928TIP3    H263200   4.485   5.773   5.681  0.5881 -1.4194 -0.3759
13929TIP3   OH263201   0.972   5.677  14.081  0.0073 -0.1076  0.3014
13929TIP3    H163202   0.933   5.758  14.112 -1.1978 -1.3403  2.1019
13929TIP3    H263203   1.008   5.635  14.160  1.4321 -0.8881 -0.7318
13930TIP3   OH263204   4.656   6.103  11.227 -0.2225 -0.5703  0.9720
13930TIP3    H163205   4.732   6.052  11.199  0.3912  0.8300  0.0422
13930TIP3    H263206   4.686   6.147  11.307  0.6221  1.4914 -0.4358
13931TIP3   OH263207   1.880   2.117  12.436 -0.2084  0.3711  0.0227
13931TIP3    H163208   1.961   2.158  12.466  0.6710 -1.5948  0.4203
13931TIP3    H263209   1.834   2.093  12.517 -0.0620 -0.6681 -0.1982
13932TIP3   OH263210   1.292   5.527   3.976  0.0356 -0.1181 -0.6382
13932TIP3    H163211   1.248   5.443   3.988  1.3376 -1.1436 -2.7903
13932TIP3    H263212   1.224   5.585   3.943 -0.8734 -0.2916  0.8692
13933TIP3   OH263213   4.984   6.550  17.007  0.1085  0.0822  0.5690
13933TIP3    H163214   5.034   6.586  16.934  2.0897  0.2074  1.9498
13933TIP3    H263215   4.915   6.614  17.024  0.1161  0.4220 -0.6729
13934TIP3   OH263216   0.039   5.497   1.730  0.0573  0.0613 -0.4046
13934TIP3    H163217   0.015   5.530   1.643 -1.1225  1.1860  0.3274
13934TIP3    H263218   0.052   5.403   1.717 -1.4357 -0.0095 -1.5529
13935TIP3   OH263219   3.107   5.771  13.207 -0.1978 -0.3504  0.3300
13935TIP3    H163220   3.090   5.807  13.120 -2.7639 -0.4913  0.7471
13935TIP3    H263221   3.053   5.692  13.211  1.0054 -1.1275  1.5269
13936TIP3   OH263222   2.483   0.891  11.791  0.1376  0.4754  0.1245
13936TIP3    H163223   2.494   0.834  11.716  0.0237 -0.5716  0.8966
13936TIP3    H263224   2.534   0.969  11.770  0.5557 -0.0456 -0.7880
13937TIP3   OH263225   0.714   1.866  13.198 -0.1128  0.6754  0.0140
13937TIP3    H163226   0.644   1.804  13.217 -0.1054  0.9159  0.8504
13937TIP3    H263227   0.753   1.834  13.116 -1.4227  0.7479 -0.6544
13938TIP3   OH263228   5.318   0.757  14.522  0.0810 -0.2328  0.8663
13938TIP3    H163229   5.403   0.713  14.517  0.2208  0.2041 -1.0282
13938TIP3    H263230   5.256   0.696  14.484 -0.1956  0.0683  0.8256
13939TIP3   OH263231   0.331   0.943  12.904 -0.3752 -0.8246 -1.1479
13939TIP3    H163232   0.387   0.899  12.841  0.7079  0.6594 -1.2257
13939TIP3    H263233   0.368   1.030  12.914 -1.5406 -0.4589  0.2439
13940TIP3   OH263234   0.211   1.128   6.251 -0.2317 -0.1377 -0.1134
13940TIP3    H163235   0.252   1.169   6.175 -0.9824 -0.4943 -0.7254
13940TIP3    H263236   0.117   1.135   6.233 -0.3890 -1.1807  0.2668
13941TIP3   OH263237   0.743   5.623   1.448 -0.5822  0.6001  0.6054
13941TIP3    H163238   0.702   5.704   1.416 -1.0154  0.3674  0.5667
13941TIP3    H263239   0.692   5.553   1.408  1.1247  0.2822 -1.0952
13942TIP3   OH263240   1.958   3.920  15.060 -0.2774 -0.1888  0.1946
13942TIP3    H163241   1.987   3.978  15.129  0.0384 -0.2323  0.0963
13942TIP3    H263242   1.923   3.978  14.992  2.1446  0.0290 -0.9165
13943TIP3   OH263243   5.170   0.271   1.563 -0.7181  0.6490 -0.0983
13943TIP3    H163244   5.080   0.248   1.541 -0.4032  1.9558 -3.1062
13943TIP3    H263245   5.176   0.365   1.544  1.0028  0.8188  1.0869
13944TIP3   OH263246   3.577   0.280   3.908  0.0308  0.5258  0.2015
13944TIP3    H163247   3.580   0.266   3.814  1.4500 -0.7859  0.4050
13944TIP3    H263248   3.669   0.292   3.934 -0.0017 -1.9246  1.7521
13945TIP3   OH263249   2.560   1.512  14.202 -0.2032  0.3417 -0.5204
13945TIP3    H163250   2.551   1.563  14.120  0.0353  1.0062 -0.1400
13945TIP3    H263251   2.559   1.579  14.271  1.6997 -0.0535 -0.0989
13946TIP3   OH263252   6.513   0.892   4.797 -0.1945  0.1701  0.7993
13946TIP3    H163253   6.423   0.860   4.795 -0.2846  0.3896  1.2552
13946TIP3    H263254   6.566   0.816   4.819 -0.0295 -0.4711 -1.6159
13947TIP3   OH263255   3.075   0.480   5.499 -0.3143  0.1986  0.5803
13947TIP3    H163256   3.073   0.392   5.461  0.3357 -0.2822  1.6428
13947TIP3    H263257   2.983   0.504   5.510 -0.5286  0.3570 -1.2768
13948TIP3   OH263258   5.795   0.356  14.393 -0.2113 -0.2063 -0.2128
13948TIP3    H163259   5.864   0.292  14.379 -1.5296 -1.5757 -0.6115
13948TIP3    H263260   5.838   0.429  14.436  1.5218 -0.9440 -0.6601
13949TIP3   OH263261   6.557   0.540   5.976 -0.3372  0.2576  0.7932
13949TIP3    H163262   6.625   0.478   5.950  1.0158  2.2310 -0.5352
13949TIP3    H263263   6.475   0.493   5.964  0.6276 -1.1137 -0.6275
13950TIP3   OH263264   5.401   3.482   3.870  0.1820 -0.0503  0.4480
13950TIP3    H163265   5.489   3.501   3.902  0.5259 -1.5006  0.3939
13950TIP3    H263266   5.343   3.502   3.944  0.5363  1.0872  0.4193
13951TIP3   OH263267   2.069   5.321  14.210 -0.0669 -0.0024  0.2652
13951TIP3    H163268   2.145   5.264  14.213  0.4904  0.7287 -0.0143
13951TIP3    H263269   2.057   5.343  14.118 -0.2489  0.3801  0.3770
13952TIP3   OH263270   6.067   0.524   2.110 -0.2352 -0.3579  0.7497
13952TIP3    H163271   6.033   0.592   2.053  1.7135 -0.7886 -0.9798
13952TIP3    H263272   6.113   0.572   2.180 -0.5058  0.1274  0.5945
13953TIP3   OH263273   2.790   3.715   2.093  0.2083 -0.0376  0.3895
13953TIP3    H163274   2.738   3.753   2.164  0.1632 -0.4826  0.5958
13953TIP3    H263275   2.812   3.789   2.037  1.2063  0.5075  1.4721
13954TIP3   OH263276   4.415   5.458   3.987 -0.1467 -0.6073 -0.0523
13954TIP3    H163277   4.394   5.545   4.020 -0.1026 -2.1862  4.4151
13954TIP3    H263278   4.329   5.419   3.967 -0.4006 -0.8459  1.4848
13955TIP3   OH263279   0.875   5.887  12.162 -0.3936  0.3352 -0.1601
13955TIP3    H163280   0.909   5.798  12.170  1.1427  0.7153 -2.0765
13955TIP3    H263281   0.953   5.943  12.162 -1.1550  1.4402 -1.9386
13956TIP3   OH263282   0.794   2.275  15.363 -0.6292  0.6391  0.0526
13956TIP3    H163283   0.769   2.185  15.342  1.1648 -0.3730  2.0196
13956TIP3    H263284   0.723   2.307  15.418 -0.7263  0.0278  0.2862
13957TIP3   OH263285   5.311   0.941   5.148  0.4008 -0.0452  0.5315
13957TIP3    H163286   5.348   0.882   5.212  1.1174 -0.7830 -0.5425
13957TIP3    H263287   5.252   0.887   5.096 -1.7037  0.9630  1.7798
13958TIP3   OH263288   5.301   4.229   0.288 -0.3202  0.1803  0.2412
13958TIP3    H163289   5.393   4.207   0.307 -0.3335  1.1867  1.5047
13958TIP3    H263290   5.305   4.311   0.239 -0.4733 -0.6221 -1.1367
13959TIP3   OH263291   4.406   0.986  11.110  0.1370 -0.0075  0.6456
13959TIP3    H163292   4.472   1.052  11.132 -1.1495  0.6466  2.6551
13959TIP3    H263293   4.407   0.925  11.183  1.9671 -2.8155 -1.6217
13960TIP3   OH263294   4.415   5.586   1.871 -0.3277  0.3085  0.1140
13960TIP3    H163295   4.391   5.498   1.899  1.1167  0.1091  0.7641
13960TIP3    H263296   4.445   5.576   1.781  0.8992 -0.0512  0.5571
13961TIP3   OH263297   5.256   2.609   1.377  0.3822  0.3278 -0.5379
13961TIP3    H163298   5.173   2.587   1.420  0.5660 -1.3820 -0.9830
13961TIP3    H263299   5.252   2.703   1.363  0.0250  0.8077  2.5655
13962TIP3   OH263300   2.682   0.664   0.346  0.3075  0.6455 -0.0860
13962TIP3    H163301   2.675   0.624   0.433  0.2329 -0.1678 -0.4675
13962TIP3    H263302   2.744   0.737   0.359 -0.4487  1.1350  0.8580
13963TIP3   OH263303   4.497   0.615  14.677 -0.5949  0.0290  0.9004
13963TIP3    H163304   4.516   0.694  14.728 -1.4661  0.4927  0.5129
13963TIP3    H263305   4.580   0.594  14.635 -0.7393  1.6605 -0.2538
13964TIP3   OH263306   0.206   1.358  15.046 -0.1361  0.0518 -0.4794
13964TIP3    H163307   0.231   1.281  14.996  0.8003  0.7862 -1.1648
13964TIP3    H263308   0.274   1.422  15.027 -0.9772  1.0981 -0.0360
13965TIP3   OH263309   3.514   5.568  11.882  0.2546  0.5009  0.0673
13965TIP3    H163310   3.433   5.523  11.905 -0.0724  0.4210 -1.2010
13965TIP3    H263311   3.583   5.502  11.893 -0.0412  0.1273 -0.3025
13966TIP3   OH263312   2.042   3.362  15.489  0.4229 -0.2716  0.1438
13966TIP3    H163313   2.079   3.279  15.518 -2.8740 -1.9523 -0.2255
13966TIP3    H263314   1.979   3.385  15.557 -1.6936 -0.2366 -1.7675
13967TIP3   OH263315   6.307   5.691   0.358  0.5629 -0.2393  0.3228
13967TIP3    H163316   6.366   5.650   0.422  1.5304  0.2962 -0.2207
13967TIP3    H263317   6.244   5.739   0.412  0.6903 -0.7136  0.9069
13968TIP3   OH263318   2.810   6.372  13.767  0.6814  0.0009  0.2553
13968TIP3    H163319   2.805   6.424  13.848  0.6486 -0.7413  0.7375
13968TIP3    H263320   2.880   6.309  13.784  1.2021  0.3417 -0.5932
13969TIP3   OH263321   4.584   5.361   4.288  0.9297 -1.0095 -0.0570
13969TIP3    H163322   4.575   5.330   4.379 -0.5768  1.9166  0.8552
13969TIP3    H263323   4.499   5.342   4.248 -0.3006  2.4014  0.7362
13970TIP3   OH263324   2.229   2.712  15.774  0.4194  0.2457 -0.1575
13970TIP3    H163325   2.265   2.690  15.860 -0.7970  2.2712  0.9011
13970TIP3    H263326   2.160   2.648  15.761  0.2172  0.2863  0.6467
13971TIP3   OH263327   3.968   5.796   1.172  0.0611  0.2816 -0.9010
13971TIP3    H163328   3.872   5.792   1.172  0.0836 -0.8257  1.4903
13971TIP3    H263329   3.990   5.827   1.084 -2.4442 -0.5279 -1.8657
13972TIP3   OH263330   2.376   4.624   5.066  0.2298  0.0462 -0.2579
13972TIP3    H163331   2.365   4.667   4.981 -0.5704 -3.2073 -1.8787
13972TIP3    H263332   2.468   4.601   5.070  0.0503 -0.7629 -0.7352
13973TIP3   OH263333   0.124   4.850   2.943 -0.2019  0.1543  0.0799
13973TIP3    H163334   0.112   4.943   2.961 -0.4791  0.4228 -1.4707
13973TIP3    H263335   0.139   4.811   3.029 -0.9744  1.4932  0.8340
13974TIP3   OH263336   5.826   1.859  16.853  0.1798 -0.4223 -0.2635
13974TIP3    H163337   5.787   1.896  16.932  2.1895  0.6907  0.2474
13974TIP3    H263338   5.911   1.826  16.882  0.5305 -0.8753 -1.7650
13975TIP3   OH263339   3.191   3.850   1.996  0.3579 -1.1942  0.1143
13975TIP3    H163340   3.220   3.838   2.086  2.1205 -1.3050 -0.4477
13975TIP3    H263341   3.203   3.764   1.955 -0.7197 -1.2256 -0.1543
13976TIP3   OH263342   6.312   1.190   5.011 -0.3074  0.3170 -0.0370
13976TIP3    H163343   6.288   1.280   4.988 -0.4125  0.5558  1.0046
13976TIP3    H263344   6.306   1.187   5.106 -1.7089 -1.1864 -0.1558
13977TIP3   OH263345   0.414   0.053  16.787 -0.0434 -0.4233 -0.2032
13977TIP3    H163346   0.340  -0.003  16.762  0.6275 -1.6417  0.4782
13977TIP3    H263347   0.460   0.003  16.855  0.1471  1.2893  0.9718
13978TIP3   OH263348   2.312   3.387  11.874 -0.9833 -0.0750 -0.0246
13978TIP3    H163349   2.398   3.384  11.915 -1.2058 -0.2369  0.4290
13978TIP3    H263350   2.295   3.480  11.859 -0.0158 -0.1506 -1.6216
13979TIP3   OH263351   2.704   3.493   1.589  0.0915 -0.5470 -0.8375
13979TIP3    H163352   2.617   3.478   1.554  1.7202 -1.0024 -4.9209
13979TIP3    H263353   2.729   3.409   1.627 -1.3936 -0.2515  0.8923
13980TIP3   OH263354   6.358   3.907   4.284  0.4425 -0.3983 -0.6530
13980TIP3    H163355   6.447   3.880   4.261 -0.1254 -2.5199 -0.4461
13980TIP3    H263356   6.362   3.922   4.379  0.9874  1.2553 -0.9120
13981TIP3   OH263357   4.878   3.087   2.257 -0.0566  0.1000  0.0632
13981TIP3    H163358   4.802   3.093   2.316  0.0680  0.8231  0.1480
13981TIP3    H263359   4.885   3.174   2.218  0.7907  0.0599  0.1230
13982TIP3   OH263360   4.585   4.049  13.510 -0.7039  0.2503  0.4002
13982TIP3    H163361   4.511   4.045  13.450  0.8570  0.3984 -1.6017
13982TIP3    H263362   4.651   3.991  13.472  0.5753  0.8525  1.6200
13983TIP3   OH263363   5.175   4.880   5.548 -0.3087 -0.0009 -0.4792
13983TIP3    H163364   5.220   4.905   5.629  2.7109 -0.4377 -1.9659
13983TIP3    H263365   5.157   4.786   5.559  2.9297 -0.8236 -1.5124
13984TIP3   OH263366   2.575   4.438  14.195  0.0535 -0.0256  0.4272
13984TIP3    H163367   2.606   4.349  14.182  1.1272  0.5969 -1.4653
13984TIP3    H263368   2.630   4.473  14.265 -0.1555 -0.7426  0.9463
13985TIP3   OH263369   0.249   3.102   0.297  0.4769 -0.2556 -0.2431
13985TIP3    H163370   0.203   3.053   0.229  0.6349  0.4889 -0.8858
13985TIP3    H263371   0.290   3.034   0.351 -1.4005 -0.9337  0.3765
13986TIP3   OH263372   3.033   3.757  14.646 -0.4115  0.7460  0.2106
13986TIP3    H163373   2.962   3.728  14.704 -0.1637  1.5809  0.9407
13986TIP3    H263374   3.100   3.790  14.705  1.1516 -1.2290 -0.4040
13987TIP3   OH263375   5.297   2.694  15.150 -0.4349  0.2392 -0.4093
13987TIP3    H163376   5.239   2.674  15.076 -0.5357 -1.0156 -0.0109
13987TIP3    H263377   5.257   2.771  15.192 -1.3200 -0.0663 -0.6714
13988TIP3   OH263378   5.823   1.023   4.608 -0.3399  0.0758 -0.0475
13988TIP3    H163379   5.825   1.045   4.701  0.7772 -0.9632  0.1719
13988TIP3    H263380   5.756   1.081   4.572 -0.9819  0.2896  1.4510
13989TIP3   OH263381   2.806   5.693  13.941  0.2423 -0.3976  0.3802
13989TIP3    H163382   2.886   5.666  13.987 -0.1391 -0.5679  0.9566
13989TIP3    H263383   2.816   5.658  13.853  0.7071 -0.6045  0.5109
13990TIP3   OH263384   4.907   2.928  10.876  0.1100 -0.1215  0.4171
13990TIP3    H163385   4.961   2.929  10.797 -1.1158 -2.6759 -0.5169
13990TIP3    H263386   4.970   2.930  10.948  1.3548 -0.4465 -0.6413
13991TIP3   OH263387   2.769   5.541  12.389  0.2963 -0.1989 -0.2497
13991TIP3    H163388   2.843   5.521  12.445  0.1289  0.8352  0.3427
13991TIP3    H263389   2.694   5.498  12.432  0.3609 -0.3482 -0.2835
13992TIP3   OH263390   3.641   5.439  13.774  0.5451  0.1243 -0.5821
13992TIP3    H163391   3.676   5.447  13.862 -1.0308 -1.4616  0.2190
13992TIP3    H263392   3.674   5.355  13.742 -0.6049 -0.3063 -0.6788
13993TIP3   OH263393   3.380   0.380  13.381  0.3094 -0.2596 -0.1011
13993TIP3    H163394   3.299   0.330  13.370  1.3643 -2.2599  0.9986
13993TIP3    H263395   3.398   0.416  13.295  0.2834 -2.9803 -1.2786
13994TIP3   OH263396   1.340   5.769   1.053 -0.1258  0.1465  0.0047
13994TIP3    H163397   1.359   5.680   1.023 -0.5593 -1.4265  4.0285
13994TIP3    H263398   1.425   5.811   1.058  0.1061 -0.0723 -1.7122
13995TIP3   OH263399   3.786   0.518  13.866 -0.1135 -0.6707  1.0213
13995TIP3    H163400   3.729   0.556  13.798  1.1465  0.1745  0.4273
13995TIP3    H263401   3.741   0.537  13.948 -1.0023 -0.5504  0.5128
13996TIP3   OH263402   0.144   5.529  15.306  0.0141 -0.2590  0.0087
13996TIP3    H163403   0.142   5.624  15.317 -1.3329 -0.3326  0.4412
13996TIP3    H263404   0.195   5.497  15.381 -0.0767  0.0722  0.2137
13997TIP3   OH263405   0.375   2.091  12.154  0.2705  0.1173 -0.0290
13997TIP3    H163406   0.321   2.095  12.075  0.4260 -0.8476 -0.1844
13997TIP3    H263407   0.465   2.090  12.122  0.4036  1.9564  0.2410
13998TIP3   OH263408   0.961   2.044   5.935 -0.2097  0.4996  0.0856
13998TIP3    H163409   1.001   2.111   5.880  0.7574 -0.9975 -1.0574
13998TIP3    H263410   0.977   2.074   6.025  3.2487  0.0881 -0.3409
13999TIP3   OH263411   6.160   2.232  15.555  0.7053  0.5657 -0.2858
13999TIP3    H163412   6.066   2.238  15.570  0.8184 -1.5664  1.5626
13999TIP3    H263413   6.197   2.307  15.601  0.2171 -0.7292  2.2999
14000TIP3   OH263414   0.583   6.469  12.257 -0.5754  0.1456  0.5149
14000TIP3    H163415   0.493   6.446  12.277 -0.4708 -0.0698  0.7361
14000TIP3    H263416   0.631   6.386  12.261 -0.0190  0.5421  2.2500
14001TIP3   OH263417   0.583   1.361  17.093  0.3527 -0.4210 -0.1401
14001TIP3    H163418   0.543   1.424  17.154 -0.7216 -0.2533 -1.0093
14001TIP3    H263419   0.533   1.280  17.106 -0.5840 -0.0832 -1.5536
14002TIP3   OH263420   6.051   1.035   3.393 -0.2227  0.1712  0.0358
14002TIP3    H163421   6.103   1.080   3.459 -2.0946  3.5862 -0.6651
14002TIP3    H263422   5.969   1.015   3.437  0.1596 -1.5342 -0.0095
14003TIP3   OH263423   1.874   4.691  15.915 -0.0424 -0.5037  0.2421
14003TIP3    H163424   1.809   4.625  15.892 -1.3524  0.9026 -0.2348
14003TIP3    H263425   1.855   4.765  15.857  1.9130 -0.0042  0.1958
14004TIP3   OH263426   3.715   4.737   0.816  0.6192 -0.2451  0.2696
14004TIP3    H163427   3.807   4.729   0.790  0.3221  0.5704 -1.1185
14004TIP3    H263428   3.715   4.723   0.911  1.9264 -2.0834  0.0245
14005TIP3   OH263429   0.616   5.035  15.561  0.3719  0.4155 -0.2245
14005TIP3    H163430   0.579   5.118  15.593  1.4484  0.6482  0.4461
14005TIP3    H263431   0.707   5.057  15.539  0.1844 -0.2046 -1.6307
14006TIP3   OH263432   0.470   1.214   1.667 -0.0379  0.3691  0.4735
14006TIP3    H163433   0.506   1.242   1.751 -0.6729  2.1642  0.1519
14006TIP3    H263434   0.376   1.230   1.674 -0.2623 -0.5829 -0.1639
14007TIP3   OH263435   3.263   4.012   5.617 -0.0925 -0.5462  0.4270
14007TIP3    H163436   3.319   4.088   5.603  0.4632 -1.6884 -4.3152
14007TIP3    H263437   3.320   3.946   5.655  0.2260  0.3258  1.4686
14008TIP3   OH263438   5.109   5.188   0.343  0.5647 -0.2266 -0.0869
14008TIP3    H163439   5.147   5.126   0.405  1.4772 -0.2582 -0.6678
14008TIP3    H263440   5.026   5.214   0.383  0.3821 -1.4858  0.3583
14009TIP3   OH263441   1.782   3.570  12.633 -0.0202  0.2772  0.1461
14009TIP3    H163442   1.764   3.607  12.546  1.8661  0.1471 -0.3122
14009TIP3    H263443   1.787   3.476  12.619 -1.0211  0.1402  0.6452
14010TIP3   OH263444   1.597   1.329   5.506  0.2895  0.3998  0.1899
14010TIP3    H163445   1.538   1.327   5.431  0.0309 -0.5753  0.4010
14010TIP3    H263446   1.561   1.398   5.563 -0.0206  0.5463 -0.1832
14011TIP3   OH263447   4.395   3.940   3.898  0.8294 -0.4088  0.2572
14011TIP3    H163448   4.327   3.924   3.964 -1.3965 -0.9147 -2.1068
14011TIP3    H263449   4.381   4.031   3.872 -0.5955 -1.2492 -2.0286
14012TIP3   OH263450   1.165   2.349   0.048  0.5750  0.1537 -0.1233
14012TIP3    H163451   1.171   2.287  -0.024 -2.0896 -0.2687 -0.0327
14012TIP3    H263452   1.133   2.297   0.122  1.1429  1.0371  0.7602
14013TIP3   OH263453   1.980   1.847  16.651  0.1112  0.9666 -0.1665
14013TIP3    H163454   2.047   1.782  16.631 -0.1588  0.5452  0.2984
14013TIP3    H263455   2.008   1.925  16.603 -0.7508 -0.1524 -2.6092
14014TIP3   OH263456   2.988   3.505  16.773 -0.3849 -0.1262 -0.0975
14014TIP3    H163457   2.940   3.587  16.781  0.1988  0.2584 -0.4836
14014TIP3    H263458   3.066   3.528  16.723 -0.3388 -0.9664 -0.4281
14015TIP3   OH263459   2.367   6.135   2.030  0.0489  0.6227 -0.4176
14015TIP3    H163460   2.352   6.047   1.996 -0.1628  0.6388 -0.3683
14015TIP3    H263461   2.315   6.139   2.111 -0.2775  0.9319 -0.6390
14016TIP3   OH263462   4.481   5.302   0.419 -0.1103 -0.4307  0.7748
14016TIP3    H163463   4.520   5.249   0.349 -1.1987 -2.7740  1.8895
14016TIP3    H263464   4.422   5.362   0.374  1.6126  0.3106 -0.5606
14017TIP3   OH263465   0.110   3.729   0.933 -0.1835 -0.3044  0.0739
14017TIP3    H163466   0.201   3.754   0.951 -0.1091  1.3104 -2.2626
14017TIP3    H263467   0.118   3.651   0.878 -0.3126 -2.1491  2.5991
14018TIP3   OH263468   5.219   3.233  15.866  0.0203  0.0293 -0.3021
14018TIP3    H163469   5.208   3.324  15.836 -0.3869 -0.3976 -1.4467
14018TIP3    H263470   5.130   3.204  15.887  0.3134  0.3701  1.4793
14019TIP3   OH263471   0.427   5.167  14.545 -0.1055  0.6113  0.2732
14019TIP3    H163472   0.437   5.183  14.451 -0.9349 -1.3704 -0.1640
14019TIP3    H263473   0.335   5.144  14.556  0.5262 -1.6214  1.1928
14020TIP3   OH263474   0.288   6.691  16.288 -0.1580  0.1154 -0.1547
14020TIP3    H163475   0.230   6.638  16.233 -1.4518  0.9911  0.3419
14020TIP3    H263476   0.324   6.757  16.229 -0.1700 -0.0375 -0.3306
14021TIP3   OH263477   5.760   2.012  14.652 -0.6914  0.2365  0.2030
14021TIP3    H163478   5.705   1.978  14.582  0.8177 -1.1088 -0.3499
14021TIP3    H263479   5.821   2.072  14.608  1.8599 -2.4392 -0.0794
14022TIP3   OH263480   1.043   3.385   0.818 -0.0919  0.9252  0.2684
14022TIP3    H163481   1.071   3.381   0.726  0.2812  0.4139  0.4046
14022TIP3    H263482   0.960   3.338   0.820 -0.0661  0.8775  0.2112
14023TIP3   OH263483   4.201   3.130  12.785 -0.2949  0.1499 -0.7100
14023TIP3    H163484   4.171   3.088  12.705  0.7168 -1.2494 -0.3667
14023TIP3    H263485   4.189   3.224  12.769 -0.8220 -0.1652 -2.1904
14024TIP3   OH263486   2.129   1.370  13.682 -0.2183 -0.3893 -0.6417
14024TIP3    H163487   2.128   1.289  13.632  0.2102 -1.7279  1.4678
14024TIP3    H263488   2.075   1.431  13.631  2.4673 -0.7924 -4.1712
14025TIP3   OH263489   3.021   4.780   0.881  0.0758  0.3560 -0.6479
14025TIP3    H163490   3.087   4.711   0.885 -0.0037  0.3579  0.8519
14025TIP3    H263491   2.943   4.740   0.919  0.0869  1.3277  0.4102
14026TIP3   OH263492   0.393   2.092  10.872 -0.1427  0.0944  0.2815
14026TIP3    H163493   0.464   2.148  10.841  0.6205  0.1492  2.0685
14026TIP3    H263494   0.436   2.012  10.900 -0.6925  0.3365  1.8789
14027TIP3   OH263495   2.767   3.958   1.916 -0.2538 -0.4262 -0.6567
14027TIP3    H163496   2.707   3.978   1.845  0.3446 -0.6977 -1.2392
14027TIP3    H263497   2.773   4.039   1.966  0.8961  0.3893 -2.0738
14028TIP3   OH263498   2.086   4.887   0.505  0.1641  0.1015 -0.5160
14028TIP3    H163499   2.001   4.928   0.521  0.2252  0.9152 -2.2501
14028TIP3    H263500   2.146   4.961   0.491  1.0324 -0.4879  0.0214
14029TIP3   OH263501   2.499   3.781  15.019  0.2438 -0.9993  0.0993
14029TIP3    H163502   2.458   3.808  14.937  1.1201  0.2935  0.0758
14029TIP3    H263503   2.588   3.815  15.014 -0.6347  1.9890  3.0084
14030TIP3   OH263504   5.434   2.994  11.343  0.5709 -0.3125 -0.3806
14030TIP3    H163505   5.461   3.025  11.256  0.6433 -0.3841 -0.3843
14030TIP3    H263506   5.504   3.024  11.402  0.2016  0.2915 -0.2457
14031TIP3   OH263507   4.404   0.768  10.931 -0.3735  0.0904  0.1910
14031TIP3    H163508   4.489   0.746  10.970 -0.8449  0.3737  1.4098
14031TIP3    H263509   4.376   0.846  10.979 -1.3303 -0.0141 -0.1975
14032TIP3   OH263510   5.438   3.001  12.289  0.0962  0.2856  0.4567
14032TIP3    H163511   5.385   2.995  12.368  0.0307  0.6394  0.4399
14032TIP3    H263512   5.485   3.084  12.297 -1.0526  1.0584 -0.5724
14033TIP3   OH263513   2.533   4.971   5.040  0.1567  0.6788 -0.5146
14033TIP3    H163514   2.517   5.041   5.103  1.1509 -0.2661  0.8430
14033TIP3    H263515   2.499   4.892   5.083  0.1911  0.1439 -1.4651
14034TIP3   OH263516   3.658   0.156   6.536 -0.0902  0.7865  0.3192
14034TIP3    H163517   3.739   0.127   6.494 -0.0491 -0.8811  1.5093
14034TIP3    H263518   3.687   0.214   6.606  0.0252  0.7908  0.2688
14035TIP3   OH263519   4.412   0.936  16.806 -0.4292  0.0324 -0.0296
14035TIP3    H163520   4.468   0.861  16.827 -0.7358  0.1623  1.2890
14035TIP3    H263521   4.324   0.899  16.802 -0.2069 -0.2918 -2.7467
14036TIP3   OH263522   5.686   2.141  11.631 -0.0831 -0.4336 -0.3878
14036TIP3    H163523   5.771   2.148  11.676  0.4898 -1.7947 -1.1981
14036TIP3    H263524   5.682   2.217  11.574  0.4547 -0.1828 -0.0891
14037TIP3   OH263525   1.670   4.125   2.765  0.3492  0.1841  0.0348
14037TIP3    H163526   1.615   4.159   2.694 -1.3555 -1.0402  0.7563
14037TIP3    H263527   1.720   4.201   2.794  2.3705  0.3919 -3.5925
14038TIP3   OH263528   5.387   5.363  16.007  0.0324 -0.2331  0.0871
14038TIP3    H163529   5.331   5.436  16.034  1.4906  0.7897  0.4352
14038TIP3    H263530   5.469   5.377  16.054  0.2838 -2.1875  0.2492
14039TIP3   OH263531   3.885   2.222  13.421 -0.0105  0.2105 -0.0898
14039TIP3    H163532   3.926   2.279  13.486 -1.9324  0.9571  0.5029
14039TIP3    H263533   3.807   2.270  13.394  0.0154 -0.7388 -1.9158
14040TIP3   OH263534   2.826   4.408  14.035 -0.1023  0.5027 -0.2333
14040TIP3    H163535   2.848   4.483  14.091 -0.2881  0.1343  0.3274
14040TIP3    H263536   2.813   4.335  14.095  1.2611 -0.2764 -0.8564
14041TIP3   OH263537   5.196   0.100   3.281 -0.3191 -0.0948 -0.8077
14041TIP3    H163538   5.102   0.107   3.265 -0.7340 -1.5920  0.7788
14041TIP3    H263539   5.218   0.011   3.253  0.1326 -0.5706  0.9559
14042TIP3   OH263540   6.005   3.240   2.047  0.2645 -0.0658 -0.2734
14042TIP3    H163541   6.058   3.290   2.109  0.1695 -0.5003  0.1573
14042TIP3    H263542   5.976   3.163   2.096  0.4604 -0.5794 -0.9601
14043TIP3   OH263543   2.840   1.079   0.215  0.1223 -0.2720  0.9145
14043TIP3    H163544   2.847   1.030   0.134  0.5947 -2.1658  2.0665
14043TIP3    H263545   2.902   1.151   0.206 -0.7510  0.2702 -0.8959
14044TIP3   OH263546   6.180   3.983   3.652 -0.3933  0.0184 -0.3397
14044TIP3    H163547   6.201   4.033   3.730  0.1770 -1.7834  0.6795
14044TIP3    H263548   6.086   3.998   3.638 -0.7387 -0.5569  1.3364
14045TIP3   OH263549   1.250   3.670   5.725 -0.0489  0.2013  0.0216
14045TIP3    H163550   1.177   3.610   5.709 -1.0451  1.7342 -1.3647
14045TIP3    H263551   1.294   3.677   5.640  0.0151  1.4664  0.1475
14046TIP3   OH263552   0.148   4.145   3.965  0.2301 -0.2810 -0.7609
14046TIP3    H163553   0.189   4.125   3.881  2.0162  0.5060 -0.1188
14046TIP3    H263554   0.200   4.217   4.000 -0.3965 -0.6872  1.0802
14047TIP3   OH263555   0.915   5.909  16.414  0.5432  0.3887 -0.5785
14047TIP3    H163556   0.878   5.952  16.338 -0.1495 -0.3910 -0.6934
14047TIP3    H263557   0.923   5.978  16.480 -0.3146  0.7431 -0.8395
14048TIP3   OH263558   1.177   2.786   3.032  0.2160  0.3337 -0.1492
14048TIP3    H163559   1.094   2.810   3.072  0.5119  0.6122  0.3027
14048TIP3    H263560   1.192   2.854   2.966 -0.1374  0.0268 -0.5493
14049TIP3   OH263561   0.331   0.500   3.052 -0.0491  0.9755 -0.6380
14049TIP3    H163562   0.401   0.450   3.010  1.7516  1.4430  1.7005
14049TIP3    H263563   0.260   0.437   3.063  0.6261  0.0436 -1.5648
14050TIP3   OH263564   4.586   0.898   1.121  0.6384  0.0301 -0.3269
14050TIP3    H163565   4.641   0.901   1.043 -0.1359  0.7705 -0.8443
14050TIP3    H263566   4.570   0.805   1.135  0.3220 -0.0709 -1.3618
14051TIP3   OH263567   6.225   4.740  12.372 -0.4068 -0.5033  0.1495
14051TIP3    H163568   6.236   4.661  12.425 -1.4674 -0.8177 -0.0934
14051TIP3    H263569   6.134   4.736  12.341 -0.5406  0.8997  0.3017
14052TIP3   OH263570   3.318   6.553  11.375  0.2968  0.2002 -0.5217
14052TIP3    H163571   3.270   6.579  11.296 -0.6695 -0.8400 -0.2935
14052TIP3    H263572   3.400   6.516  11.343  0.5710  1.1615 -0.9571
14053TIP3   OH263573   0.696   3.796   4.103 -0.1789  0.0178  0.1715
14053TIP3    H163574   0.624   3.733   4.102 -0.5293  0.3955  1.0117
14053TIP3    H263575   0.652   3.881   4.101  0.2839  0.2425 -0.6923
14054TIP3   OH263576   5.240   4.843  16.450 -0.1242 -0.6401  0.1590
14054TIP3    H163577   5.183   4.776  16.488 -1.3517 -0.2443 -0.9393
14054TIP3    H263578   5.212   4.850  16.359  0.5070  0.8143  0.0572
14055TIP3   OH263579   2.173   1.654  11.725 -0.0521  0.2884  0.1655
14055TIP3    H163580   2.130   1.727  11.769 -0.0485  1.5959 -1.9428
14055TIP3    H263581   2.267   1.668  11.742 -0.0753  0.5634  0.0585
14056TIP3   OH263582   2.300   4.312   4.127  0.4762 -0.3057 -0.3577
14056TIP3    H163583   2.382   4.286   4.168  0.6063  0.5566 -0.0635
14056TIP3    H263584   2.321   4.395   4.083 -0.4903  0.4279  0.5494
14057TIP3   OH263585   2.492   2.181   6.812 -0.3121 -0.1920  0.1610
14057TIP3    H163586   2.404   2.145   6.807 -0.4349 -0.2866  2.5262
14057TIP3    H263587   2.535   2.130   6.881  0.6232  1.8787  1.1565
14058TIP3   OH263588   0.112   6.688   0.867 -0.1825 -0.2922 -0.0738
14058TIP3    H163589   0.019   6.664   0.859 -0.3974  0.7111 -0.6909
14058TIP3    H263590   0.116   6.743   0.945 -0.2582  0.3703 -0.5329
14059TIP3   OH263591   5.829   3.437  12.009  0.3669  0.5185 -0.1963
14059TIP3    H163592   5.784   3.404  11.932  1.5127 -2.2898  0.2484
14059TIP3    H263593   5.759   3.457  12.071 -0.5208  2.1497 -1.6926
14060TIP3   OH263594   4.009   6.066  14.656 -0.2643 -0.1974 -0.1114
14060TIP3    H163595   4.037   5.994  14.713  1.4595 -1.0050 -1.9242
14060TIP3    H263596   4.063   6.140  14.683  0.4480 -0.5384 -0.5924
14061TIP3   OH263597   4.400   4.470   5.582 -0.3736 -0.2057  0.1886
14061TIP3    H163598   4.341   4.444   5.653 -1.0861 -0.5801 -0.5223
14061TIP3    H263599   4.482   4.425   5.602 -0.2229  0.5678  1.3552
14062TIP3   OH263600   6.017   4.315  16.246 -0.3742 -0.4777  0.0915
14062TIP3    H163601   5.946   4.376  16.227 -1.4507 -2.3645 -2.2674
14062TIP3    H263602   5.973   4.239  16.285  0.9250  0.1907  2.9027
14063TIP3   OH263603   3.275   2.990  14.217 -0.4353 -0.1532 -0.3923
14063TIP3    H163604   3.208   2.924  14.199 -0.7417  0.3682 -1.2056
14063TIP3    H263605   3.229   3.058  14.266 -0.3103 -0.1743 -0.2459
14064TIP3   OH263606   3.819   6.400   0.172  0.0406 -0.1378  0.4668
14064TIP3    H163607   3.813   6.349   0.252  0.0122 -0.3104  0.3548
14064TIP3    H263608   3.740   6.454   0.172 -0.1930 -0.4749  0.3222
14065TIP3   OH263609   1.627   5.593  14.301  0.6443  0.2916  0.0530
14065TIP3    H163610   1.555   5.595  14.364  0.1502  0.1061 -0.4972
14065TIP3    H263611   1.680   5.670  14.321 -1.5649  2.3672 -1.6966
14066TIP3   OH263612   6.497   1.346   3.310  0.0623 -0.0121 -0.2128
14066TIP3    H163613   6.503   1.250   3.312  0.1952  0.0147  1.1552
14066TIP3    H263614   6.582   1.376   3.340 -0.4584  0.5160  0.7820
14067TIP3   OH263615   5.723   4.852   5.299  0.5261  0.5067  0.0800
14067TIP3    H163616   5.778   4.781   5.331 -2.1465 -1.8844 -0.4964
14067TIP3    H263617   5.767   4.881   5.219  1.2024 -1.0597 -0.1421
14068TIP3   OH263618   3.075   2.763   4.391  0.1781  0.0584 -0.1413
14068TIP3    H163619   3.049   2.855   4.389  0.3362  0.2044  2.5621
14068TIP3    H263620   3.152   2.762   4.448  0.2369 -1.7235 -0.2476
14069TIP3   OH263621   1.500   2.840  16.634 -0.5947 -0.0895 -0.0077
14069TIP3    H163622   1.554   2.891  16.693 -1.1171  0.2448  0.1830
14069TIP3    H263623   1.439   2.903  16.595 -0.0330 -0.2435 -1.1574
14070TIP3   OH263624   5.020   2.133  13.987  0.1822  0.5560 -0.1166
14070TIP3    H163625   5.097   2.189  13.994  1.5463 -1.5128  2.8140
14070TIP3    H263626   5.049   2.059  13.934  0.3207 -0.2851  1.0911
14071TIP3   OH263627   1.445   1.006   6.153  0.1931  0.1359 -0.1323
14071TIP3    H163628   1.470   1.017   6.061 -0.5402  1.0670 -0.2304
14071TIP3    H263629   1.515   1.050   6.202 -0.8262  2.0939 -0.3754
14072TIP3   OH263630   5.801   3.288   1.640 -0.2860  0.2305  0.1649
14072TIP3    H163631   5.867   3.244   1.694 -1.4916  2.2201  3.4071
14072TIP3    H263632   5.761   3.352   1.699 -1.7467  2.4569 -3.1015
14073TIP3   OH263633   0.541   0.483   5.625 -0.5026  0.1096 -0.7338
14073TIP3    H163634   0.529   0.472   5.720 -2.5432 -0.1907 -0.9928
14073TIP3    H263635   0.603   0.556   5.617 -0.2123  0.0624  0.8326
14074TIP3   OH263636   4.099   6.351   3.568 -0.1276 -0.0617  0.5157
14074TIP3    H163637   4.113   6.296   3.490 -0.7821 -0.9459  1.0203
14074TIP3    H263638   4.047   6.297   3.627 -2.4135  1.7870  0.2595
14075TIP3   OH263639   5.833   3.014  14.933 -0.2764  0.0727 -0.3259
14075TIP3    H163640   5.813   3.091  14.881  0.0974  1.2385  1.2448
14075TIP3    H263641   5.749   2.970  14.946 -1.0327  2.0478  1.6591
14076TIP3   OH263642   6.020   6.173   4.639  0.0192  0.3835  0.1915
14076TIP3    H163643   6.051   6.151   4.551 -0.5168  0.4450 -0.0113
14076TIP3    H263644   5.981   6.260   4.629 -0.6221  0.1133  0.3560
14077TIP3   OH263645   6.358   3.573   4.102  0.1403  0.0298 -0.0851
14077TIP3    H163646   6.317   3.566   4.016 -2.1286  0.1622  0.9674
14077TIP3    H263647   6.345   3.487   4.142  1.2515 -0.0541  0.1089
14078TIP3   OH263648   2.441   1.920  14.152  0.8391 -0.5387 -0.1305
14078TIP3    H163649   2.410   1.979  14.083  0.9978 -2.1414 -1.6161
14078TIP3    H263650   2.395   1.949  14.231  1.1370  1.7362 -0.7422
14079TIP3   OH263651   2.840   3.124  16.683 -0.0564 -0.3329  0.3469
14079TIP3    H163652   2.774   3.180  16.644 -1.6471 -2.5008 -0.1662
14079TIP3    H263653   2.810   3.111  16.773 -1.7144 -3.2517 -0.5447
14080TIP3   OH263654   1.702   4.142   4.977 -0.9283 -0.4279  0.1825
14080TIP3    H163655   1.780   4.127   5.029 -0.4575  3.1679  0.6663
14080TIP3    H263656   1.634   4.165   5.040 -1.1960  0.7774 -0.5158
14081TIP3   OH263657   1.254   1.322   2.350  0.0651 -0.1951  0.5826
14081TIP3    H163658   1.339   1.352   2.380 -0.3081  0.3433  1.1250
14081TIP3    H263659   1.270   1.236   2.312  1.4462  1.4079 -2.5636
14082TIP3   OH263660   0.232   3.734  16.339 -0.0982  0.3066  0.4503
14082TIP3    H163661   0.149   3.693  16.315  1.4041 -2.7228  0.1262
14082TIP3    H263662   0.248   3.705  16.429  0.0426  1.8866  0.9544
14083TIP3   OH263663   0.467   0.125  12.410  0.5854 -0.2555 -0.4853
14083TIP3    H163664   0.398   0.114  12.475  0.2257 -0.0965 -0.8355
14083TIP3    H263665   0.421   0.122  12.326  0.6952  2.0073 -0.6642
14084TIP3   OH263666   1.535   0.264   2.125  0.4703  0.0057 -0.5932
14084TIP3    H163667   1.500   0.295   2.209  0.3845  0.2199 -0.7075
14084TIP3    H263668   1.561   0.343   2.079  2.5505 -0.2435  0.1080
14085TIP3   OH263669   5.162   3.011   5.690  0.4420  0.0598 -0.1237
14085TIP3    H163670   5.116   2.952   5.630  0.5653  0.7648 -0.9382
14085TIP3    H263671   5.161   2.966   5.774 -4.4817  1.3314  0.6696
14086TIP3   OH263672   2.761   2.567  13.031  0.0520  0.2948 -0.2053
14086TIP3    H163673   2.696   2.585  13.100  1.6871  0.1123  1.4169
14086TIP3    H263674   2.709   2.534  12.958 -1.6070 -0.6593  1.3547
14087TIP3   OH263675   3.402   0.203  11.788  0.8855 -0.1007 -0.5359
14087TIP3    H163676   3.467   0.167  11.728  3.0475  1.5930  0.6814
14087TIP3    H263677   3.357   0.271  11.738  0.9501 -0.4011 -0.9988
14088TIP3   OH263678   2.358   2.820  14.497 -0.5158  0.5842  0.2899
14088TIP3    H163679   2.417   2.839  14.424  0.5555 -0.5805  0.8353
14088TIP3    H263680   2.272   2.848  14.466 -0.1425 -0.2444 -1.5952
14089TIP3   OH263681   4.155   2.795   4.392 -0.0306 -0.7718 -0.7987
14089TIP3    H163682   4.159   2.802   4.487 -2.9974 -0.8376 -0.6179
14089TIP3    H263683   4.201   2.713   4.372  1.5097 -0.2378  0.4523
14090TIP3   OH263684   4.251   6.342   4.488 -0.2973  0.0109 -0.6433
14090TIP3    H163685   4.268   6.418   4.433 -0.0833 -1.3947 -2.5869
14090TIP3    H263686   4.315   6.276   4.459 -1.6322 -1.4967 -0.2493
14091TIP3   OH263687   5.512   2.676  12.078 -0.9272  0.2121  0.2892
14091TIP3    H163688   5.594   2.627  12.080 -0.6731  0.5162 -2.0340
14091TIP3    H263689   5.444   2.610  12.091 -0.5983 -0.8337 -2.9129
14092TIP3   OH263690   6.617   6.070  15.033 -0.0250  0.1467 -0.1456
14092TIP3    H163691   6.553   6.131  14.995 -1.5047 -0.7673  0.8229
14092TIP3    H263692   6.585   5.983  15.008  1.3064 -0.2992 -0.3453
14093TIP3   OH263693   4.044   1.679   1.067  0.2037  0.0439  0.2160
14093TIP3    H163694   4.129   1.723   1.081 -0.8472  2.0481  0.5909
14093TIP3    H263695   4.004   1.678   1.154  0.2603 -1.8264  0.2310
14094TIP3   OH263696   1.370   0.463   0.699 -0.3238  0.2749 -0.5322
14094TIP3    H163697   1.381   0.475   0.604 -0.0551 -0.0290 -0.5414
14094TIP3    H263698   1.420   0.384   0.719 -1.5048 -0.4408 -0.3594
14095TIP3   OH263699   1.904   5.476  14.412  0.0123  0.6712  0.6714
14095TIP3    H163700   1.940   5.433  14.334 -1.4751  0.3270  0.1706
14095TIP3    H263701   1.973   5.538  14.438  0.3564  1.1099 -1.1564
14096TIP3   OH263702   2.060   5.696  13.427  0.4844  0.1705 -0.1265
14096TIP3    H163703   2.019   5.717  13.343  1.3870 -0.9106 -0.8559
14096TIP3    H263704   2.154   5.690  13.407  0.7526  0.3123  1.0432
14097TIP3   OH263705   1.729   5.513  10.561  0.8864  0.3798 -0.3451
14097TIP3    H163706   1.712   5.423  10.533  0.5124  0.7647 -1.3476
14097TIP3    H263707   1.820   5.511  10.591  1.2842 -0.0366 -1.5667
14098TIP3   OH263708   3.607   5.796  16.706 -0.4567 -0.2821  0.1088
14098TIP3    H163709   3.639   5.749  16.783 -0.9672  0.5224  0.8227
14098TIP3    H263710   3.631   5.887  16.723  1.0980 -0.3586 -1.5470
14099TIP3   OH263711   4.587   0.451  12.580  0.2774 -0.5288  0.1413
14099TIP3    H163712   4.677   0.442  12.611  0.7116  1.3546 -0.5145
14099TIP3    H263713   4.570   0.545  12.582 -1.5704 -0.8371 -0.0659
14100TIP3   OH263714   1.904   0.446  12.200 -0.1787  0.1032  0.4868
14100TIP3    H163715   1.964   0.409  12.265  1.4739 -1.3551 -1.7415
14100TIP3    H263716   1.957   0.512  12.154 -1.5462  1.6333  1.0700
14101TIP3   OH263717   5.655   5.828  15.094 -0.1310  0.4745  0.3148
14101TIP3    H163718   5.657   5.887  15.018 -0.1283  1.0339  0.7507
14101TIP3    H263719   5.589   5.865  15.151 -0.3282 -0.1077  0.4654
14102TIP3   OH263720   2.324   5.554   5.282  0.4177 -0.6585  0.0539
14102TIP3    H163721   2.260   5.606   5.331 -0.7160 -1.2047 -0.8179
14102TIP3    H263722   2.378   5.619   5.238  0.2102 -0.1931  0.4722
14103TIP3   OH263723   3.529   5.607   3.549 -0.1822 -0.1465 -0.4287
14103TIP3    H163724   3.596   5.574   3.608 -1.4778  0.6783  1.5657
14103TIP3    H263725   3.505   5.532   3.495  0.3271 -1.1793  0.7695
14104TIP3   OH263726   2.697   3.531   2.817 -0.1875  0.1978  0.4056
14104TIP3    H163727   2.769   3.493   2.867  0.2746  1.9369  1.1079
14104TIP3    H263728   2.690   3.476   2.740  0.4824 -1.2747  1.3709
14105TIP3   OH263729   0.768   5.088   0.335  0.2221 -0.8837 -0.1320
14105TIP3    H163730   0.808   5.144   0.402  0.2174 -0.4264 -0.5133
14105TIP3    H263731   0.721   5.149   0.278 -2.7040 -1.5494  1.4379
14106TIP3   OH263732   5.723   0.727  15.411 -0.3911 -0.6432  0.5350
14106TIP3    H163733   5.693   0.728  15.320  0.4702  2.0580  0.2503
14106TIP3    H263734   5.817   0.740  15.406 -0.2987 -0.7103  1.8251
14107TIP3   OH263735   2.002   5.212   2.426 -0.4426  1.1375  0.0226
14107TIP3    H163736   2.048   5.284   2.383 -0.7304  2.0759  1.2446
14107TIP3    H263737   2.070   5.163   2.471 -0.2868  0.8247 -0.5476
14108TIP3   OH263738   1.716   1.138  17.057 -0.2514 -0.1258  0.1229
14108TIP3    H163739   1.703   1.161  17.149 -2.0165 -1.6141  0.2834
14108TIP3    H263740   1.710   1.043  17.054  2.1518 -0.2789 -1.2129
14109TIP3   OH263741   4.705   3.443  13.665 -0.1539 -0.5817 -0.1738
14109TIP3    H163742   4.692   3.532  13.697 -0.7006 -0.0525 -1.8422
14109TIP3    H263743   4.674   3.445  13.575  1.8477 -1.9229 -0.9239
14110TIP3   OH263744   1.078   4.368  12.878  0.0744  0.0913 -0.5130
14110TIP3    H163745   1.144   4.314  12.921 -0.5510 -0.9935 -0.8919
14110TIP3    H263746   1.124   4.448  12.853  0.7426  0.2013  1.0382
14111TIP3   OH263747   4.059   2.135  14.242 -0.1304  0.1843  0.4113
14111TIP3    H163748   4.094   2.224  14.245 -0.9048  0.5055 -0.0010
14111TIP3    H263749   4.041   2.120  14.149 -1.4056  0.1483  0.6629
14112TIP3   OH263750   5.465   6.083   3.230 -0.1399  0.3860  0.3321
14112TIP3    H163751   5.520   6.034   3.169 -0.3366 -1.1576  1.3902
14112TIP3    H263752   5.512   6.079   3.313 -1.7959 -0.8535  1.2218
14113TIP3   OH263753   0.561   1.692  15.215 -0.3196  0.0438 -0.5794
14113TIP3    H163754   0.478   1.722  15.177 -1.4939 -1.4062  0.8139
14113TIP3    H263755   0.606   1.650  15.142 -1.4779 -0.5379 -0.9718
14114TIP3   OH263756   5.127   0.115  14.453  0.5067  0.4214 -0.3507
14114TIP3    H163757   5.082   0.031  14.463  0.7076  0.3044 -0.4373
14114TIP3    H263758   5.111   0.161  14.536 -1.2588  1.0865 -1.0363
14115TIP3   OH263759   0.282   4.347  15.482 -0.4265 -0.1895 -0.2474
14115TIP3    H163760   0.311   4.438  15.490 -2.7935  0.5886 -0.1051
14115TIP3    H263761   0.304   4.307  15.566  0.5326  0.2740 -0.2684
14116TIP3   OH263762   1.241   6.704   4.306 -0.1039  0.1403  0.5204
14116TIP3    H163763   1.174   6.636   4.298 -0.5949  0.3971  2.2576
14116TIP3    H263764   1.255   6.713   4.400  2.5258 -0.0334  0.1842
14117TIP3   OH263765   1.761   0.409   5.838  0.6727  0.0310  0.1314
14117TIP3    H163766   1.754   0.495   5.880  0.3542 -0.1301  0.4083
14117TIP3    H263767   1.677   0.367   5.854  0.6586 -0.1555 -0.4093
14118TIP3   OH263768   1.244   4.315   0.550 -0.1843  0.1061  0.0070
14118TIP3    H163769   1.293   4.256   0.607 -0.3856  1.8744  2.1172
14118TIP3    H263770   1.303   4.389   0.535  0.3435 -0.8872 -3.1886
14119TIP3   OH263771   4.985   4.673  12.737 -0.8736  0.2041  0.5698
14119TIP3    H163772   5.026   4.602  12.786 -0.3474  0.1988  0.1260
14119TIP3    H263773   5.054   4.739  12.728 -0.1624 -0.8569 -2.3526
14120TIP3   OH263774   1.351   0.956   1.951 -0.4456 -0.4036  0.0529
14120TIP3    H163775   1.426   1.016   1.940 -0.5729 -0.3091 -0.2990
14120TIP3    H263776   1.380   0.895   2.018  0.0779 -0.5684 -0.3146
14121TIP3   OH263777   3.242   4.426  12.013 -0.3428 -0.0197 -0.4714
14121TIP3    H163778   3.330   4.405  11.983 -0.1032  1.4653 -0.8041
14121TIP3    H263779   3.193   4.345  11.999  0.7393 -0.5716 -1.1426
14122TIP3   OH263780   0.059   3.177   2.357  0.1777 -0.2731  0.2125
14122TIP3    H163781  -0.026   3.203   2.394  0.4367 -1.5259  1.7600
14122TIP3    H263782   0.088   3.253   2.308 -0.6877  1.0784  1.7471
14123TIP3   OH263783   3.831   6.441   3.716  0.0239 -0.2112  0.1236
14123TIP3    H163784   3.898   6.509   3.709 -0.3972  0.4042  1.8610
14123TIP3    H263785   3.877   6.366   3.752  0.2873 -0.5551 -0.9202
14124TIP3   OH263786   6.259   5.982   2.513  0.2054  0.0396 -0.0350
14124TIP3    H163787   6.273   5.889   2.533  0.4632 -0.0420 -0.6027
14124TIP3    H263788   6.327   6.003   2.448  0.1011  0.6054  0.0415
14125TIP3   OH263789   6.180   0.773   2.945 -0.2573 -0.5388  0.5998
14125TIP3    H163790   6.100   0.761   2.996 -0.9918  1.0020 -0.1579
14125TIP3    H263791   6.251   0.771   3.010 -0.9966 -0.7418  1.4078
14126TIP3   OH263792   5.421   4.696  11.661 -0.1234  0.0837 -0.5271
14126TIP3    H163793   5.480   4.747  11.605 -0.1173  1.8238  1.0154
14126TIP3    H263794   5.415   4.747  11.742 -2.2234 -1.0501  0.0655
14127TIP3   OH263795   1.523   3.947  16.194 -0.1615  0.3868 -0.0150
14127TIP3    H163796   1.535   4.041  16.177  1.0581  0.0850 -0.8980
14127TIP3    H263797   1.488   3.913  16.112  0.3602 -0.0992 -0.0364
14128TIP3   OH263798   1.142   2.030   2.748  0.0657 -0.2930 -0.0494
14128TIP3    H163799   1.133   1.985   2.832  0.0347  0.4865  0.3729
14128TIP3    H263800   1.140   1.960   2.683  1.4783 -1.0386  0.6762
14129TIP3   OH263801   6.282   6.144  15.436 -0.0446  0.0588 -0.1851
14129TIP3    H163802   6.327   6.224  15.411  0.1273  0.0199 -0.0065
14129TIP3    H263803   6.331   6.074  15.392 -0.0354  0.0321 -0.1331
14130TIP3   OH263804   5.542   1.030   2.413  0.3431  0.3117  0.0853
14130TIP3    H163805   5.529   1.035   2.507  1.5415  0.1870  0.2643
14130TIP3    H263806   5.637   1.019   2.402  0.3557  1.4820 -1.1708
14131TIP3   OH263807   2.338   0.874   0.361 -0.1797  0.4848  0.3672
14131TIP3    H163808   2.416   0.845   0.410 -0.1261 -1.1328 -0.6319
14131TIP3    H263809   2.267   0.873   0.425 -0.0313 -1.2619  0.5251
14132TIP3   OH263810   6.748   3.063   4.996 -0.3560 -0.3590 -0.0222
14132TIP3    H163811   6.667   3.068   5.046  0.1743  2.9166  0.6624
14132TIP3    H263812   6.816   3.045   5.061 -0.1965 -0.2588 -0.1587
14133TIP3   OH263813   4.860   2.483  10.431 -0.0933 -0.3977 -0.4745
14133TIP3    H163814   4.943   2.462  10.388 -0.7097 -0.9705 -1.3843
14133TIP3    H263815   4.832   2.402  10.472 -1.7896 -1.0557 -2.8519
14134TIP3   OH263816   2.305   2.179   0.799  0.5114  0.7987  0.5983
14134TIP3    H163817   2.275   2.124   0.871 -1.2072  1.3019  0.2883
14134TIP3    H263818   2.251   2.258   0.806 -0.3249  0.4658 -1.8054
14135TIP3   OH263819   4.010   6.157  11.093  0.3437  0.1411 -0.2805
14135TIP3    H163820   3.925   6.189  11.066 -0.7765 -0.1512  2.7046
14135TIP3    H263821   4.019   6.185  11.185  3.1725 -0.3686 -0.3324
14136TIP3   OH263822   5.759   3.369   0.672 -0.0357  0.0808 -0.0872
14136TIP3    H163823   5.816   3.343   0.744 -0.2259  0.3375  0.1562
14136TIP3    H263824   5.680   3.402   0.714 -0.4677 -0.4994 -0.4299
14137TIP3   OH263825   6.772   2.714   4.148 -0.2894 -0.3503  0.9582
14137TIP3    H163826   6.750   2.695   4.057 -1.0343  1.5049  0.7472
14137TIP3    H263827   6.808   2.631   4.181  2.0118 -0.4230 -1.6216
14138TIP3   OH263828   0.121   3.282  11.566 -0.4600  0.2612  0.4785
14138TIP3    H163829   0.216   3.282  11.564 -0.4703  1.4358 -1.1403
14138TIP3    H263830   0.098   3.294  11.658  0.9497  0.0467  0.8566
14139TIP3   OH263831   1.347   0.223  12.257  0.2115  0.0977  0.4656
14139TIP3    H163832   1.259   0.255  12.276  0.4321  0.1727  1.3871
14139TIP3    H263833   1.333   0.149  12.198 -0.4578  0.2244  0.4586
14140TIP3   OH263834   1.360   0.542   1.036 -0.2519  0.1236  0.1352
14140TIP3    H163835   1.395   0.575   0.954 -0.4423 -0.1654 -0.0651
14140TIP3    H263836   1.266   0.554   1.029 -0.3736 -0.9481 -0.1664
14141TIP3   OH263837   5.516   2.656  11.082 -0.2798  0.2188 -0.3697
14141TIP3    H163838   5.484   2.641  11.171  0.2317  1.8916  0.1199
14141TIP3    H263839   5.463   2.729  11.050 -0.3840 -0.2988 -1.4056
14142TIP3   OH263840   5.119   5.509   0.633 -0.1124  0.0453  0.0808
14142TIP3    H163841   5.165   5.444   0.581  0.2899  2.4204 -2.6325
14142TIP3    H263842   5.176   5.523   0.709  0.5841 -1.5513 -0.1413
14143TIP3   OH263843   2.160   1.369  15.127 -0.0684  0.6709  0.0116
14143TIP3    H163844   2.155   1.328  15.041  0.7943  0.5358  0.0143
14143TIP3    H263845   2.120   1.306  15.187  0.1258  0.3777 -0.1656
14144TIP3   OH263846   4.742   6.580   3.253  0.4796 -0.0770 -0.2936
14144TIP3    H163847   4.704   6.494   3.242  1.8486 -0.8605  0.9301
14144TIP3    H263848   4.792   6.595   3.173 -0.6724  0.0789 -0.9941
14145TIP3   OH263849   4.071   5.250   1.994  0.3886 -0.0228 -0.2143
14145TIP3    H163850   4.012   5.302   1.941  1.0571  1.3216  0.3288
14145TIP3    H263851   4.032   5.252   2.082  0.1244 -0.9024 -0.3102
14146TIP3   OH263852   5.606   0.192  11.797 -0.2071  0.1397 -0.1564
14146TIP3    H163853   5.625   0.260  11.733 -1.7366  1.6111  0.8965
14146TIP3    H263854   5.655   0.218  11.875  0.5899 -0.9203 -0.2973
14147TIP3   OH263855   2.489   3.692  17.016  0.4521 -0.2579 -0.1982
14147TIP3    H163856   2.567   3.739  16.989  0.1535 -0.1797 -0.9196
14147TIP3    H263857   2.480   3.713  17.109  1.8882 -1.1241  0.1527
14148TIP3   OH263858   2.871   0.806   5.207 -0.5715 -0.0860  0.2773
14148TIP3    H163859   2.889   0.828   5.299 -1.7869 -1.4977  0.8763
14148TIP3    H263860   2.781   0.774   5.207 -1.0084  1.0502 -1.6338
14149TIP3   OH263861   6.423   3.488   6.287 -0.1658 -0.0595  0.0666
14149TIP3    H163862   6.341   3.480   6.334  0.7190  1.6425  1.9700
14149TIP3    H263863   6.488   3.450   6.346  0.6232 -0.0696 -0.7967
14150TIP3   OH263864   0.851   3.306   0.353 -0.4081  0.3777 -0.0978
14150TIP3    H163865   0.855   3.382   0.296  0.6977  1.6256  1.5907
14150TIP3    H263866   0.849   3.342   0.442  2.3675 -1.5873  0.8344
14151TIP3   OH263867   3.381   3.500   0.495 -0.1447  0.9103 -0.3762
14151TIP3    H163868   3.400   3.424   0.550  0.8446  1.3976 -0.0261
14151TIP3    H263869   3.390   3.575   0.554 -1.3584  1.2780 -0.6633
14152TIP3   OH263870   1.352   3.623  12.985 -0.4238 -0.4967  0.2718
14152TIP3    H163871   1.396   3.549  13.028 -1.3998 -2.3691 -1.7836
14152TIP3    H263872   1.277   3.583  12.940 -0.9058  1.7405 -0.9978
14153TIP3   OH263873   1.512   0.939  12.962 -0.1541 -0.0226  0.4342
14153TIP3    H163874   1.596   0.915  12.925  0.1541 -0.3867  1.3459
14153TIP3    H263875   1.483   0.860  13.009 -1.8278 -0.4983 -1.3456
14154TIP3   OH263876   5.437   5.049  12.234  0.2481  0.5056  1.0378
14154TIP3    H163877   5.472   5.042  12.323  0.0848  0.9286  1.1329
14154TIP3    H263878   5.362   4.989  12.233  0.2246  0.5324  1.1947
14155TIP3   OH263879   1.104   2.062  16.755  0.4292  0.2980  0.2339
14155TIP3    H163880   1.120   2.156  16.761  1.7403  0.0460  0.8296
14155TIP3    H263881   1.010   2.055  16.737  0.2411  1.6989  0.6003
14156TIP3   OH263882   4.815   2.882  12.357  0.6416 -0.1656 -0.0439
14156TIP3    H163883   4.782   2.935  12.430 -0.0858  0.4390 -0.7942
14156TIP3    H263884   4.901   2.852  12.386 -0.6069 -1.8900  2.0237
14157TIP3   OH263885   4.308   4.236   4.256  0.6404 -0.2843 -0.1318
14157TIP3    H163886   4.268   4.219   4.341 -0.7919 -0.9671 -0.9235
14157TIP3    H263887   4.378   4.171   4.249  0.1541 -0.8434  0.1347
14158TIP3   OH263888   2.422   0.253   4.181 -0.1481 -0.6643  1.1218
14158TIP3    H163889   2.366   0.323   4.214 -1.5706 -0.1473 -2.1566
14158TIP3    H263890   2.510   0.292   4.178 -0.5676  0.2923  1.2229
14159TIP3   OH263891   4.996   3.254   5.296  0.1342  0.7906  0.2866
14159TIP3    H163892   4.938   3.298   5.359 -2.1626 -2.5018  0.5911
14159TIP3    H263893   4.954   3.269   5.211 -0.3312 -0.2448  0.3256
14160TIP3   OH263894   3.840   4.549   6.037  0.5431  0.0805 -0.6494
14160TIP3    H163895   3.780   4.481   6.007  0.8886 -0.1817 -0.7551
14160TIP3    H263896   3.784   4.618   6.071  0.2053 -0.5985  0.1988
14161TIP3   OH263897   0.411   1.166  16.113  0.1481  0.0916  0.5601
14161TIP3    H163898   0.373   1.079  16.116  4.0486 -1.7233  1.4990
14161TIP3    H263899   0.411   1.195  16.205 -1.1764  1.1383  0.2461
14162TIP3   OH263900   5.190   1.412  14.575 -0.1509  0.6443 -0.2192
14162TIP3    H163901   5.257   1.463  14.530  1.1633 -0.2104  0.7432
14162TIP3    H263902   5.116   1.411  14.515  0.7239  1.5310 -1.3266
14163TIP3   OH263903   4.736   5.343   4.538  0.1904  0.1752 -0.1359
14163TIP3    H163904   4.745   5.377   4.627 -1.6046 -0.4152  0.2847
14163TIP3    H263905   4.804   5.276   4.531 -0.5305 -0.7349  1.2626
14164TIP3   OH263906   0.590   6.694   2.054 -0.2134  0.6411  0.4555
14164TIP3    H163907   0.584   6.614   2.105 -0.8474  0.1840 -0.3306
14164TIP3    H263908   0.628   6.666   1.970  0.2321  1.2763  0.4388
14165TIP3   OH263909   2.735   6.423   6.621 -0.4483 -0.1834  0.3208
14165TIP3    H163910   2.650   6.389   6.647  0.1150 -1.3665  0.6266
14165TIP3    H263911   2.741   6.405   6.527 -0.3050 -0.5979  0.4092
14166TIP3   OH263912   4.613   5.883   4.992  0.2254  0.4524  0.1644
14166TIP3    H163913   4.587   5.796   4.960  0.7994  0.4725 -0.3587
14166TIP3    H263914   4.672   5.865   5.065  0.7658  0.3999 -0.2841
14167TIP3   OH263915   3.533   2.969   5.991  0.3475  0.4182 -0.2486
14167TIP3    H163916   3.444   2.935   5.987  1.2681 -1.9914 -1.2352
14167TIP3    H263917   3.558   2.982   5.900  2.0095 -1.7039 -0.1203
14168TIP3   OH263918   0.780   5.677   0.348  0.0918  0.1684  0.7800
14168TIP3    H163919   0.845   5.695   0.280 -0.3158 -1.6397 -0.1071
14168TIP3    H263920   0.829   5.680   0.430  0.6565  2.0387  0.4064
14169TIP3   OH263921   3.771   5.629  16.280 -0.5799 -0.4404  0.2005
14169TIP3    H163922   3.860   5.637  16.245  0.4828 -2.6265  2.1775
14169TIP3    H263923   3.719   5.597  16.207  0.2444  0.9332 -1.0038
14170TIP3   OH263924   5.575   3.440  14.726  0.1451 -0.1561  0.2397
14170TIP3    H163925   5.484   3.460  14.748 -0.2766 -0.6194 -1.0448
14170TIP3    H263926   5.616   3.526  14.717 -0.8547  0.1344 -1.9359
14171TIP3   OH263927   6.079   0.928   5.122  0.0124 -0.7026 -0.3827
14171TIP3    H163928   6.053   1.011   5.082  1.5510  0.4906  1.0106
14171TIP3    H263929   6.068   0.943   5.216 -0.9467 -2.5289 -0.1867
14172TIP3   OH263930   3.806   1.108  15.571 -0.6313  0.9812 -0.3297
14172TIP3    H163931   3.737   1.159  15.613 -0.2747  2.6364 -1.7289
14172TIP3    H263932   3.770   1.020  15.564 -2.6379  1.8334 -1.0499
14173TIP3   OH263933   1.781   6.041   1.890 -0.1526  0.2132  0.6413
14173TIP3    H163934   1.842   5.983   1.844 -0.6372  0.0192  0.2461
14173TIP3    H263935   1.755   6.106   1.824 -0.4667  0.2236  0.7754
14174TIP3   OH263936   5.234   0.532   5.589 -0.3472  0.4256  0.0698
14174TIP3    H163937   5.150   0.491   5.607 -0.6002  1.5877  1.6435
14174TIP3    H263938   5.256   0.503   5.500 -0.8677 -2.4477  0.8181
14175TIP3   OH263939   4.208   5.484  17.069  0.1008  0.3140 -0.6337
14175TIP3    H163940   4.166   5.475  16.983  1.6262  1.6535 -1.5629
14175TIP3    H263941   4.187   5.574  17.096  0.8154  0.3716 -0.2653
14176TIP3   OH263942   1.183   3.883  13.654 -0.0180  0.0169 -0.5100
14176TIP3    H163943   1.122   3.957  13.649  0.9550  0.8977  0.4598
14176TIP3    H263944   1.202   3.860  13.563 -2.6612 -1.0031 -0.8656
14177TIP3   OH263945   0.684   2.407   3.486 -0.0514 -0.1014 -0.3036
14177TIP3    H163946   0.680   2.426   3.392  1.4005  2.1997  0.0668
14177TIP3    H263947   0.756   2.460   3.518 -0.8742 -0.4620  2.2376
14178TIP3   OH263948   1.481   5.123  11.218 -0.2612 -0.3571  0.1736
14178TIP3    H163949   1.525   5.202  11.248 -0.7572  0.0270 -0.1092
14178TIP3    H263950   1.440   5.086  11.296 -1.0836  0.3387  0.0644
14179TIP3   OH263951   5.067   6.212   0.816 -0.1064  0.5937  0.2583
14179TIP3    H163952   5.121   6.250   0.746 -0.1510  0.2206  0.0232
14179TIP3    H263953   5.002   6.159   0.770 -0.4096  0.6999  0.5621
14180TIP3   OH263954   3.935   2.499  14.982 -0.2835  0.1714 -0.0301
14180TIP3    H163955   3.936   2.594  14.988 -1.4269  0.0894  1.7898
14180TIP3    H263956   3.843   2.475  14.984 -0.0568 -0.9146 -1.7369
14181TIP3   OH263957   1.986   0.163   0.797 -0.0403  0.0614  0.0415
14181TIP3    H163958   1.982   0.135   0.705  0.5937  1.8464 -0.5472
14181TIP3    H263959   2.068   0.126   0.829 -0.3531 -0.7259 -0.0548
14182TIP3   OH263960   1.538   2.983  11.716 -0.1520 -0.1499  0.2886
14182TIP3    H163961   1.465   3.022  11.668  1.7010  3.2974  0.0872
14182TIP3    H263962   1.615   3.000  11.661  1.2600 -0.7684  2.0150
14183TIP3   OH263963   2.485   4.507   0.139  0.0108  0.0892  0.0049
14183TIP3    H163964   2.410   4.562   0.164 -0.2817 -0.7535  1.0047
14183TIP3    H263965   2.526   4.555   0.067 -1.2926  0.7322 -0.3384
14184TIP3   OH263966   5.558   0.954   3.702  0.0427  0.0715 -0.7343
14184TIP3    H163967   5.500   0.892   3.658  0.0395  0.6601 -1.5642
14184TIP3    H263968   5.632   0.901   3.731  0.3987 -0.1860 -2.0949
14185TIP3   OH263969   1.074   5.612   6.724  0.1675 -0.2035  0.4013
14185TIP3    H163970   1.041   5.596   6.636  1.9796  0.0219 -0.3409
14185TIP3    H263971   1.058   5.705   6.740  0.7431 -0.0176 -0.0896
14186TIP3   OH263972   0.684   0.010   0.132  0.0351 -0.4104  0.1949
14186TIP3    H163973   0.609  -0.042   0.102  0.4886 -0.4047 -0.9952
14186TIP3    H263974   0.655   0.101   0.126  0.1554 -0.4053 -0.3244
14187TIP3   OH263975   4.445   5.782  13.867 -0.3785  0.0414 -0.1782
14187TIP3    H163976   4.390   5.762  13.943  1.4842 -1.6808  0.7776
14187TIP3    H263977   4.496   5.859  13.894  2.1750 -2.1067  1.4143
14188TIP3   OH263978   6.125   3.216   4.341  0.0242  0.0087 -0.2324
14188TIP3    H163979   6.095   3.128   4.365 -0.1568  0.3163  0.6854
14188TIP3    H263980   6.058   3.249   4.281 -0.0055 -0.3973 -0.4273
14189TIP3   OH263981   5.574   1.222   5.625  0.1069 -0.8814 -0.5214
14189TIP3    H163982   5.640   1.229   5.555  0.0190  0.7444 -0.4557
14189TIP3    H263983   5.505   1.283   5.599  0.6974  0.7414  1.6529
14190TIP3   OH263984   6.361   5.763   2.156 -1.1142 -0.4605 -0.4198
14190TIP3    H163985   6.293   5.762   2.089 -0.9543  1.5730 -0.6443
14190TIP3    H263986   6.374   5.855   2.176  1.9969 -0.7519 -0.8280
14191TIP3   OH263987   1.228   1.489   5.156 -0.0538  0.3344  0.1512
14191TIP3    H163988   1.216   1.396   5.174 -0.4782  0.0059 -1.7230
14191TIP3    H263989   1.308   1.493   5.103 -0.5004  0.9279 -0.4929
14192TIP3   OH263990   0.516   4.130   3.550  0.0575  0.4571  0.3674
14192TIP3    H163991   0.563   4.192   3.606 -0.6653  1.1087  0.2584
14192TIP3    H263992   0.533   4.160   3.461  0.8846 -0.3492  0.2450
14193TIP3   OH263993   1.066   2.082  14.295  0.7279 -0.2762  0.1561
14193TIP3    H163994   1.048   2.024  14.369  0.5777  0.1971  0.4879
14193TIP3    H263995   0.982   2.087  14.248  0.5950  0.1066  0.4321
14194TIP3   OH263996   2.127   5.949  16.872 -0.2301 -0.4229 -0.4382
14194TIP3    H163997   2.106   6.038  16.845  0.0236  0.2902  1.6241
14194TIP3    H263998   2.215   5.954  16.908 -0.2604 -1.4727 -0.1879
14195TIP3   OH263999   3.145   6.375   2.158  0.4627  0.2131 -0.1427
14195TIP3    H164000   3.177   6.437   2.224  0.2512  0.5947 -0.3999
14195TIP3    H264001   3.131   6.294   2.207  1.3679  0.1765  0.0696
14196TIP3   OH264002   3.118   1.418   0.557  0.4782 -0.3973  0.9369
14196TIP3    H164003   3.175   1.495   0.551  1.5324 -1.3694 -2.9364
14196TIP3    H264004   3.042   1.440   0.504  0.3334 -1.6189  0.6154
14197TIP3   OH264005   0.086   6.683  13.299  0.0438 -0.0854  0.5769
14197TIP3    H164006  -0.005   6.689  13.270  0.0117 -0.7163  0.5477
14197TIP3    H264007   0.081   6.675  13.395 -0.0192 -2.1165  0.4213
14198TIP3   OH264008   2.542   1.720  14.393 -0.1098 -0.0744 -0.2816
14198TIP3    H164009   2.457   1.762  14.379  0.2679  0.7597 -0.0673
14198TIP3    H264010   2.587   1.776  14.457  0.7648 -0.2889 -0.6971
14199TIP3   OH264011   0.093   6.027   5.902  0.2892  0.0164 -0.3877
14199TIP3    H164012   0.122   5.991   5.986 -0.3306 -0.3408 -0.3222
14199TIP3    H264013   0.005   5.991   5.890 -0.1029  1.0396 -0.6091
14200TIP3   OH264014   1.290   3.287   2.262 -0.0290  0.5384 -0.3745
14200TIP3    H164015   1.243   3.263   2.342  1.2510 -0.9901 -0.0592
14200TIP3    H264016   1.368   3.232   2.263  0.4976  1.2305 -2.1818
14201TIP3   OH264017   0.185   5.960   5.151 -0.5050 -0.3061 -0.0518
14201TIP3    H164018   0.090   5.964   5.166 -0.2612  2.7950  0.9233
14201TIP3    H264019   0.222   6.013   5.221  2.0732 -2.3475  0.2014
14202TIP3   OH264020   3.371   3.121   4.282  0.3231  0.1755  0.1251
14202TIP3    H164021   3.294   3.111   4.338  0.0581  1.4099 -0.0223
14202TIP3    H264022   3.412   3.034   4.283 -0.6454 -0.2835  0.8121
14203TIP3   OH264023   2.924   1.168  13.331  0.3866 -0.0815 -0.6083
14203TIP3    H164024   2.979   1.199  13.260  1.1057  2.0921  0.8456
14203TIP3    H264025   2.912   1.245  13.387 -0.3270 -1.6936  1.5037
14204TIP3   OH264026   6.155   6.583  14.702  0.1938  0.2067 -0.2093
14204TIP3    H164027   6.206   6.613  14.777  2.2826 -0.1554 -1.4422
14204TIP3    H264028   6.138   6.490  14.720  0.4621  0.1853 -0.0673
14205TIP3   OH264029   6.495   6.105   5.011 -0.1856 -0.1749 -0.1362
14205TIP3    H164030   6.519   6.014   5.023 -2.1756 -0.8347 -0.9551
14205TIP3    H264031   6.554   6.137   4.942  1.0838 -0.5924  0.7552
14206TIP3   OH264032   2.671   0.510  12.425 -0.0355 -0.5089 -0.0756
14206TIP3    H164033   2.657   0.604  12.412 -0.5505 -0.2787  1.8971
14206TIP3    H264034   2.617   0.468  12.358 -0.4674  0.5945 -0.4266
14207TIP3   OH264035   1.650   1.047  11.390  0.7906  0.0296 -0.0952
14207TIP3    H164036   1.635   1.016  11.480  1.4672 -0.1449 -0.0376
14207TIP3    H264037   1.606   0.982  11.335 -0.0011  0.3755  0.1235
14208TIP3   OH264038   0.274   4.583  13.781  0.0156 -0.1126  0.2380
14208TIP3    H164039   0.203   4.637  13.816 -0.9076 -1.9478  1.3249
14208TIP3    H264040   0.337   4.576  13.853  0.2631 -0.2492  0.0102
14209TIP3   OH264041   0.737   1.043   4.153 -0.4421  0.6227  0.1838
14209TIP3    H164042   0.738   0.962   4.204 -1.9320  0.8508  0.5791
14209TIP3    H264043   0.750   1.112   4.217 -3.4124  0.9915  0.4474
14210TIP3   OH264044   6.208   0.940  12.733  0.9308 -0.1305  0.1770
14210TIP3    H164045   6.206   1.036  12.738  1.2205 -0.0452 -1.1240
14210TIP3    H264046   6.276   0.915  12.796 -1.2397  0.3089  2.7851
14211TIP3   OH264047   2.173   3.969  13.525  0.2775 -0.2969 -0.4134
14211TIP3    H164048   2.240   3.971  13.456  0.4612 -0.1555 -0.2320
14211TIP3    H264049   2.218   3.930  13.600 -0.4223 -2.0915 -0.9040
14212TIP3   OH264050   4.137   0.719   5.172  0.2031 -0.8360  0.1968
14212TIP3    H164051   4.056   0.735   5.220  0.2400 -0.2531  0.0655
14212TIP3    H264052   4.109   0.685   5.087  0.0856 -0.3175  0.0279
14213TIP3   OH264053   4.458   2.593   2.363 -0.4228  0.5325  0.3550
14213TIP3    H164054   4.391   2.659   2.381 -0.1781  0.2578  2.3591
14213TIP3    H264055   4.517   2.635   2.301 -0.0307  2.3772  1.9498
14214TIP3   OH264056   6.748   1.137   2.642 -0.6681 -0.2970 -0.1032
14214TIP3    H164057   6.685   1.193   2.688 -0.9559 -0.7470  0.0538
14214TIP3    H264058   6.749   1.169   2.552 -0.2946  0.4273  0.1609
14215TIP3   OH264059   4.190   6.479  10.617  0.1186  0.5504 -0.5462
14215TIP3    H164060   4.275   6.518  10.636 -0.0405  0.5582  0.1803
14215TIP3    H264061   4.169   6.429  10.696  0.8085 -1.8919 -1.8540
14216TIP3   OH264062   1.843   0.780   0.418 -0.1084 -0.3374 -0.0563
14216TIP3    H164063   1.920   0.750   0.466 -0.1944 -0.0081  0.2887
14216TIP3    H264064   1.794   0.700   0.399  1.3692 -0.7798 -2.1339
14217TIP3   OH264065   3.058   1.195   2.034 -0.0873 -0.2536 -0.2756
14217TIP3    H164066   3.150   1.170   2.043 -0.0130 -0.3512 -1.2039
14217TIP3    H264067   3.023   1.134   1.969 -0.9445 -0.5558  0.4692
14218TIP3   OH264068   1.094   3.832  16.023  0.3993 -0.3019  0.1475
14218TIP3    H164069   1.134   3.748  16.001 -0.8962 -0.8435 -0.2066
14218TIP3    H264070   1.001   3.820  16.002 -0.0010  0.8137  1.2408
14219TIP3   OH264071   0.498   3.902   1.327 -0.0113  0.0246 -0.0677
14219TIP3    H164072   0.580   3.911   1.376 -0.9315  0.9986  1.3093
14219TIP3    H264073   0.477   3.990   1.297 -1.6818  0.1537  1.4321
14220TIP3   OH264074   6.226   4.594   2.044 -0.2737  0.6556  0.0578
14220TIP3    H164075   6.254   4.540   1.970  0.4739  1.9919 -0.6425
14220TIP3    H264076   6.271   4.678   2.032 -1.2459  1.3728  1.2535
14221TIP3   OH264077   6.378   1.262  15.605  0.1133 -0.4256 -0.4086
14221TIP3    H164078   6.426   1.306  15.675  0.6319 -0.6903 -0.5935
14221TIP3    H264079   6.316   1.205  15.650 -0.5179  0.4462 -0.1666
14222TIP3   OH264080   1.329   4.068   4.440 -0.0049 -0.4329 -0.4875
14222TIP3    H164081   1.293   4.073   4.351 -0.5114 -0.7916 -0.3026
14222TIP3    H264082   1.352   4.158   4.461  2.2523 -0.6471 -1.8666
14223TIP3   OH264083   6.419   0.824   3.103 -0.1651  0.2757  0.1169
14223TIP3    H164084   6.354   0.838   3.172  0.8913 -0.2927  1.2494
14223TIP3    H264085   6.443   0.731   3.110  1.4573  0.6901  0.3533
14224TIP3   OH264086   4.640   3.355  12.408 -0.0258  0.2491 -0.1378
14224TIP3    H164087   4.547   3.369  12.396  0.3457  0.8930 -2.3733
14224TIP3    H264088   4.677   3.356  12.320  2.0737 -0.1092  0.7009
14225TIP3   OH264089   0.315   6.521  13.213 -0.2913 -0.3341  0.4331
14225TIP3    H164090   0.235   6.569  13.233  0.3783  1.4207 -0.8661
14225TIP3    H264091   0.288   6.430  13.201 -1.9770  0.1286  0.6803
14226TIP3   OH264092   6.218   5.177   3.789  0.0647  0.5391  0.2847
14226TIP3    H164093   6.196   5.139   3.874  0.5256 -0.7888 -0.1755
14226TIP3    H264094   6.144   5.234   3.769 -1.1293 -0.8909  0.5446
14227TIP3   OH264095   2.297   5.385  13.133  0.6246 -0.2826  0.0138
14227TIP3    H164096   2.207   5.382  13.167  0.5370  0.3538 -0.1419
14227TIP3    H264097   2.350   5.407  13.209  0.4235  1.1894 -0.2427
14228TIP3   OH264098   0.502   3.330   3.405  0.7063  0.8203  0.5051
14228TIP3    H164099   0.566   3.291   3.465  0.8577  0.0791 -0.1334
14228TIP3    H264100   0.476   3.411   3.448  2.5277  1.4361  0.5198
14229TIP3   OH264101   0.948   2.148  13.632 -0.3178  0.0473  0.3726
14229TIP3    H164102   1.037   2.174  13.659  0.1592 -1.2267  0.0435
14229TIP3    H264103   0.959   2.062  13.594 -1.3470  0.9060 -1.9212
14230TIP3   OH264104   1.439   0.120  15.469  0.7016 -0.1565 -0.0902
14230TIP3    H164105   1.478   0.033  15.454 -2.6568 -1.7606 -0.0817
14230TIP3    H264106   1.448   0.135  15.563  0.8933 -0.7159 -0.0163
14231TIP3   OH264107   0.474   4.547   0.528 -0.0602 -0.0250 -0.1349
14231TIP3    H164108   0.459   4.530   0.621  0.2402 -0.6164 -0.1959
14231TIP3    H264109   0.562   4.514   0.510  0.1324  0.6493 -0.4908
14232TIP3   OH264110   2.950   6.014  10.864 -0.0404  0.2244  0.1727
14232TIP3    H164111   2.907   5.936  10.829 -0.6734  1.2258 -1.3614
14232TIP3    H264112   3.020   5.981  10.919  0.0641 -1.4306 -0.9272
14233TIP3   OH264113   0.274   6.011   2.950  0.2433 -0.1170  0.3728
14233TIP3    H164114   0.342   5.947   2.931  0.1293  0.0996 -0.8339
14233TIP3    H264115   0.200   5.959   2.983 -0.4836 -0.8372 -2.2628
14234TIP3   OH264116   6.472   3.491  13.629  0.2684  0.0523  0.5570
14234TIP3    H164117   6.427   3.413  13.660  0.8187 -0.3105  0.4562
14234TIP3    H264118   6.564   3.465  13.624  0.7825  1.4023  2.7159
14235TIP3   OH264119   2.924   0.870  14.219 -0.8754  0.2346 -0.0179
14235TIP3    H164120   2.923   0.964  14.237 -2.1289  0.3113 -0.4683
14235TIP3    H264121   2.922   0.829  14.305  1.6381  0.5924  0.2722
14236TIP3   OH264122   3.990   5.124  16.092 -0.4027  0.2707 -0.1895
14236TIP3    H164123   3.988   5.167  16.006 -0.6752  0.4911 -0.0748
14236TIP3    H264124   3.932   5.178  16.147 -1.0735 -0.4873 -0.1553
14237TIP3   OH264125   6.468   1.856  14.103  0.6189  0.0319 -0.5342
14237TIP3    H164126   6.444   1.787  14.041 -0.0316  0.4014 -0.7003
14237TIP3    H264127   6.490   1.809  14.183 -1.2776 -0.3169 -0.1798
14238TIP3   OH264128   3.909   4.281  14.768  0.1605 -0.4175  0.2612
14238TIP3    H164129   3.843   4.217  14.741 -0.7872 -0.0449  1.6475
14238TIP3    H264130   3.897   4.290  14.862  1.1345  0.8548  0.2785
14239TIP3   OH264131   0.334   5.681   5.501  0.0503 -1.3924 -0.1456
14239TIP3    H164132   0.376   5.713   5.422 -2.7988  0.8765 -0.8037
14239TIP3    H264133   0.388   5.715   5.573 -0.6057  1.5036 -0.9725
14240TIP3   OH264134   4.286   5.818   4.375 -0.1900 -0.1063  0.3307
14240TIP3    H164135   4.281   5.744   4.435 -0.3838 -1.5292 -1.4156
14240TIP3    H264136   4.371   5.858   4.394 -0.1482 -0.6811  1.3778
14241TIP3   OH264137   1.201   3.880   0.860 -0.0122  0.1184 -0.5160
14241TIP3    H164138   1.134   3.947   0.841  0.2354  0.5216  0.0129
14241TIP3    H264139   1.158   3.822   0.923 -0.6211 -0.8715 -1.8256
14242TIP3   OH264140   0.001   5.807   0.368 -0.3497 -0.6199 -0.1547
14242TIP3    H164141   0.075   5.859   0.398 -0.1034 -1.6388  1.0814
14242TIP3    H264142  -0.044   5.781   0.449 -1.4067 -0.9437 -0.8348
14243TIP3   OH264143   2.829   3.682  15.308  0.2228 -0.2402 -0.5648
14243TIP3    H164144   2.838   3.691  15.403 -0.1864 -1.2390 -0.4210
14243TIP3    H264145   2.755   3.622  15.297  1.4475 -1.6131 -1.4773
14244TIP3   OH264146   0.251   3.190  15.529 -0.0638  0.1626 -0.1404
14244TIP3    H164147   0.186   3.173  15.461  0.8635  2.5223 -1.6484
14244TIP3    H264148   0.296   3.106  15.540 -2.3864 -1.1219 -0.0732
14245TIP3   OH264149   6.465   5.559  12.479  0.2231 -0.1171  1.0153
14245TIP3    H164150   6.522   5.575  12.554  2.2938  0.1614 -0.5562
14245TIP3    H264151   6.433   5.646  12.455 -0.0638 -0.1491  1.2729
14246TIP3   OH264152   3.755   2.958   0.189 -0.2787  0.2472  0.0452
14246TIP3    H164153   3.662   2.946   0.210  0.3810  0.1714  3.1701
14246TIP3    H264154   3.755   3.017   0.114 -2.8758 -0.2225 -0.3669
14247TIP3   OH264155   2.901   4.230   3.354  0.3384 -0.5546 -0.4136
14247TIP3    H164156   2.963   4.258   3.287  0.5216 -1.2881 -0.5503
14247TIP3    H264157   2.820   4.213   3.306  0.1916 -0.1444 -0.3129
14248TIP3   OH264158   2.086   1.208  11.224  0.1689  0.0353  0.2206
14248TIP3    H164159   2.087   1.210  11.128 -1.4521  0.6375  0.2091
14248TIP3    H264160   2.127   1.290  11.250  0.4814 -0.0630  0.0372
14249TIP3   OH264161   1.772   6.738   3.906  0.0848 -0.1398  0.0341
14249TIP3    H164162   1.741   6.821   3.942  2.0554  1.6206 -2.1640
14249TIP3    H264163   1.759   6.674   3.976 -1.0808  2.0888  1.8971
14250TIP3   OH264164   5.231   3.676   4.481 -0.6025  0.1289  0.5799
14250TIP3    H164165   5.296   3.678   4.552  0.3978  0.4262 -0.3275
14250TIP3    H264166   5.187   3.761   4.486 -0.5875  0.1186  0.8967
14251TIP3   OH264167   2.049   4.232  11.318  0.1978 -0.4048 -0.5690
14251TIP3    H164168   2.095   4.311  11.344 -1.2692 -0.3682  2.0464
14251TIP3    H264169   2.117   4.165  11.308  1.1646  0.5548 -0.3870
14252TIP3   OH264170   0.440   5.604   5.959  0.5894 -0.2905 -0.1236
14252TIP3    H164171   0.475   5.526   5.915  0.8356  0.7034 -1.7346
14252TIP3    H264172   0.346   5.586   5.965  0.8337 -1.3313  0.8208
14253TIP3   OH264173   6.331   6.580  13.712  0.5534 -0.1799 -0.2182
14253TIP3    H164174   6.247   6.619  13.687  0.4371  0.3127  0.8979
14253TIP3    H264175   6.309   6.491  13.740  0.3586  0.0537  0.3724
14254TIP3   OH264176   6.027   5.691   0.343  0.0706  0.0951  0.7714
14254TIP3    H164177   6.010   5.640   0.423  1.6581 -0.2569  0.9046
14254TIP3    H264178   6.013   5.782   0.369 -1.5753 -0.1754  0.8629
14255TIP3   OH264179   2.879   5.031  16.342 -0.0554 -0.0427 -0.9733
14255TIP3    H164180   2.899   5.091  16.413  0.2419  1.0161 -1.9435
14255TIP3    H264181   2.797   4.989  16.369  2.5261 -3.3689  2.3460
14256TIP3   OH264182   0.351   1.484  15.307 -0.0792 -0.1440 -0.1410
14256TIP3    H164183   0.328   1.481  15.214 -1.7835  1.1711  0.2028
14256TIP3    H264184   0.427   1.542  15.311 -0.0088 -0.1919 -0.7109
14257TIP3   OH264185   2.439   0.386   3.897  0.0911 -0.3919 -0.4819
14257TIP3    H164186   2.363   0.383   3.954  0.1467  0.8930 -0.3164
14257TIP3    H264187   2.483   0.468   3.920  2.5033 -1.9414  0.6636
14258TIP3   OH264188   4.430   4.454  13.784 -0.4308  0.0702  0.0515
14258TIP3    H164189   4.383   4.507  13.720 -0.9199  0.0060  0.3540
14258TIP3    H264190   4.506   4.420  13.736 -1.7738 -1.4714 -1.0101
14259TIP3   OH264191   5.268   5.505  10.399  0.0242  0.0413  0.1435
14259TIP3    H164192   5.172   5.499  10.405  0.0460  0.0986  0.5463
14259TIP3    H264193   5.299   5.429  10.449  0.1880  0.0727  0.0869
14260TIP3   OH264194   4.188   5.732  15.775  0.2302  0.0900 -0.5967
14260TIP3    H164195   4.229   5.659  15.729  2.9404  0.5125  1.0746
14260TIP3    H264196   4.113   5.694  15.819  0.3501 -1.2443 -1.5138
14261TIP3   OH264197   4.629   0.819  15.344 -0.1143 -0.2323 -0.3529
14261TIP3    H164198   4.706   0.806  15.288  0.3810 -2.5555  0.8060
14261TIP3    H264199   4.567   0.753  15.314  0.0414 -1.3009  1.6091
14262TIP3   OH264200   3.210   0.770  14.776 -0.4118  0.3359 -0.2549
14262TIP3    H164201   3.293   0.772  14.729 -1.4911  0.9020 -2.1737
14262TIP3    H264202   3.222   0.828  14.851  0.2290  2.0961 -1.7047
14263TIP3   OH264203   0.402   3.098  11.227  0.0866 -0.2285  0.4124
14263TIP3    H164204   0.325   3.099  11.170 -0.4029  2.2495  1.0640
14263TIP3    H264205   0.474   3.129  11.172  0.1081 -0.1158  0.5047
14264TIP3   OH264206   4.642   3.962   2.333 -0.3771 -0.3916 -0.1461
14264TIP3    H164207   4.583   3.887   2.332 -0.5706 -0.2292 -0.9474
14264TIP3    H264208   4.622   4.010   2.253  1.1540 -0.5723 -0.6395
14265TIP3   OH264209   4.118   4.423  12.926 -0.9378  0.6868  0.1109
14265TIP3    H164210   4.109   4.439  12.832 -1.1326  0.6160  0.1187
14265TIP3    H264211   4.068   4.343  12.942 -2.1257  1.4973  0.5361
14266TIP3   OH264212   1.297   3.945   4.945 -0.3186  0.0950  0.2358
14266TIP3    H164213   1.274   4.037   4.958  1.9068  0.6682  0.2014
14266TIP3    H264214   1.383   3.947   4.904 -0.1927 -2.0087  0.3459
14267TIP3   OH264215   3.514   3.030  14.671 -0.4774 -0.2172  0.0646
14267TIP3    H164216   3.517   2.951  14.724  0.3289  0.4217  0.9901
14267TIP3    H264217   3.606   3.055  14.658 -0.7173  0.5647 -0.1984
14268TIP3   OH264218   1.457   6.544  14.196 -0.5041 -0.1427 -0.1054
14268TIP3    H164219   1.507   6.467  14.221 -1.8390 -0.6681  0.9779
14268TIP3    H264220   1.459   6.600  14.273 -0.3025  0.5142 -0.5795
14269TIP3   OH264221   3.944   5.480   4.298  0.3740 -0.3782 -0.3012
14269TIP3    H164222   3.884   5.408   4.276  0.6008  0.2761 -3.1559
14269TIP3    H264223   4.031   5.441   4.291  0.4430 -0.2089 -0.3736
14270TIP3   OH264224   6.002   0.604  12.434  0.2622  0.6090 -0.5943
14270TIP3    H164225   6.047   0.675  12.479  0.6873 -0.3805  0.6059
14270TIP3    H264226   5.986   0.636  12.346  2.4974  1.3401 -0.7628
14271TIP3   OH264227   2.990   5.116  15.830  0.2887 -0.3757  0.4200
14271TIP3    H164228   2.916   5.150  15.880 -0.7826  1.3145 -2.2112
14271TIP3    H264229   2.960   5.116  15.739  2.7955 -1.6713 -0.4538
14272TIP3   OH264230   5.085   1.614   2.676  0.0789  0.3328 -0.0628
14272TIP3    H164231   5.154   1.642   2.615 -3.0432  0.7240 -3.6088
14272TIP3    H264232   5.054   1.696   2.715  0.6209  0.3058  0.4312
14273TIP3   OH264233   3.133   5.293   3.863 -0.1797  0.1886  0.4320
14273TIP3    H164234   3.105   5.375   3.823 -2.0692 -0.0794  1.1807
14273TIP3    H264235   3.217   5.274   3.821 -0.7919  1.3421 -1.3812
14274TIP3   OH264236   4.886   3.744  16.865  0.0287  0.0341  0.6685
14274TIP3    H164237   4.796   3.733  16.836  0.5145  1.4024 -1.5281
14274TIP3    H264238   4.889   3.832  16.905  0.7359  0.7323 -0.8610
14275TIP3   OH264239   5.656   1.922   5.726 -0.2018 -0.1329  0.3191
14275TIP3    H164240   5.720   1.967   5.782  1.2816 -0.0427 -1.4095
14275TIP3    H264241   5.675   1.953   5.638 -1.5170 -1.4335 -0.4393
14276TIP3   OH264242   0.496   6.210   5.596 -0.2533  0.0843 -0.4226
14276TIP3    H164243   0.565   6.155   5.631  1.9207  1.7024 -2.0224
14276TIP3    H264244   0.473   6.169   5.512 -0.3662  0.2612 -0.4793
14277TIP3   OH264245   4.407   4.778  15.625  0.1418 -0.0148  0.6268
14277TIP3    H164246   4.333   4.734  15.666  0.3223 -2.3275 -1.4126
14277TIP3    H264247   4.461   4.707  15.590  1.0874  1.7440 -1.6533
14278TIP3   OH264248   5.450   6.561  16.704  0.3035  0.2547  0.5735
14278TIP3    H164249   5.372   6.528  16.659 -0.8985  2.0268  1.2806
14278TIP3    H264250   5.486   6.627  16.644  1.3014 -0.5858  0.2286
14279TIP3   OH264251   3.594   0.227   0.050 -0.0116 -0.1634  0.3462
14279TIP3    H164252   3.529   0.237   0.120 -0.2443 -1.4624  0.3209
14279TIP3    H264253   3.623   0.317   0.032 -0.7511  0.2893  1.3436
14280TIP3   OH264254   0.547   0.092   5.848 -0.4451  0.2718  0.2308
14280TIP3    H164255   0.526   0.135   5.931  0.5636 -0.8365  1.0732
14280TIP3    H264256   0.639   0.114   5.831 -0.2722 -0.5648  0.0627
14281TIP3   OH264257   4.038   2.578  14.615 -0.0171  0.2186  0.1229
14281TIP3    H164258   3.980   2.505  14.637 -1.7557  1.2435 -1.0281
14281TIP3    H264259   4.118   2.536  14.584 -1.2141 -1.2072 -1.0927
14282TIP3   OH264260   1.467   5.803  16.453  0.8016 -0.6442  0.5220
14282TIP3    H164261   1.386   5.812  16.403  0.7118 -2.7930  0.2155
14282TIP3    H264262   1.494   5.892  16.471 -0.4303  0.1493 -1.3339
14283TIP3   OH264263   5.044   2.262  15.704 -0.1353  0.0968 -0.3986
14283TIP3    H164264   5.004   2.246  15.789 -0.6838  0.6752 -0.5416
14283TIP3    H264265   5.044   2.357  15.695  1.8065  0.1302 -0.1612
14284TIP3   OH264266   2.769   3.174   4.337 -0.0678  0.0284  0.1683
14284TIP3    H164267   2.752   3.268   4.351 -2.3415 -0.2816 -0.2477
14284TIP3    H264268   2.864   3.168   4.327  0.1256  2.2841  0.2926
14285TIP3   OH264269   6.664   0.308  14.717 -0.1224 -0.2066  0.9335
14285TIP3    H164270   6.595   0.296  14.652 -0.6016  0.0109  1.3997
14285TIP3    H264271   6.621   0.355  14.789  0.5907  0.2071  1.0896
14286TIP3   OH264272   3.611   3.309  14.215 -0.1540  0.5423 -0.8157
14286TIP3    H164273   3.611   3.343  14.126 -0.4219 -0.8210 -1.3460
14286TIP3    H264274   3.544   3.241  14.215  0.3114  0.0709  0.2419
14287TIP3   OH264275   3.243   6.626  11.103 -0.0942 -0.4316  0.2752
14287TIP3    H164276   3.175   6.673  11.055 -0.9588 -2.0127 -0.0747
14287TIP3    H264277   3.321   6.631  11.047 -0.4560 -0.2780 -0.2132
14288TIP3   OH264278   5.750   4.870  13.678  0.3802 -0.1924 -0.0636
14288TIP3    H164279   5.816   4.891  13.612  0.6979  2.1130  0.9415
14288TIP3    H264280   5.667   4.886  13.634  0.6006  1.8661  0.2516
14289TIP3   OH264281   3.495   6.052  10.879 -0.1794 -0.5906  0.1209
14289TIP3    H164282   3.517   5.962  10.855 -1.3974 -0.5475 -1.2189
14289TIP3    H264283   3.508   6.055  10.974 -1.6333 -2.6368  0.4342
14290TIP3   OH264284   2.697   5.411   3.756 -0.0477 -0.1079 -0.0370
14290TIP3    H164285   2.792   5.421   3.762 -0.0473 -0.0018 -0.2096
14290TIP3    H264286   2.674   5.354   3.829  0.2865 -1.0826 -0.6828
14291TIP3   OH264287   4.705   2.993   5.057  0.1732 -0.1999 -0.0192
14291TIP3    H164288   4.696   2.994   4.962 -2.7592  1.6080  0.2018
14291TIP3    H264289   4.667   2.909   5.084  0.4301 -0.4393 -0.4053
14292TIP3   OH264290   3.465   3.054  12.223  0.0308  0.4271 -0.2169
14292TIP3    H164291   3.476   3.149  12.219  0.9755  0.2751 -1.3262
14292TIP3    H264292   3.388   3.037  12.169  1.1729  0.3560 -1.8641
14293TIP3   OH264293   4.521   1.647  13.463  0.7442 -0.4774  0.0132
14293TIP3    H164294   4.506   1.659  13.557  0.9437 -1.2757  0.1534
14293TIP3    H264295   4.484   1.725  13.422  1.8427  0.4951  0.8546
14294TIP3   OH264296   3.903   5.407   5.703 -0.3449 -0.0339 -0.4891
14294TIP3    H164297   3.812   5.434   5.715 -0.4279  1.0040 -3.0312
14294TIP3    H264298   3.906   5.370   5.615  1.3183 -1.7879  0.2640
14295TIP3   OH264299   2.160   6.300   3.042  0.0090  0.2669 -0.2503
14295TIP3    H164300   2.255   6.295   3.032  0.0658  1.2601 -0.2091
14295TIP3    H264301   2.126   6.228   2.989  0.7805 -0.0975 -0.2540
14296TIP3   OH264302   3.204   5.861   4.037  0.4294 -0.1410 -0.1145
14296TIP3    H164303   3.262   5.785   4.048  1.2319  0.8549  3.0032
14296TIP3    H264304   3.263   5.933   4.014  0.5140  0.8799  3.0707
14297TIP3   OH264305   2.176   6.322  10.746  0.1374 -0.2454  0.3642
14297TIP3    H164306   2.268   6.348  10.754  0.2024  0.0678 -1.2776
14297TIP3    H264307   2.179   6.229  10.722 -0.0325 -0.8146  2.4255
14298TIP3   OH264308   4.215   2.486   0.115 -0.1886  0.1683  0.7253
14298TIP3    H164309   4.139   2.520   0.069 -0.0004  0.8124  0.8875
14298TIP3    H264310   4.211   2.391   0.102 -1.0594  0.1942  0.8045
14299TIP3   OH264311   0.972   3.735  13.322 -0.2482  0.4054 -0.1174
14299TIP3    H164312   1.062   3.702  13.321 -1.3664 -2.8106  1.1008
14299TIP3    H264313   0.942   3.724  13.232  0.0368 -0.0992 -0.1535
14300TIP3   OH264314   4.243   3.300   2.566  0.8912  0.2192 -0.0007
14300TIP3    H164315   4.187   3.361   2.614 -0.3382  0.7620 -2.0519
14300TIP3    H264316   4.313   3.355   2.531  1.1287  0.0268  0.1682
14301TIP3   OH264317   1.079   6.660  12.260  0.9325  0.8241 -0.3116
14301TIP3    H164318   1.151   6.616  12.212  0.4765  1.6385 -1.7686
14301TIP3    H264319   1.006   6.599  12.252  1.1117  0.5501  0.1232
14302TIP3   OH264320   1.712   6.211  13.738  0.1981  0.1950  0.3122
14302TIP3    H164321   1.706   6.227  13.832 -0.5662  1.9447 -0.0114
14302TIP3    H264322   1.621   6.208  13.708  0.3564 -2.4560 -0.0712
14303TIP3   OH264323   2.867   4.182   1.077  0.2684  0.7201  0.1133
14303TIP3    H164324   2.939   4.155   1.020  2.1054  2.8284  1.3282
14303TIP3    H264325   2.850   4.106   1.133  1.8366  0.3130  0.0523
14304TIP3   OH264326   2.242   0.545   6.139 -0.2569  0.2382 -0.0744
14304TIP3    H164327   2.195   0.578   6.062  0.4258 -0.7338 -0.9421
14304TIP3    H264328   2.332   0.531   6.107 -0.2401 -1.2592  0.5750
14305TIP3   OH264329   1.662   5.102  10.709  0.1833 -0.3763 -0.0299
14305TIP3    H164330   1.687   5.134  10.622 -1.8006  0.3144 -0.3754
14305TIP3    H264331   1.725   5.033  10.728  0.6598 -0.5254 -2.0045
14306TIP3   OH264332   6.236   1.711   5.134  0.2246  0.1920  0.4559
14306TIP3    H164333   6.232   1.700   5.229  0.6562 -0.9033  0.3535
14306TIP3    H264334   6.181   1.788   5.117 -0.7494 -0.2550  1.4770
14307TIP3   OH264335   1.403   2.849  12.818  0.3478  0.1611 -0.1490
14307TIP3    H164336   1.437   2.827  12.731 -1.4532  0.5527 -0.9890
14307TIP3    H264337   1.477   2.886  12.864  1.3828 -0.2201 -1.4718
14308TIP3   OH264338   1.180   0.645   5.159 -0.0075 -0.2418  0.1718
14308TIP3    H164339   1.133   0.619   5.238 -0.1370  0.5981  0.3708
14308TIP3    H264340   1.211   0.562   5.122 -0.8743 -0.7296  0.5148
14309TIP3   OH264341   4.876   6.700   1.096  0.0738 -0.8196 -0.2830
14309TIP3    H164342   4.889   6.792   1.117 -1.8413 -0.9462  1.6023
14309TIP3    H264343   4.927   6.653   1.161  0.4586 -1.1121 -0.7911
14310TIP3   OH264344   3.418   4.459  15.214 -0.5986 -0.1705  0.3478
14310TIP3    H164345   3.373   4.392  15.163 -0.8974  0.2380  0.0733
14310TIP3    H264346   3.477   4.502  15.152 -3.3994  2.6012 -0.5143
14311TIP3   OH264347   0.458   0.546  11.319  0.2383 -0.4290 -1.4431
14311TIP3    H164348   0.404   0.476  11.282  0.6667 -0.0935 -2.7423
14311TIP3    H264349   0.531   0.554  11.258  2.0871 -1.2727  0.6092
14312TIP3   OH264350   3.223   6.277   5.167  0.1803  0.0507 -0.1409
14312TIP3    H164351   3.173   6.200   5.193  0.5293 -0.4602 -0.9523
14312TIP3    H264352   3.184   6.349   5.216  0.5863 -0.8197  1.4999
14313TIP3   OH264353   2.218   4.935   5.548  0.0092  0.0282  0.4417
14313TIP3    H164354   2.178   4.850   5.567 -1.1559  0.5158  0.1616
14313TIP3    H264355   2.148   4.986   5.508  1.5037  0.1083 -2.1853
14314TIP3   OH264356   0.521   0.052  12.973  0.2295 -0.3869  0.2163
14314TIP3    H164357   0.508   0.134  13.020 -0.1725  0.2122 -0.9260
14314TIP3    H264358   0.516   0.076  12.880  0.7626 -1.5891 -0.1380
14315TIP3   OH264359   3.590   3.959   4.015  0.6682 -0.3824  0.8304
14315TIP3    H164360   3.652   3.886   4.019  0.6529 -0.3662  1.4123
14315TIP3    H264361   3.509   3.923   4.052  0.0632 -0.6781 -0.7701
14316TIP3   OH264362   1.571   1.272  14.961 -0.2323  0.2716  0.2077
14316TIP3    H164363   1.650   1.309  14.999  0.2619 -0.7217  0.1521
14316TIP3    H264364   1.572   1.180  14.986 -1.2442  0.1907 -0.0044
14317TIP3   OH264365   2.546   1.496   2.754  0.0298 -0.6466 -0.3105
14317TIP3    H164366   2.623   1.461   2.800  0.1520  1.3800  1.0518
14317TIP3    H264367   2.521   1.573   2.804 -2.0658 -0.4848 -1.5669
14318TIP3   OH264368   4.657   4.686  14.765 -0.1436 -0.1924 -0.6717
14318TIP3    H164369   4.595   4.758  14.749  1.7741  1.7734  0.3966
14318TIP3    H264370   4.721   4.694  14.695  0.8384  0.0143  0.2465
14319TIP3   OH264371   4.035   3.540  16.808  1.6129  0.2492  0.0453
14319TIP3    H164372   3.954   3.575  16.843  1.6375  0.1676  0.1870
14319TIP3    H264373   4.043   3.577  16.720  0.6596 -0.9269 -0.5549
14320TIP3   OH264374   5.566   1.726   5.321  0.3462 -0.1767  0.3058
14320TIP3    H164375   5.567   1.815   5.284  1.0978 -0.1357  0.4170
14320TIP3    H264376   5.500   1.730   5.390 -0.7595 -0.1330 -0.7167
14321TIP3   OH264377   4.999   0.113   0.560  0.3928 -0.1657  0.1898
14321TIP3    H164378   5.003   0.058   0.481 -1.5014  1.0743 -0.8179
14321TIP3    H264379   5.083   0.159   0.561 -0.4089  1.4869 -2.4170
14322TIP3   OH264380   6.338   1.568   4.793 -0.0619  0.4539 -0.2459
14322TIP3    H164381   6.392   1.509   4.740 -1.3124  0.9010 -2.0523
14322TIP3    H264382   6.401   1.612   4.851  1.0443 -1.6490  0.2063
14323TIP3   OH264383   0.271   0.051  12.597  0.3544 -0.5823 -0.1618
14323TIP3    H164384   0.214  -0.020  12.569 -1.0492 -0.1865  1.5869
14323TIP3    H264385   0.248   0.065  12.689  1.2453  1.5155 -0.2352
14324TIP3   OH264386   5.619   1.189  13.214  0.2964  0.0343  0.1172
14324TIP3    H164387   5.698   1.223  13.172  0.0130  0.8752  0.2682
14324TIP3    H264388   5.554   1.258  13.204 -0.8295 -1.1612 -1.1557
14325TIP3   OH264389   4.883   2.579  12.178 -0.0395 -0.0154 -0.3495
14325TIP3    H164390   4.826   2.640  12.131  0.3175 -0.6360 -1.6018
14325TIP3    H264391   4.874   2.496  12.131  1.4087 -0.2853 -0.1844
14326TIP3   OH264392   0.791   6.223  15.581  0.0751 -0.2565  0.2587
14326TIP3    H164393   0.740   6.295  15.545 -2.1898 -2.0875 -0.3218
14326TIP3    H264394   0.848   6.195  15.510 -0.3765 -0.2359 -0.1136
14327TIP3   OH264395   2.802   1.418  13.136  0.0491  0.6755 -0.2302
14327TIP3    H164396   2.766   1.463  13.212  1.7477  1.0753  0.3511
14327TIP3    H264397   2.729   1.366  13.102 -0.6466  0.2794  1.8355
14328TIP3   OH264398   4.299   1.576   3.465 -0.1424  0.5584 -0.3163
14328TIP3    H164399   4.274   1.657   3.510 -0.9073 -0.3912  1.0241
14328TIP3    H264400   4.323   1.516   3.536 -3.4572 -1.6901 -0.9648
14329TIP3   OH264401   0.995   5.877  15.598  0.0697 -0.1213 -0.5280
14329TIP3    H164402   1.001   5.934  15.521 -0.4957 -0.2158 -0.6454
14329TIP3    H264403   1.083   5.841  15.608  0.7439  1.7008  0.2809
14330TIP3   OH264404   0.462   1.095   5.166 -0.6383  0.3635  0.0019
14330TIP3    H164405   0.380   1.141   5.152 -0.8927 -0.3027 -0.7516
14330TIP3    H264406   0.513   1.113   5.087 -1.1346 -1.4502 -0.7562
14331TIP3   OH264407   3.083   0.234  14.265  0.3329  0.2340  0.0378
14331TIP3    H164408   3.008   0.187  14.229 -0.4443  0.0330  1.8978
14331TIP3    H264409   3.154   0.169  14.264 -0.0569 -0.1933  0.2043
14332TIP3   OH264410   6.113   1.443  16.388  0.1826 -0.4955 -0.5060
14332TIP3    H164411   6.178   1.422  16.455  0.4135 -0.6485 -0.7762
14332TIP3    H264412   6.030   1.450  16.436  0.4473  0.0207 -0.1119
14333TIP3   OH264413   1.005   0.016  11.059 -0.2623  0.5623 -1.0912
14333TIP3    H164414   1.067  -0.054  11.038 -0.6246 -0.3655  0.8070
14333TIP3    H264415   0.924  -0.030  11.081 -0.7242  1.6167 -0.5780
14334TIP3   OH264416   2.082   4.366  10.656 -0.2304 -0.5743  0.5795
14334TIP3    H164417   2.026   4.313  10.712  0.1746 -1.1357  0.4584
14334TIP3    H264418   2.021   4.418  10.603 -0.6140  0.0399  1.6070
14335TIP3   OH264419   6.273   4.295  13.549 -0.7754  0.0929 -0.1499
14335TIP3    H164420   6.209   4.359  13.519 -2.2257 -0.6788  1.2362
14335TIP3    H264421   6.230   4.250  13.622  1.2520 -0.5944  0.6591
14336TIP3   OH264422   4.518   1.484  16.424 -0.5312 -0.0956 -0.1314
14336TIP3    H164423   4.559   1.569  16.407 -0.8970  0.2937  0.8934
14336TIP3    H264424   4.572   1.444  16.491  0.0555 -0.9977 -1.1165
14337TIP3   OH264425   5.368   0.161   2.539 -0.0268  0.0217 -0.5381
14337TIP3    H164426   5.377   0.071   2.569  0.1462  0.6960  1.5190
14337TIP3    H264427   5.391   0.158   2.446  1.9408 -1.7016 -0.0227
14338TIP3   OH264428   1.808   4.731  16.815 -0.4528 -0.1264 -0.2919
14338TIP3    H164429   1.854   4.647  16.815  1.4082  0.8504 -2.4880
14338TIP3    H264430   1.716   4.708  16.825  0.2466 -2.2677  1.7306
14339TIP3   OH264431   3.879   3.493   1.301  0.1628  0.3592 -0.1162
14339TIP3    H164432   3.810   3.540   1.254  0.4788 -0.1393 -1.0885
14339TIP3    H264433   3.956   3.501   1.246  0.9110  0.9717  1.0050
14340TIP3   OH264434   1.167   1.780  16.853 -0.2451  0.1121 -0.3689
14340TIP3    H164435   1.144   1.872  16.839  3.2639  0.9917 -0.6054
14340TIP3    H264436   1.199   1.751  16.768 -2.5886 -1.7837 -0.6720
14341TIP3   OH264437   0.387   6.335   0.145  0.0978  0.5981  0.3752
14341TIP3    H164438   0.414   6.305   0.059  1.8864  0.2605  1.0359
14341TIP3    H264439   0.306   6.287   0.163  0.6740 -0.6599 -0.3495
14342TIP3   OH264440   0.930   5.784  17.050  0.1380  0.2754  0.4314
14342TIP3    H164441   0.840   5.817  17.043 -0.0251 -0.3289 -0.4395
14342TIP3    H264442   0.964   5.788  16.960 -0.0028 -2.2318  0.2196
14343TIP3   OH264443   6.066   2.781   5.859 -0.4886 -0.3859  0.3061
14343TIP3    H164444   5.990   2.815   5.908  1.0283  0.4636  2.1494
14343TIP3    H264445   6.031   2.709   5.807 -2.7869  0.7334  0.2645
14344TIP3   OH264446   2.196   4.414   4.677  0.3454 -0.3772  0.0481
14344TIP3    H164447   2.111   4.374   4.662  0.8867 -1.1007 -1.1958
14344TIP3    H264448   2.183   4.471   4.753 -0.9774 -1.2551  0.4922
14345TIP3   OH264449   2.700   0.349   4.162 -0.4579 -0.1737 -0.0038
14345TIP3    H164450   2.751   0.414   4.115  0.4077 -0.9037 -0.0790
14345TIP3    H264451   2.751   0.269   4.155 -1.9687 -1.0913 -0.7085
14346TIP3   OH264452   0.971   3.490   3.283 -0.8211 -0.0828 -0.0579
14346TIP3    H164453   0.879   3.510   3.268 -0.9841 -0.5840  0.2489
14346TIP3    H264454   0.982   3.496   3.378 -0.5535 -0.0754 -0.0882
14347TIP3   OH264455   4.263   1.049  13.853  0.9523  0.6948 -0.7485
14347TIP3    H164456   4.199   1.113  13.822 -2.3491 -0.6184  3.0276
14347TIP3    H264457   4.309   1.093  13.925  0.1288 -0.4212  0.4740
14348TIP3   OH264458   0.135   5.345   0.540 -0.0097 -0.3559  0.1110
14348TIP3    H164459   0.089   5.265   0.515  0.3187 -0.7816  0.8569
14348TIP3    H264460   0.227   5.327   0.523  0.0400 -0.0516  0.0515
14349TIP3   OH264461   2.320   1.663   1.643 -0.6291 -0.4573 -0.0091
14349TIP3    H164462   2.316   1.649   1.549  0.8465 -0.9209 -0.0294
14349TIP3    H264463   2.367   1.746   1.653 -1.4918 -0.0024  0.3039
14350TIP3   OH264464   3.520   2.544  16.822  0.0371  0.1702 -0.3092
14350TIP3    H164465   3.555   2.620  16.868 -0.5153  0.4728 -0.3818
14350TIP3    H264466   3.551   2.469  16.872  2.3897  0.3447 -1.4426
14351TIP3   OH264467   0.803   0.538  14.073  0.1166 -0.0834  0.0050
14351TIP3    H164468   0.781   0.624  14.109  0.2738 -0.5377  1.1994
14351TIP3    H264469   0.897   0.527  14.092  0.6657  0.4846 -2.2395
14352TIP3   OH264470   4.916   0.878   4.282 -0.2785  0.0963 -0.3287
14352TIP3    H164471   4.891   0.839   4.198 -1.6393 -0.1823  0.1958
14352TIP3    H264472   4.832   0.902   4.323  0.4262  1.3022  0.4342
14353TIP3   OH264473   1.383   6.783   3.924  0.4631 -0.0289 -0.1646
14353TIP3    H164474   1.305   6.805   3.974 -0.7337 -1.0519 -1.5519
14353TIP3    H264475   1.445   6.750   3.990 -1.0841 -1.3862  0.6368
14354TIP3   OH264476   3.758   3.014   1.487  0.3357  0.7783  0.2527
14354TIP3    H164477   3.669   3.028   1.454  1.1829 -0.0233 -2.4884
14354TIP3    H264478   3.770   3.083   1.553 -1.6852  1.9763 -0.5842
14355TIP3   OH264479   5.425   2.462  10.922 -0.0216  0.1429  0.1793
14355TIP3    H164480   5.516   2.484  10.944  0.5468 -1.6837 -0.2715
14355TIP3    H264481   5.374   2.496  10.995  1.1336  0.2746  0.9372
14356TIP3   OH264482   6.510   0.667   1.073  0.4251 -0.1734  0.3379
14356TIP3    H164483   6.563   0.733   1.029 -0.5630 -0.7583 -1.8154
14356TIP3    H264484   6.573   0.600   1.099  0.8059 -0.8960 -2.2556
14357TIP3   OH264485   3.566   1.011   3.645  0.2652  0.1299  0.1170
14357TIP3    H164486   3.477   1.038   3.624  0.7010  1.2385 -0.3466
14357TIP3    H264487   3.580   1.042   3.734  0.1802 -0.0606  0.1965
14358TIP3   OH264488   2.792   0.643  16.397  0.3422 -0.0420 -0.2097
14358TIP3    H164489   2.840   0.602  16.470  0.8473  0.6920 -0.1214
14358TIP3    H264490   2.728   0.700  16.440 -0.4171 -0.7897 -0.3330
14359TIP3   OH264491   5.605   1.001  13.000 -0.4541 -0.0677 -0.6179
14359TIP3    H164492   5.669   0.929  13.005  1.4367  1.5833 -0.4629
14359TIP3    H264493   5.601   1.035  13.089 -1.4847 -0.0777 -0.6577
14360TIP3   OH264494   0.517   3.483   6.079 -0.0570  0.1537 -0.9278
14360TIP3    H164495   0.432   3.465   6.119  0.3414 -0.3461 -0.2788
14360TIP3    H264496   0.541   3.570   6.113 -1.0358  1.0014 -2.3979
14361TIP3   OH264497   1.581   5.317  12.277 -0.0736  0.5102  0.0642
14361TIP3    H164498   1.658   5.363  12.312  1.4634 -2.2795  0.5024
14361TIP3    H264499   1.569   5.242  12.336 -0.4300 -1.5304 -2.5082
14362TIP3   OH264500   1.829   3.219  11.088  0.4020 -0.2252 -0.3769
14362TIP3    H164501   1.763   3.232  11.019 -1.0326 -0.5079  0.9237
14362TIP3    H264502   1.912   3.229  11.042 -0.5275  0.2294 -2.0432
14363TIP3   OH264503   0.629   4.695  13.797 -0.4221 -0.0489  0.0883
14363TIP3    H164504   0.637   4.785  13.828 -1.8032  0.5079 -1.1095
14363TIP3    H264505   0.585   4.649  13.868  0.2049  0.2397  0.6671
14364TIP3   OH264506   1.533   1.328   2.274  0.1526 -0.4948 -0.1070
14364TIP3    H164507   1.624   1.306   2.290  0.6728  0.6947 -1.3031
14364TIP3    H264508   1.492   1.245   2.249  0.5561 -1.3035  1.8790
14365TIP3   OH264509   1.729   0.816  14.250 -0.4286  0.7834 -0.1670
14365TIP3    H164510   1.806   0.872  14.264 -1.0253  1.7266 -0.5875
14365TIP3    H264511   1.656   0.869  14.282 -0.9096 -0.0872  0.1646
14366TIP3   OH264512   5.092   2.821  12.464  0.5506 -1.1687 -0.1207
14366TIP3    H164513   5.092   2.788  12.554 -0.3926  0.8191  0.6354
14366TIP3    H264514   5.119   2.913  12.472 -1.4555 -0.4170 -1.6402
14367TIP3   OH264515   1.817   0.776  15.825 -0.2561  0.3396  0.1764
14367TIP3    H164516   1.878   0.835  15.870 -0.1572  1.0190 -0.8232
14367TIP3    H264517   1.797   0.709  15.889 -1.9743  2.5517  2.0648
14368TIP3   OH264518   4.623   4.713   1.041  0.4280  0.3727 -0.3578
14368TIP3    H164519   4.571   4.690   1.118  0.9503 -0.7337 -0.3103
14368TIP3    H264520   4.630   4.808   1.043 -1.2988  0.4994 -0.1820
14369TIP3   OH264521   5.495   1.565  15.765 -0.0873 -0.0502 -0.0567
14369TIP3    H164522   5.439   1.549  15.689 -0.0439  0.1424 -0.1310
14369TIP3    H264523   5.582   1.538  15.738 -0.2394 -0.8414  0.2376
14370TIP3   OH264524   0.941   4.574  17.169 -0.3757 -0.0345 -0.4989
14370TIP3    H164525   0.921   4.582  17.262 -3.0662  4.7821 -1.3475
14370TIP3    H264526   0.861   4.540  17.130 -0.2083  0.6064 -1.4126
14371TIP3   OH264527   6.561   2.914  16.983  0.1773  0.2970  0.5677
14371TIP3    H164528   6.640   2.948  17.024  0.9113  0.5870 -1.0741
14371TIP3    H264529   6.529   2.985  16.928 -1.1040  0.0947  1.0089
14372TIP3   OH264530   5.366   4.846   1.586  0.2785 -0.2576 -0.1943
14372TIP3    H164531   5.401   4.925   1.627 -0.3361  0.5829 -1.2725
14372TIP3    H264532   5.271   4.860   1.584  0.1804 -0.9602 -0.5126
14373TIP3   OH264533   6.659   2.028  11.680  0.5319  0.0455  0.0702
14373TIP3    H164534   6.573   1.987  11.683 -0.1833  1.5679  1.1461
14373TIP3    H264535   6.699   2.005  11.764 -0.4677  2.6766  1.3605
14374TIP3   OH264536   5.127   1.585   3.207 -0.1164 -0.4787  0.3671
14374TIP3    H164537   5.163   1.643   3.274 -1.3152  1.7384 -0.8584
14374TIP3    H264538   5.157   1.621   3.124  1.1798 -3.0900 -0.3721
14375TIP3   OH264539   4.651   1.523   6.222 -0.4110 -0.2175 -0.1065
14375TIP3    H164540   4.700   1.492   6.146 -0.3207  2.8587 -1.3876
14375TIP3    H264541   4.709   1.588   6.262 -1.0244 -0.8426  1.8135
14376TIP3   OH264542   5.265   1.357   0.302 -0.0747  0.1209  0.7724
14376TIP3    H164543   5.328   1.396   0.242  1.6785 -0.9837  1.8593
14376TIP3    H264544   5.189   1.414   0.297  0.2304  0.3700 -2.0649
14377TIP3   OH264545   3.352   0.978   5.558  0.2425  0.8024  0.3391
14377TIP3    H164546   3.427   1.012   5.606 -0.0484 -0.1499  1.4773
14377TIP3    H264547   3.280   0.978   5.621 -0.2227 -0.1636 -0.1798
14378TIP3   OH264548   1.944   4.567   2.426 -0.0456 -0.5259  0.4081
14378TIP3    H164549   1.893   4.495   2.464  0.2584 -0.3421  1.1700
14378TIP3    H264550   2.020   4.524   2.387 -0.0477 -0.6539  0.5432
14379TIP3   OH264551   3.660   0.555   6.361 -0.4445 -0.0468 -1.0260
14379TIP3    H164552   3.710   0.635   6.376 -2.0912  1.0294 -1.1858
14379TIP3    H264553   3.648   0.518   6.449 -0.3491  0.2767 -0.8747
14380TIP3   OH264554   3.870   1.799   6.820 -0.5517 -0.6827  0.8586
14380TIP3    H164555   3.962   1.795   6.848 -0.1540  0.1931 -0.3177
14380TIP3    H264556   3.865   1.738   6.746  0.0291  2.2366 -1.6717
14381TIP3   OH264557   2.420   2.564  12.483 -0.1986  0.1995  0.6475
14381TIP3    H164558   2.496   2.622  12.492  0.3717 -0.7011  1.8041
14381TIP3    H264559   2.345   2.620  12.499  0.2549  0.9607  0.1613
14382TIP3   OH264560   0.341   0.782  15.466  0.3455 -0.3493  0.0472
14382TIP3    H164561   0.433   0.771  15.490  0.2024 -2.5624 -0.3804
14382TIP3    H264562   0.341   0.781  15.370  0.0261  1.1626  0.0057
14383TIP3   OH264563   6.370   0.077   4.609  0.4296 -0.0360  0.0576
14383TIP3    H164564   6.343   0.095   4.698  2.0746 -3.2128  1.2942
14383TIP3    H264565   6.292   0.040   4.567 -0.3468  1.4675  0.1692
14384TIP3   OH264566   0.912   6.490  12.578  0.5627 -0.5308  0.1577
14384TIP3    H164567   0.826   6.519  12.608  0.1561 -1.2172 -0.3326
14384TIP3    H264568   0.959   6.570  12.555 -0.4376 -0.2491 -0.9035
14385TIP3   OH264569   4.155   4.811   3.445  0.6208  0.3043  0.2729
14385TIP3    H164570   4.148   4.716   3.452 -0.7341  0.4082  0.4832
14385TIP3    H264571   4.122   4.844   3.529 -0.0647  0.9923 -0.2578
14386TIP3   OH264572   5.139   3.049  11.448 -0.3680 -0.0143 -0.5782
14386TIP3    H164573   5.219   3.074  11.401 -0.8110 -0.2478 -1.4765
14386TIP3    H264574   5.166   2.975  11.502  0.2707  0.5862 -0.0622
14387TIP3   OH264575   4.544   3.008   3.271 -0.2467  0.6620  0.7429
14387TIP3    H164576   4.596   2.929   3.254 -1.6560 -0.6254  2.1431
14387TIP3    H264577   4.477   2.978   3.333  0.6694  3.5276  3.2053
14388TIP3   OH264578   0.060   3.879  12.552  0.2960 -0.2317 -0.3779
14388TIP3    H164579   0.105   3.796  12.567 -0.5207 -0.8813 -1.4242
14388TIP3    H264580   0.016   3.868  12.467  2.5525  2.3220 -1.9715
14389TIP3   OH264581   5.178   4.991  11.151 -0.0575 -0.2120  0.0682
14389TIP3    H164582   5.155   5.073  11.193 -1.9293 -1.2516  1.1587
14389TIP3    H264583   5.113   4.980  11.082  1.6921  0.4167 -1.7283
14390TIP3   OH264584   1.720   3.090  13.572 -0.2489 -0.2071  0.1362
14390TIP3    H164585   1.759   3.049  13.495  1.2622  1.0988  0.1583
14390TIP3    H264586   1.795   3.108  13.630 -0.8589  2.3447  0.2086
14391TIP3   OH264587   2.568   1.631  11.415  0.0392  0.2892 -0.6449
14391TIP3    H164588   2.648   1.607  11.462 -1.0520  1.2026  1.7879
14391TIP3    H264589   2.560   1.566  11.345  1.2245 -1.7113  1.0239
14392TIP3   OH264590   1.570   2.961  13.927  0.2698 -0.3379 -0.2549
14392TIP3    H164591   1.519   2.942  14.006 -0.2253  0.6372 -0.3311
14392TIP3    H264592   1.511   2.940  13.854  0.1837  0.2060 -0.3478
14393TIP3   OH264593   2.021   2.645  14.007 -1.0107 -0.4947  0.7249
14393TIP3    H164594   2.069   2.652  13.924 -1.7752  1.9567  0.4509
14393TIP3    H264595   2.045   2.724  14.055 -0.9857 -1.6364  2.6518
14394TIP3   OH264596   4.014   0.795  14.902 -0.3262 -0.1510  0.1538
14394TIP3    H164597   4.096   0.752  14.925  0.8681  2.1000  0.2035
14394TIP3    H264598   3.982   0.747  14.825  1.5188 -0.4183 -0.4557
14395TIP3   OH264599   4.187   0.128   3.821 -0.1848 -0.2440 -0.2055
14395TIP3    H164600   4.195   0.098   3.911 -1.0007  0.2011  0.0210
14395TIP3    H264601   4.265   0.094   3.777  1.1653  1.1011  1.0949
14396TIP3   OH264602   4.723   3.368   0.340  0.0199  0.3847  0.2920
14396TIP3    H164603   4.760   3.448   0.303  1.7638  0.5833  2.3641
14396TIP3    H264604   4.690   3.395   0.426  0.3038 -1.0234  0.8540
14397TIP3   OH264605   5.331   4.179  17.212 -0.7476 -0.1939  0.6764
14397TIP3    H164606   5.353   4.214  17.126 -1.0671 -0.4112  0.5047
14397TIP3    H264607   5.408   4.196  17.266 -0.6320  0.1408  0.4043
14398TIP3   OH264608   4.313   3.063   2.229 -0.2733  0.0351  0.5789
14398TIP3    H164609   4.264   3.037   2.151 -0.0170 -4.4586  1.7976
14398TIP3    H264610   4.250   3.111   2.283 -0.6080  2.6696 -2.0130
14399TIP3   OH264611   5.016   1.868   2.710 -0.2994  0.3619  0.5847
14399TIP3    H164612   4.991   1.874   2.802  0.8196  1.4390  0.8411
14399TIP3    H264613   5.015   1.959   2.679 -0.9431 -0.0210 -0.5465
14400TIP3   OH264614   1.095   2.888   0.714 -0.0232  0.2988  0.1817
14400TIP3    H164615   1.017   2.875   0.661  0.2937  0.9325 -0.4589
14400TIP3    H264616   1.150   2.946   0.661  0.5090  0.5421  0.9917
14401TIP3   OH264617   4.951   5.454   2.441  0.0566  0.1818  0.4032
14401TIP3    H164618   4.998   5.372   2.452 -0.7126 -0.6968 -2.4391
14401TIP3    H264619   5.019   5.521   2.434  0.7445 -0.5048  0.5729
14402TIP3   OH264620   2.483   0.157  11.252  0.6650  0.6249 -0.0246
14402TIP3    H164621   2.525   0.136  11.336  0.8045 -2.0353 -0.6948
14402TIP3    H264622   2.398   0.194  11.276  0.7033 -0.1149  1.3098
14403TIP3   OH264623   5.919   5.610   1.789 -0.3089  0.0414  0.3013
14403TIP3    H164624   5.926   5.518   1.812 -0.9503  0.2237  1.2772
14403TIP3    H264625   5.981   5.655   1.847  1.4219  0.0210 -1.5159
14404TIP3   OH264626   5.829   4.304   0.169 -0.5486  0.0480  0.0576
14404TIP3    H164627   5.759   4.243   0.145  0.0148 -0.7056  0.3079
14404TIP3    H264628   5.830   4.368   0.098 -0.4541 -0.8325 -0.7515
14405TIP3   OH264629   0.584   0.767  12.852 -0.3377  0.3343  0.2252
14405TIP3    H164630   0.650   0.773  12.783  1.3296 -0.3556  1.7167
14405TIP3    H264631   0.522   0.702  12.821  0.4150  0.0095 -0.6118
14406TIP3   OH264632   4.598   5.585   3.244  1.2228  0.2049 -0.5029
14406TIP3    H164633   4.507   5.570   3.219  1.0316 -0.0194  0.2989
14406TIP3    H264634   4.639   5.499   3.235  0.6322 -0.4068  2.0194
14407TIP3   OH264635   4.153   0.145  16.769  0.1811 -0.3338  0.0453
14407TIP3    H164636   4.128   0.187  16.851  0.0384  0.0516 -0.1876
14407TIP3    H264637   4.077   0.092  16.745 -0.2044  0.3853 -0.3709
14408TIP3   OH264638   3.773   1.802  13.450  0.5171 -0.4525 -0.3185
14408TIP3    H164639   3.829   1.844  13.515  2.2309 -2.8260 -0.1949
14408TIP3    H264640   3.684   1.828  13.475  1.4632  2.7446 -0.0756
14409TIP3   OH264641   1.850   6.577   0.164 -0.4618 -1.2263  0.1300
14409TIP3    H164642   1.821   6.578   0.256  3.6572  1.4109  1.5061
14409TIP3    H264643   1.922   6.514   0.162 -0.3168 -1.0304 -1.2502
14410TIP3   OH264644   0.200   2.587  14.515  0.2860  0.2277  0.0721
14410TIP3    H164645   0.126   2.533  14.486 -0.0240 -0.0124  1.2475
14410TIP3    H264646   0.250   2.529  14.573  0.4688  0.9045  0.5989
14411TIP3   OH264647   5.755   5.706   1.347  0.2409 -0.8266  0.0017
14411TIP3    H164648   5.778   5.788   1.390  1.4933 -1.6590  0.9621
14411TIP3    H264649   5.670   5.723   1.307  0.4416  0.9000  0.2751
14412TIP3   OH264650   6.019   0.596   4.398 -0.1292 -0.0860  0.5246
14412TIP3    H164651   6.069   0.574   4.476  3.0288 -1.0286 -1.6589
14412TIP3    H264652   6.047   0.685   4.376 -1.3289  0.3440  0.6932
14413TIP3   OH264653   6.259   0.923  11.809 -0.4794 -0.3970 -0.6820
14413TIP3    H164654   6.211   0.998  11.774  0.4191 -0.1981 -1.5171
14413TIP3    H264655   6.230   0.849  11.756 -0.8022 -0.5021 -0.3578
14414TIP3   OH264656   3.617   1.360   0.748  0.1695 -0.0424 -0.1270
14414TIP3    H164657   3.575   1.339   0.831 -0.2757  0.1672 -0.2979
14414TIP3    H264658   3.577   1.443   0.721  0.1311 -0.2396 -0.6751
14415TIP3   OH264659   4.268   0.977  16.142  0.3304 -0.0318 -0.2619
14415TIP3    H164660   4.340   0.923  16.108 -0.3266 -0.5140 -0.9198
14415TIP3    H264661   4.275   1.059  16.094  1.1583  0.3587  0.5278
14416TIP3   OH264662   3.999   6.414   2.264 -0.2937 -0.1631 -0.2784
14416TIP3    H164663   3.972   6.481   2.327  2.4632  1.6525 -0.9193
14416TIP3    H264664   3.923   6.402   2.207 -1.0189  2.0669  0.1582
14417TIP3   OH264665   6.126   3.740  16.596  0.1252  0.3857  0.0713
14417TIP3    H164666   6.161   3.817  16.551  1.1255  0.3434  0.7680
14417TIP3    H264667   6.167   3.666  16.550  0.6557  0.3264  0.6306
14418TIP3   OH264668   2.075   0.626  17.001  0.1175 -0.3583  0.3526
14418TIP3    H164669   1.991   0.584  17.023  0.6566 -2.0967 -0.7331
14418TIP3    H264670   2.112   0.653  17.085 -0.9621 -0.6959  0.9495
14419TIP3   OH264671   0.098   2.426   0.366 -0.3423  0.2127  0.5026
14419TIP3    H164672   0.101   2.402   0.459  0.6124 -0.7293  0.2438
14419TIP3    H264673   0.015   2.391   0.335  0.1029 -0.9864  0.6192
14420TIP3   OH264674   3.941   1.092   6.125  0.6534 -0.0386 -0.5699
14420TIP3    H164675   3.918   1.002   6.149  1.9968 -0.4626 -0.8202
14420TIP3    H264676   4.013   1.115   6.184  0.0955  0.9913 -0.2877
14421TIP3   OH264677   0.821   3.402  16.876 -0.4936 -0.2432 -0.1164
14421TIP3    H164678   0.786   3.333  16.933 -0.0787 -0.3156  0.0497
14421TIP3    H264679   0.782   3.483  16.910 -0.6430 -0.3437 -0.0459
14422TIP3   OH264680   1.365   6.281  14.937 -0.1149  0.2253 -0.0811
14422TIP3    H164681   1.338   6.289  14.845 -1.0926  0.1555  0.1964
14422TIP3    H264682   1.416   6.200  14.939 -1.0248 -0.3646 -0.3476
14423TIP3   OH264683   0.993   3.900   2.112 -0.2819  0.3668  0.0737
14423TIP3    H164684   1.016   3.992   2.116  0.4310  0.2756 -1.4003
14423TIP3    H264685   0.931   3.894   2.039  0.8723 -0.5297 -0.8699
14424TIP3   OH264686   6.060   5.320  14.847 -0.1123  0.0609 -0.0337
14424TIP3    H164687   6.083   5.339  14.938  1.5069 -0.6904 -0.2669
14424TIP3    H264688   6.043   5.406  14.808 -1.3287  0.3499  1.0959
14425TIP3   OH264689   0.884   2.198  12.203  0.4772 -0.0505  0.5903
14425TIP3    H164690   0.828   2.275  12.194  0.0600 -0.5069 -0.6748
14425TIP3    H264691   0.931   2.213  12.285 -0.3285  1.0826  0.8535
14426TIP3   OH264692   3.000   5.501  11.936 -0.1593 -0.4615 -0.1494
14426TIP3    H164693   2.937   5.518  12.006  0.0155  1.8858 -0.5248
14426TIP3    H264694   2.946   5.491  11.858 -0.1787  0.0766 -0.2105
14427TIP3   OH264695   5.434   0.229   2.275  0.1931 -0.1089 -0.0581
14427TIP3    H164696   5.404   0.258   2.189  1.0613 -0.7775 -0.5999
14427TIP3    H264697   5.528   0.245   2.275  0.0663  0.7070  1.1060
14428TIP3   OH264698   0.477   5.977   2.069 -0.1943 -0.0424 -0.8971
14428TIP3    H164699   0.403   5.916   2.065  0.1664 -0.5538 -0.0150
14428TIP3    H264700   0.543   5.937   2.013  0.5740 -1.2248  0.8065
14429TIP3   OH264701   2.381   1.890   1.989 -0.1169  0.0144  0.1765
14429TIP3    H164702   2.457   1.949   1.990  0.0665 -0.2330  2.1388
14429TIP3    H264703   2.413   1.812   1.943  0.8287 -0.0960  1.0135
14430TIP3   OH264704   6.709   5.119  12.497 -0.1477 -0.1380  0.1077
14430TIP3    H164705   6.779   5.092  12.556 -1.2480 -3.1534  0.1234
14430TIP3    H264706   6.629   5.101  12.545 -1.0217 -1.0010 -1.6206
14431TIP3   OH264707   5.783   0.662   2.949  0.2358 -0.6617  0.0735
14431TIP3    H164708   5.713   0.726   2.945 -0.0815 -1.0294 -0.2990
14431TIP3    H264709   5.775   0.612   2.868  0.7127 -0.9273  0.1873
14432TIP3   OH264710   4.087   2.127   6.420  0.5536 -0.4531  0.2310
14432TIP3    H164711   4.015   2.065   6.425  0.8162 -0.7772 -0.0080
14432TIP3    H264712   4.160   2.084   6.465  0.3875  0.1719  1.1136
14433TIP3   OH264713   3.624   3.019  16.843  0.1191 -0.5979 -0.2221
14433TIP3    H164714   3.572   3.091  16.808  0.1002 -0.4764  0.0543
14433TIP3    H264715   3.713   3.037  16.813  0.1516 -0.3460  0.0231
14434TIP3   OH264716   2.644   0.475  11.907  0.1096  0.2855 -0.2028
14434TIP3    H164717   2.722   0.423  11.926 -0.2916 -0.3666 -0.2936
14434TIP3    H264718   2.591   0.470  11.987  0.0045  0.4282 -0.2635
14435TIP3   OH264719   1.398   4.839   2.602  0.2551  0.3127 -0.3461
14435TIP3    H164720   1.322   4.810   2.551  0.4052  1.2239 -1.0935
14435TIP3    H264721   1.471   4.836   2.541  0.7149  0.0361  0.2085
14436TIP3   OH264722   3.723   0.627   5.988  0.0335 -0.0212 -0.0000
14436TIP3    H164723   3.771   0.606   6.068 -0.4684  1.2572  0.6467
14436TIP3    H264724   3.693   0.543   5.955  0.9232 -0.6290  0.7258
14437TIP3   OH264725   6.694   4.661   2.546 -0.3329 -0.5765  0.2447
14437TIP3    H164726   6.768   4.611   2.513 -0.3039 -0.9033  0.8102
14437TIP3    H264727   6.715   4.679   2.638  0.5440  2.0884 -0.4088
14438TIP3   OH264728   1.919   6.207   1.579 -0.4295  0.0070 -0.3779
14438TIP3    H164729   1.895   6.276   1.518 -1.6434  1.0356  1.2142
14438TIP3    H264730   1.836   6.183   1.622  0.2365 -1.3316  0.1889
14439TIP3   OH264731   3.446   5.992   1.237 -0.4259 -0.3165  0.3921
14439TIP3    H164732   3.425   5.978   1.330 -1.2960 -1.1014  0.0797
14439TIP3    H264733   3.450   5.904   1.200 -2.0786  0.0608 -0.7575
14440TIP3   OH264734   6.070   0.612  13.858  0.2469  0.7280  0.5631
14440TIP3    H164735   6.036   0.538  13.908  1.3224  1.2823  2.1884
14440TIP3    H264736   6.157   0.628  13.895  0.2396  2.4616 -0.1045
14441TIP3   OH264737   6.714   2.471  16.443 -0.0214  0.1258  0.2442
14441TIP3    H164738   6.638   2.529  16.449  0.9778  1.5781 -0.8299
14441TIP3    H264739   6.789   2.527  16.465  1.0422 -0.5578 -1.5309
14442TIP3   OH264740   4.780   2.920  13.142 -0.2901 -0.2200  0.2196
14442TIP3    H164741   4.795   2.833  13.105  0.5786 -0.6728  1.6212
14442TIP3    H264742   4.686   2.935  13.129 -0.7180 -1.9182  1.1048
14443TIP3   OH264743   3.742   1.478   4.031 -0.3390 -0.0468 -0.1819
14443TIP3    H164744   3.734   1.569   4.060  0.2883 -0.0349 -0.0469
14443TIP3    H264745   3.834   1.456   4.044  0.3405  0.4820 -3.7267
14444TIP3   OH264746   1.260   3.303   3.251  0.1106  0.2254  0.3395
14444TIP3    H164747   1.267   3.220   3.298  0.6705  0.1764  0.1736
14444TIP3    H264748   1.171   3.303   3.216  1.1748 -1.8673 -2.5411
14445TIP3   OH264749   5.882   2.936  16.752 -0.2129 -0.2911 -0.1708
14445TIP3    H164750   5.957   2.886  16.784 -0.5177 -1.4783 -1.2778
14445TIP3    H264751   5.863   2.999  16.822  0.8641 -0.9943  0.7627
14446TIP3   OH264752   2.194   0.949  14.944 -0.0875 -0.2022  0.0705
14446TIP3    H164753   2.190   0.929  14.850 -0.1959 -2.0790  0.4443
14446TIP3    H264754   2.277   0.993  14.956 -0.4582  0.8265 -1.0457
14447TIP3   OH264755   3.052   2.388  12.949 -0.2705  0.0898 -0.0647
14447TIP3    H164756   3.147   2.382  12.961 -0.3965  1.4956  1.7775
14447TIP3    H264757   3.033   2.482  12.952 -1.5879 -0.1068 -1.5839
14448TIP3   OH264758   1.357   5.618   5.455 -0.1956  0.3952 -0.1029
14448TIP3    H164759   1.340   5.690   5.394  1.5156 -0.2610 -1.4102
14448TIP3    H264760   1.451   5.625   5.475 -0.1853 -0.9713  0.4056
14449TIP3   OH264761   0.207   4.685   5.989 -0.0968 -0.0995  1.2221
14449TIP3    H164762   0.234   4.607   6.037  1.2404  1.4779  3.0749
14449TIP3    H264763   0.229   4.758   6.046 -1.0973  1.6812 -0.5882
14450TIP3   OH264764   4.689   2.692   4.541  0.1979 -0.4423  0.0338
14450TIP3    H164765   4.649   2.778   4.554 -1.7165 -1.3404  0.2601
14450TIP3    H264766   4.680   2.648   4.625 -0.5484 -1.5344 -0.5938
14451TIP3   OH264767   3.354   5.962   1.498  0.0884 -0.2410  0.2857
14451TIP3    H164768   3.321   5.884   1.543  0.8797  0.0484  1.3978
14451TIP3    H264769   3.425   5.994   1.554 -1.4299  2.3398  0.8602
14452TIP3   OH264770   1.797   0.418  11.914 -0.2860 -0.0893 -0.3375
14452TIP3    H164771   1.797   0.428  12.009  1.3570  1.2686 -0.4654
14452TIP3    H264772   1.844   0.336  11.899  1.3362  0.7655 -0.0524
14453TIP3   OH264773   3.011   5.649   2.182  0.5643  0.5301  0.0903
14453TIP3    H164774   2.999   5.744   2.178  2.5706  0.8572  1.2129
14453TIP3    H264775   3.071   5.629   2.110  1.9340  0.4302  1.2473
14454TIP3   OH264776   2.859   0.530  10.878  0.2592 -1.0079 -0.1206
14454TIP3    H164777   2.873   0.554  10.786  2.2913 -2.0309 -0.1075
14454TIP3    H264778   2.876   0.611  10.927  0.3542 -0.7644 -0.5567
14455TIP3   OH264779   1.180   5.014  15.129  0.9006  0.1444 -0.2635
14455TIP3    H164780   1.264   4.997  15.171 -0.5195 -1.6334  1.9415
14455TIP3    H264781   1.143   4.928  15.114 -1.1018  0.9441 -0.0152
14456TIP3   OH264782   2.355   2.531  13.915 -0.1374 -0.1526  0.4980
14456TIP3    H164783   2.298   2.552  13.841 -0.3236 -0.5405  0.5309
14456TIP3    H264784   2.303   2.554  13.992 -0.0073  0.0929  0.5129
14457TIP3   OH264785   2.987   1.264  14.524 -0.6100 -0.3466  0.3533
14457TIP3    H164786   3.001   1.353  14.556  0.1151 -0.0199 -0.8611
14457TIP3    H264787   3.014   1.207  14.597  1.3459  0.3727  0.1910
14458TIP3   OH264788   0.997   6.569   3.182 -0.0092 -0.2451  0.3065
14458TIP3    H164789   0.962   6.630   3.117  0.7994 -0.1411 -0.0366
14458TIP3    H264790   1.088   6.596   3.193  0.0118 -0.6233  1.0642
14459TIP3   OH264791   5.981   4.550   2.812 -0.2436 -0.0386 -0.0044
14459TIP3    H164792   5.988   4.535   2.717  4.0887  1.0126  0.0211
14459TIP3    H264793   6.026   4.476   2.851  1.3222  1.4363  1.0367
14460TIP3   OH264794   3.935   4.474   5.710 -0.4909  0.1790 -0.1045
14460TIP3    H164795   3.909   4.485   5.801 -1.2614 -0.6374 -0.2115
14460TIP3    H264796   3.888   4.395   5.681 -0.3342  0.4866 -1.2300
14461TIP3   OH264797   6.023   0.744  15.701  0.2919 -0.0948 -0.2658
14461TIP3    H164798   5.999   0.765  15.611  0.0126 -3.4693 -1.0260
14461TIP3    H264799   6.111   0.708  15.695  1.7460  2.9998  1.3075
14462TIP3   OH264800   6.362   2.192   5.751 -0.1589  0.5116 -0.0343
14462TIP3    H164801   6.376   2.282   5.721 -1.9086  0.8891  0.2742
14462TIP3    H264802   6.273   2.190   5.784  0.4774 -0.8709  1.7001
14463TIP3   OH264803   5.979   6.747   0.105  0.4270 -0.0044 -0.3953
14463TIP3    H164804   5.932   6.671   0.137 -0.2644  1.0948  1.2741
14463TIP3    H264805   6.059   6.750   0.158 -0.0932  1.0818  0.3356
14464TIP3   OH264806   4.905   1.831   1.437 -0.1433  0.1531 -0.2348
14464TIP3    H164807   4.824   1.781   1.433 -0.4172  0.4285  1.3992
14464TIP3    H264808   4.910   1.877   1.353 -1.0249 -0.8647 -0.8445
14465TIP3   OH264809   4.035   3.124   0.159 -0.1255  0.6844 -0.0189
14465TIP3    H164810   4.126   3.100   0.171  0.3879  1.5312 -1.9440
14465TIP3    H264811   3.993   3.044   0.126 -0.2033  0.1412  1.3961
14466TIP3   OH264812   5.840   5.912  11.319  0.1527 -0.0677  0.0768
14466TIP3    H164813   5.848   5.994  11.369 -1.1501 -0.4334  0.9234
14466TIP3    H264814   5.879   5.932  11.234  0.9795  1.0537  0.6983
14467TIP3   OH264815   2.004   3.853   5.776 -0.4390  0.2891 -0.4669
14467TIP3    H164816   1.973   3.852   5.867  0.4645  0.7783 -0.1503
14467TIP3    H264817   2.080   3.911   5.777 -2.9174  3.7926 -2.3597
14468TIP3   OH264818   2.085   3.101  15.063  0.4262 -0.4400  0.1575
14468TIP3    H164819   2.132   3.184  15.062  0.2419 -0.3335  0.3545
14468TIP3    H264820   2.095   3.069  15.152  0.0701 -0.3847  0.2173
14469TIP3   OH264821   0.847   6.656   2.959 -0.2701 -0.8128  0.2984
14469TIP3    H164822   0.768   6.602   2.952 -1.9474  1.5901  0.1630
14469TIP3    H264823   0.882   6.660   2.870 -0.4791 -1.1658  0.1987
14470TIP3   OH264824   4.255   6.310   4.179 -0.1924  0.0861 -0.0307
14470TIP3    H164825   4.288   6.231   4.222  0.5079  0.0687 -0.5892
14470TIP3    H264826   4.306   6.381   4.219 -0.3702  0.1922  0.0072
14471TIP3   OH264827   1.574   3.082  15.998  0.1108  0.0562  0.1809
14471TIP3    H164828   1.511   3.013  16.015  1.8658 -1.5895  0.1865
14471TIP3    H264829   1.612   3.060  15.913 -0.7296  2.1379 -0.7781
14472TIP3   OH264830   6.014   1.083  11.036  0.0346  0.5007 -0.4420
14472TIP3    H164831   6.082   1.084  11.103  0.6855  3.5992 -1.0384
14472TIP3    H264832   6.028   1.164  10.987 -2.9251  0.2783 -1.7812
14473TIP3   OH264833   3.010   3.531   2.101  0.4186 -0.6005 -0.0756
14473TIP3    H164834   2.918   3.507   2.093  0.2103  0.3490 -0.5269
14473TIP3    H264835   3.011   3.598   2.169  0.8443 -0.9775  0.2932
14474TIP3   OH264836   1.293   3.873  16.446 -0.0970 -0.4422  0.4296
14474TIP3    H164837   1.293   3.947  16.385 -1.6417 -0.4519  0.3948
14474TIP3    H264838   1.269   3.911  16.530 -0.1662 -0.7802  0.5638
14475TIP3   OH264839   3.881   6.766  13.318  0.2142 -0.4966 -0.0975
14475TIP3    H164840   3.881   6.845  13.371  0.3675 -0.9310  0.5540
14475TIP3    H264841   3.817   6.708  13.359  1.3086 -1.3653  0.4221
14476TIP3   OH264842   4.981   5.129  13.180 -0.1238  0.1058  0.1811
14476TIP3    H164843   5.054   5.190  13.191 -0.0668  0.8128 -3.5110
14476TIP3    H264844   5.008   5.072  13.107 -3.4278  0.7487 -1.6493
14477TIP3   OH264845   3.763   2.313  10.335 -0.7558  0.2436 -0.1387
14477TIP3    H164846   3.844   2.262  10.344 -0.8968  0.2895  1.5779
14477TIP3    H264847   3.779   2.393  10.384 -2.2915 -0.3059  1.3138
14478TIP3   OH264848   5.066   3.586   0.281 -0.2001 -0.1194  0.3022
14478TIP3    H164849   4.988   3.641   0.269  1.6231  2.4663 -0.0246
14478TIP3    H264850   5.140   3.646   0.269  1.8543 -2.1675  2.2981
14479TIP3   OH264851   3.808   6.200   3.432 -0.2929  0.2746  0.2572
14479TIP3    H164852   3.746   6.227   3.500 -0.2908  3.4482 -0.9277
14479TIP3    H264853   3.816   6.276   3.375  2.0367 -1.2915 -1.6094
14480TIP3   OH264854   3.102   1.534  11.995 -0.5468 -0.6235  0.1317
14480TIP3    H164855   3.015   1.510  11.962 -1.0750  2.0547 -0.5764
14480TIP3    H264856   3.145   1.575  11.920  0.8398 -0.7309  0.8545
14481TIP3   OH264857   5.287   3.335  11.339 -0.8232  0.0463  0.4067
14481TIP3    H164858   5.197   3.304  11.337 -0.5815 -0.9655  3.0322
14481TIP3    H264859   5.306   3.347  11.432  1.9994 -0.4994 -0.0574
14482TIP3   OH264860   1.212   6.436  12.142  0.7882 -0.8334 -0.3382
14482TIP3    H164861   1.126   6.395  12.137 -0.0798  1.0589 -1.5313
14482TIP3    H264862   1.239   6.446  12.050  1.4250  0.3335 -0.0379
14483TIP3   OH264863   2.354   5.718   4.490  0.7593 -0.1651 -1.1178
14483TIP3    H164864   2.287   5.651   4.471  0.0537  0.1484  0.2110
14483TIP3    H264865   2.428   5.694   4.434 -1.0199  0.3683 -3.7617
14484TIP3   OH264866   4.676   3.878   5.518  0.0996  0.2289  0.2849
14484TIP3    H164867   4.753   3.934   5.515 -0.2194  0.6503 -0.1303
14484TIP3    H264868   4.697   3.812   5.583  0.8987  0.2149  0.0186
14485TIP3   OH264869   3.501   2.803   1.697 -0.2021  0.1156  0.2633
14485TIP3    H164870   3.532   2.756   1.620  0.1762  0.9117 -0.0791
14485TIP3    H264871   3.555   2.770   1.769 -1.7151 -1.8916  0.5251
14486TIP3   OH264872   4.420   2.311   3.395 -0.1292  0.1756 -0.5260
14486TIP3    H164873   4.378   2.376   3.339 -2.0925  1.1175  1.9837
14486TIP3    H264874   4.384   2.227   3.365 -0.6663  0.5988 -1.0809
14487TIP3   OH264875   1.928   6.002  15.505 -1.1379 -0.2925  0.1378
14487TIP3    H164876   1.843   6.033  15.537  0.1359  0.1843  3.1467
14487TIP3    H264877   1.978   6.082  15.489  0.1771 -0.6440  2.4009
14488TIP3   OH264878   2.279   0.103   4.815  0.3647 -0.1422  0.8094
14488TIP3    H164879   2.363   0.070   4.847 -0.6769 -2.3921  1.3675
14488TIP3    H264880   2.214   0.063   4.873 -1.2021  0.1815 -0.6609
14489TIP3   OH264881   3.518   5.526   2.207  0.5959 -0.2079  0.2416
14489TIP3    H164882   3.479   5.445   2.238  1.0438 -0.4276  0.2406
14489TIP3    H264883   3.446   5.573   2.165  0.1432 -0.2036  1.0280
14490TIP3   OH264884   4.055   5.083   5.104  0.6286 -0.5705 -0.0051
14490TIP3    H164885   4.105   5.153   5.146 -1.0006  0.9104 -0.4215
14490TIP3    H264886   4.055   5.011   5.167  4.5431 -1.2177 -0.6414
14491TIP3   OH264887   4.285   2.495   3.227 -0.0850 -0.0834 -0.3771
14491TIP3    H164888   4.292   2.476   3.134  0.3972 -1.1040 -0.1403
14491TIP3    H264889   4.277   2.591   3.232  1.9284  0.1565 -1.3581
14492TIP3   OH264890   0.521   1.146  13.858  0.2467 -0.4740  0.3432
14492TIP3    H164891   0.611   1.113  13.863  0.8178  0.9518 -0.2461
14492TIP3    H264892   0.502   1.177  13.946 -0.3390 -2.4723  0.9304
14493TIP3   OH264893   0.143   6.358  15.813  0.3640  0.4042  0.5297
14493TIP3    H164894   0.095   6.307  15.879 -2.9433 -0.1102 -2.1158
14493TIP3    H264895   0.167   6.293  15.747  3.5946  0.9227  1.1421
14494TIP3   OH264896   5.358   3.915  15.741 -0.1945  0.2260 -0.1609
14494TIP3    H164897   5.394   3.827  15.751  0.1797  0.2850 -0.9140
14494TIP3    H264898   5.383   3.941  15.652  2.9932  2.5493  1.2834
14495TIP3   OH264899   4.384   2.367   1.477  0.4841 -0.2694  0.1681
14495TIP3    H164900   4.437   2.428   1.427 -0.0197 -0.0063 -0.0496
14495TIP3    H264901   4.414   2.376   1.567 -0.5383  1.3161  0.3673
14496TIP3   OH264902   1.441   5.490   2.720 -0.4916 -0.4410 -0.4524
14496TIP3    H164903   1.531   5.502   2.753 -0.5485  1.0081 -0.8055
14496TIP3    H264904   1.389   5.475   2.799  0.0086 -1.0119 -0.2229
14497TIP3   OH264905   3.135   4.594   2.842  0.2551  0.7586 -0.1654
14497TIP3    H164906   3.191   4.565   2.915 -1.6681 -0.2570  0.9643
14497TIP3    H264907   3.177   4.558   2.764  0.8565 -0.5282  0.7202
14498TIP3   OH264908   1.081   6.178   2.847  0.2555  0.2306 -0.1472
14498TIP3    H164909   1.080   6.233   2.925  1.8478 -1.7655  1.3457
14498TIP3    H264910   1.048   6.093   2.877  2.6282 -1.1010 -1.1880
14499TIP3   OH264911   2.889   4.412   5.889 -0.0835 -0.1702 -0.3470
14499TIP3    H164912   2.883   4.347   5.819  0.8878 -0.8938  0.2103
14499TIP3    H264913   2.981   4.407   5.917 -0.3855  0.3278  0.7522
14500TIP3   OH264914   2.581   1.424   0.407  0.1110 -0.0739 -0.3575
14500TIP3    H164915   2.524   1.489   0.365  0.8107  0.2825 -0.7768
14500TIP3    H264916   2.595   1.459   0.495  0.3712  0.2762 -0.5349
14501TIP3   OH264917   6.151   1.759   4.172  0.3572 -0.0374  0.1673
14501TIP3    H164918   6.187   1.843   4.200 -1.0214  0.0297  1.8035
14501TIP3    H264919   6.058   1.765   4.191 -0.1048 -1.1960 -1.5744
14502TIP3   OH264920   2.322   5.249   1.572 -0.2281  0.5424 -0.5639
14502TIP3    H164921   2.304   5.324   1.629 -1.9267 -0.3549  0.0925
14502TIP3    H264922   2.254   5.252   1.506  1.0708  0.9107 -1.9090
14503TIP3   OH264923   1.520   2.338   1.535 -0.5843  0.4475  0.1479
14503TIP3    H164924   1.597   2.285   1.516  0.1032  1.3487  0.3737
14503TIP3    H264925   1.474   2.347   1.451  0.3176  1.0913 -0.2860
14504TIP3   OH264926   6.159   3.988   4.120  0.2542 -0.3857 -0.0669
14504TIP3    H164927   6.171   4.035   4.038  0.8182 -1.7523 -0.7859
14504TIP3    H264928   6.243   3.997   4.166  0.8350 -1.8365 -0.8208
14505TIP3   OH264929   0.770   2.036  16.613  0.1880  0.3034 -0.0463
14505TIP3    H164930   0.720   2.114  16.591 -0.6233 -0.0793  0.4201
14505TIP3    H264931   0.779   1.990  16.529  0.6001  0.8526 -0.3037
14506TIP3   OH264932   5.368   4.635  15.508 -0.3534  0.5251  0.1028
14506TIP3    H164933   5.348   4.570  15.441  0.7238 -0.5873  0.8484
14506TIP3    H264934   5.333   4.717  15.473 -1.3471 -0.3687 -1.0324
14507TIP3   OH264935   0.680   2.110  14.502  0.4617  0.1430  0.0084
14507TIP3    H164936   0.606   2.163  14.531  0.4427 -0.0793  0.3840
14507TIP3    H264937   0.676   2.112  14.407 -0.0066  0.1654  0.0274
14508TIP3   OH264938   1.427   2.408   5.409  0.0467  0.2165  0.1834
14508TIP3    H164939   1.374   2.472   5.361  0.2731  0.8900  0.8160
14508TIP3    H264940   1.498   2.385   5.349  0.5928  1.4046  0.3642
14509TIP3   OH264941   2.327   6.076  14.942 -0.2632  0.0156  0.2412
14509TIP3    H164942   2.398   6.049  15.000 -1.0741  0.3122  1.3824
14509TIP3    H264943   2.251   6.083  14.999 -0.8557  1.2562 -0.6898
14510TIP3   OH264944   3.431   1.536   6.168  0.1352  0.0388  0.0688
14510TIP3    H164945   3.475   1.453   6.156  0.7077  0.2706  0.5520
14510TIP3    H264946   3.447   1.584   6.087 -1.6324 -0.9595 -0.9164
14511TIP3   OH264947   2.975   5.850   0.393 -0.0568  0.4915  0.0693
14511TIP3    H164948   2.980   5.794   0.316  1.4243 -1.0138  1.2320
14511TIP3    H264949   3.053   5.905   0.389  1.0716 -0.9307  1.4581
14512TIP3   OH264950   3.442   5.149   4.095 -0.9908  0.1171 -0.4219
14512TIP3    H164951   3.492   5.169   4.016 -1.1147  2.4416  0.0341
14512TIP3    H264952   3.463   5.221   4.155 -2.3431 -0.6154  0.9661
14513TIP3   OH264953   5.028   4.327   0.130 -0.7037  0.3751 -0.0332
14513TIP3    H164954   5.112   4.369   0.109  0.6183 -2.4454 -0.6144
14513TIP3    H264955   4.964   4.398   0.126  1.3152  2.1549 -1.8268
14514TIP3   OH264956   3.835   6.431  15.095 -0.3202  0.1300 -0.6433
14514TIP3    H164957   3.749   6.461  15.066 -1.7917  0.7891  3.9425
14514TIP3    H264958   3.860   6.494  15.163  2.1528 -2.0619  0.5521
14515TIP3   OH264959   1.385   2.230  14.874 -0.4433 -0.1585 -0.2122
14515TIP3    H164960   1.396   2.319  14.909  0.0077 -0.6489  0.9258
14515TIP3    H264961   1.291   2.215  14.876 -0.4087 -0.3412  1.2788
14516TIP3   OH264962   3.052   6.753   2.056 -0.6508  0.3161 -0.5785
14516TIP3    H164963   3.032   6.692   2.127  0.4348 -0.6026 -1.0614
14516TIP3    H264964   2.992   6.729   1.985 -0.1372 -0.2704 -0.8135
14517TIP3   OH264965   5.616   4.878  16.150 -0.4091  0.4578  0.3522
14517TIP3    H164966   5.577   4.961  16.122 -2.0673 -0.6139 -0.6322
14517TIP3    H264967   5.574   4.812  16.094  0.8540 -1.0531  1.1399
14518TIP3   OH264968   4.786   5.312   3.490 -0.7646 -0.0429 -0.0148
14518TIP3    H164969   4.771   5.248   3.420 -1.9400  1.2482 -0.9522
14518TIP3    H264970   4.700   5.348   3.508 -0.3755  0.0542  1.7228
14519TIP3   OH264971   2.796   6.771   3.765  0.8917 -0.2856  0.1562
14519TIP3    H164972   2.844   6.817   3.696 -0.3479  0.4784 -0.2036
14519TIP3    H264973   2.740   6.838   3.805  0.5128 -1.0465  0.9254
14520TIP3   OH264974   2.631   4.831  13.610 -0.1102 -0.2398 -0.1567
14520TIP3    H164975   2.623   4.881  13.529  0.3124  0.5695  0.3008
14520TIP3    H264976   2.647   4.741  13.581  0.2518  0.0805 -0.9726
14521TIP3   OH264977   0.006   0.281   5.454  0.0381  0.2436  0.2421
14521TIP3    H164978  -0.058   0.337   5.499 -1.7145 -1.4600 -0.0596
14521TIP3    H264979  -0.046   0.236   5.387  2.1310  0.9599 -1.9414
14522TIP3   OH264980   6.076   1.109  11.705  0.9105 -0.9562  0.5596
14522TIP3    H164981   6.111   1.129  11.618 -2.9080 -0.1973 -0.8811
14522TIP3    H264982   6.068   1.194  11.748 -1.8136 -0.8209 -0.1887
14523TIP3   OH264983   6.784   5.146  16.873 -0.5864  0.1441  0.3578
14523TIP3    H164984   6.740   5.086  16.933 -0.4144  1.0602  1.4362
14523TIP3    H264985   6.734   5.227  16.880  1.2402  1.1989  1.6103
14524TIP3   OH264986   3.086   6.458  16.348 -0.2086 -0.4472  0.8037
14524TIP3    H164987   3.080   6.514  16.271  2.1787 -2.0019 -0.5980
14524TIP3    H264988   3.119   6.516  16.417  0.7829  0.2236 -0.2142
14525TIP3   OH264989   2.529   4.491   3.278  0.2675  0.1818  0.1478
14525TIP3    H164990   2.553   4.401   3.255 -1.3134 -0.4293  0.8292
14525TIP3    H264991   2.612   4.539   3.278  1.3483 -1.6241  1.3379
14526TIP3   OH264992   5.662   1.730   1.812  0.2451 -0.1033 -0.1899
14526TIP3    H164993   5.584   1.675   1.802 -1.0427  0.8946  3.3944
14526TIP3    H264994   5.628   1.818   1.824  1.9812  0.5141  0.3115
14527TIP3   OH264995   3.115   0.862   1.422  0.1155  0.0382  0.0942
14527TIP3    H164996   3.026   0.843   1.394  0.2742  0.0043 -0.4049
14527TIP3    H264997   3.107   0.937   1.482 -0.0240  1.5384 -1.7450
14528TIP3   OH264998   5.571   6.557   1.671 -0.1924  0.3913 -0.5465
14528TIP3    H164999   5.663   6.546   1.695  0.6228  2.7147 -2.3363
14528TIP3    H265000   5.558   6.495   1.599  0.3468  0.9438 -1.1279
14529TIP3   OH265001   0.745   3.170   1.547 -0.1554  0.2250 -0.4691
14529TIP3    H165002   0.715   3.092   1.594  0.8187  0.3474  0.3799
14529TIP3    H265003   0.796   3.219   1.612 -2.0447  2.3632 -0.5096
14530TIP3   OH265004   5.864   5.744  12.643 -0.2644 -0.4705  0.3278
14530TIP3    H165005   5.918   5.822  12.649 -0.2910 -0.4488  0.2939
14530TIP3    H265006   5.871   5.702  12.728 -0.3751 -0.3482  0.3976
14531TIP3   OH265007   6.119   2.390  11.466  0.0100  0.4968  0.0558
14531TIP3    H165008   6.196   2.396  11.409 -0.1537  0.8897 -0.1236
14531TIP3    H265009   6.108   2.296  11.481  1.4893  0.5073  1.3980
14532TIP3   OH265010   0.028   0.026  14.373 -0.4658 -0.0060 -0.3476
14532TIP3    H165011   0.075  -0.056  14.361 -0.7101 -0.4255  1.4713
14532TIP3    H265012   0.097   0.092  14.381 -0.2384 -0.2438 -0.3432
14533TIP3   OH265013   0.676   1.608  11.818  0.1245 -0.2405  0.3563
14533TIP3    H165014   0.657   1.670  11.888 -0.2835 -1.8299  1.6792
14533TIP3    H265015   0.771   1.599  11.819  0.3115  1.2790 -0.6811
14534TIP3   OH265016   1.820   4.521  14.208  0.0408 -0.6836 -0.4512
14534TIP3    H165017   1.914   4.527  14.229  0.0306  0.2237 -0.6365
14534TIP3    H265018   1.808   4.581  14.135 -0.9338  0.2433  0.4391
14535TIP3   OH265019   6.589   3.013   4.265  0.1261 -0.4350  0.4371
14535TIP3    H165020   6.603   3.065   4.345  0.1051  0.4613 -0.1340
14535TIP3    H265021   6.585   3.078   4.195  3.2148 -1.4219 -0.7369
14536TIP3   OH265022   4.698   4.667  17.058 -0.0090 -0.6837 -0.0012
14536TIP3    H165023   4.632   4.690  17.123 -0.0602 -2.3279  0.5632
14536TIP3    H265024   4.662   4.591  17.013  1.5806 -1.7310  0.4571
14537TIP3   OH265025   3.451   6.046  12.723 -0.1581 -0.0508  0.1411
14537TIP3    H165026   3.490   6.045  12.810  0.8932  0.1942 -0.3107
14537TIP3    H265027   3.525   6.030  12.664 -0.8624 -0.2519 -0.6998
14538TIP3   OH265028   6.460   5.812  16.660  0.7109 -0.4875  0.2004
14538TIP3    H165029   6.479   5.901  16.689  1.5042 -0.8579  0.8183
14538TIP3    H265030   6.365   5.806  16.663  0.6444  0.3780  0.0405
14539TIP3   OH265031   5.823   5.715  13.133  0.5220 -0.4327 -0.4647
14539TIP3    H165032   5.829   5.679  13.221  1.9260  1.7860  0.3850
14539TIP3    H265033   5.730   5.708  13.110  0.2172 -1.3757  1.0396
14540TIP3   OH265034   6.572   3.489  15.904 -0.2185 -0.2147 -0.1044
14540TIP3    H165035   6.484   3.450  15.908 -0.2760  0.0795  2.2859
14540TIP3    H265036   6.628   3.424  15.947  0.4400  0.3276 -0.1441
14541TIP3   OH265037   1.032   5.861  12.528  0.2119  0.8125 -0.0114
14541TIP3    H165038   1.122   5.847  12.500 -0.3716  0.6961 -1.8802
14541TIP3    H265039   0.981   5.797  12.477 -0.7768 -0.0361  1.9937
14542TIP3   OH265040   6.230   3.529   2.568 -0.3190 -0.0485 -0.3469
14542TIP3    H165041   6.286   3.574   2.631  0.1068  2.7527 -2.6774
14542TIP3    H265042   6.141   3.551   2.596 -0.1801 -0.0708  0.1311
14543TIP3   OH265043   1.364   6.740  16.389  0.0357  0.2180 -0.2960
14543TIP3    H165044   1.347   6.708  16.301 -0.3214  0.0931 -0.1849
14543TIP3    H265045   1.388   6.661  16.439 -0.0898  0.2345 -0.2047
14544TIP3   OH265046   6.735   3.389  13.608  0.3103  0.6849  0.6057
14544TIP3    H165047   6.782   3.305  13.617 -1.1000 -0.0886  0.7978
14544TIP3    H265048   6.744   3.410  13.515  2.2085  1.2475  0.8886
14545TIP3   OH265049   1.783   6.496   1.306 -0.1994 -0.0171 -0.1405
14545TIP3    H165050   1.818   6.494   1.395 -0.6267  1.3134  0.0583
14545TIP3    H265051   1.829   6.568   1.264  1.0036 -1.4987 -1.4347
14546TIP3   OH265052   6.175   1.956   2.119 -0.1476 -0.1462  0.2839
14546TIP3    H165053   6.159   1.915   2.034 -0.3949  1.1088 -0.2954
14546TIP3    H265054   6.261   1.924   2.146  0.4820  0.4053 -1.0305
14547TIP3   OH265055   0.951   5.555  15.742 -0.8000 -0.5907  0.2172
14547TIP3    H165056   0.864   5.515  15.744 -1.3708  0.6795  1.6682
14547TIP3    H265057   1.003   5.500  15.800 -0.5375 -1.5234 -0.8800
14548TIP3   OH265058   3.856   5.676  11.739  0.1730  0.0027  0.0668
14548TIP3    H165059   3.944   5.700  11.711  0.0866  1.2299  0.8007
14548TIP3    H265060   3.798   5.729  11.683 -0.0257  1.4810  1.6387
14549TIP3   OH265061   3.249   2.363  16.658  0.4344  0.3949  0.0991
14549TIP3    H165062   3.321   2.349  16.719 -0.9760 -0.3784  1.6204
14549TIP3    H265063   3.231   2.456  16.663  1.8872  0.7561 -0.9542
14550TIP3   OH265064   1.832   2.690  15.030 -0.1978 -0.5706  0.2455
14550TIP3    H165065   1.789   2.776  15.027 -0.2598 -0.6085 -0.0387
14550TIP3    H265066   1.859   2.675  14.939  0.4843 -0.5122  0.4446
14551TIP3   OH265067   4.826   0.734   1.890  0.2317 -0.2449  0.8835
14551TIP3    H165068   4.791   0.647   1.869  0.6918 -0.4575  0.9868
14551TIP3    H265069   4.916   0.731   1.858  0.5521 -0.1401  1.7674
14552TIP3   OH265070   0.097   5.957  12.508 -0.0547 -0.0818  0.0487
14552TIP3    H165071   0.170   5.985  12.563  0.1161 -0.4768  0.0250
14552TIP3    H265072   0.080   5.867  12.535 -0.4883 -0.0113  0.0071
14553TIP3   OH265073   1.897   4.197  14.458 -0.6591  0.2056  0.1351
14553TIP3    H165074   1.947   4.147  14.393 -0.9223 -1.2154  1.0165
14553TIP3    H265075   1.964   4.238  14.513 -0.4366  1.3183 -0.9302
14554TIP3   OH265076   4.038   6.296  10.811 -0.4218 -1.0086  0.3374
14554TIP3    H165077   3.999   6.249  10.737  0.8433 -0.0797 -0.9460
14554TIP3    H265078   4.099   6.234  10.849 -0.7938 -1.3616  0.3569
14555TIP3   OH265079   4.705   1.139   5.404 -0.2799 -0.2929  0.3284
14555TIP3    H165080   4.621   1.095   5.420  0.9429 -2.3415  1.3667
14555TIP3    H265081   4.770   1.080   5.443  1.7111  0.8516 -1.2099
14556TIP3   OH265082   4.126   5.038  16.872 -0.3792  0.0858 -1.0137
14556TIP3    H165083   4.151   5.015  16.782 -2.0937 -0.3949 -1.3749
14556TIP3    H265084   4.144   4.959  16.922 -0.6097 -0.0568 -1.1560
14557TIP3   OH265085   5.568   3.651  17.046  0.9248  0.2405 -0.2291
14557TIP3    H165086   5.590   3.745  17.046 -2.1812  1.0514 -2.1955
14557TIP3    H265087   5.495   3.644  17.108 -0.3634 -0.4590 -1.7991
14558TIP3   OH265088   4.184   5.377   0.192  0.3349 -0.9812  0.3630
14558TIP3    H165089   4.180   5.410   0.281  0.7647  0.6989 -0.2120
14558TIP3    H265090   4.147   5.447   0.138  0.8696 -1.6034 -0.8551
14559TIP3   OH265091   4.153   1.513   0.072  0.5699 -0.4305 -0.2828
14559TIP3    H165092   4.184   1.554  -0.009 -1.0153  2.3559  0.4555
14559TIP3    H265093   4.221   1.532   0.136  0.6740 -0.4825 -0.3789
14560TIP3   OH265094   3.723   3.222   3.877 -0.2504 -0.1739  0.0095
14560TIP3    H165095   3.738   3.220   3.972 -1.8777 -0.4248  0.2722
14560TIP3    H265096   3.807   3.197   3.839  0.8589  1.4366  1.3345
14561TIP3   OH265097   1.576   4.376   0.668  0.2969 -1.0913  0.0200
14561TIP3    H165098   1.580   4.448   0.606  1.0444 -0.4511  0.7998
14561TIP3    H265099   1.496   4.392   0.719  0.3455 -0.9300  0.0458
14562TIP3   OH265100   0.136   2.266   1.585  0.2567  0.4300 -0.7188
14562TIP3    H165101   0.229   2.277   1.606  0.3693  0.2068 -1.0984
14562TIP3    H265102   0.131   2.179   1.546 -0.3838 -0.2556  0.8658
14563TIP3   OH265103   6.251   4.135  14.359 -0.2902  0.6185 -0.6370
14563TIP3    H165104   6.215   4.220  14.383  1.7999  1.5541 -0.6480
14563TIP3    H265105   6.243   4.131  14.264  1.0175  1.5197 -0.8092
14564TIP3   OH265106   1.763   6.232   1.230  0.5542  0.4550  0.0429
14564TIP3    H165107   1.815   6.214   1.153 -0.4907 -0.4247 -0.4772
14564TIP3    H265108   1.790   6.319   1.258  2.5213 -0.1126 -0.0151
14565TIP3   OH265109   2.608   6.196  16.368  0.4657 -0.0351  0.9484
14565TIP3    H165110   2.678   6.176  16.306  0.5298  0.4347  0.8695
14565TIP3    H265111   2.649   6.252  16.433  0.2094  0.0923  0.9999
14566TIP3   OH265112   1.819   5.051  12.496 -0.0301 -0.5423 -0.0851
14566TIP3    H165113   1.907   5.074  12.526  0.7206 -1.3870 -1.5785
14566TIP3    H265114   1.762   5.117  12.536  1.1999 -0.2987  1.3293
14567TIP3   OH265115   1.637   5.794   5.787 -0.1438  0.3276  0.3603
14567TIP3    H165116   1.718   5.787   5.838  0.3860  1.5256 -0.2971
14567TIP3    H265117   1.585   5.858   5.836 -0.7619 -0.5547  0.8629
14568TIP3   OH265118   3.579   4.236   3.723 -0.6589 -0.0912  0.7166
14568TIP3    H165119   3.509   4.290   3.688 -0.0223 -0.3061 -0.9500
14568TIP3    H265120   3.579   4.158   3.667  1.5738  0.3766 -0.0121
14569TIP3   OH265121   0.302   1.702   3.302  0.3312 -0.5492  0.2980
14569TIP3    H165122   0.239   1.640   3.340  0.9908 -1.3048  0.1781
14569TIP3    H265123   0.361   1.647   3.250  1.6587  0.0282  1.1561
14570TIP3   OH265124   3.898   3.700   5.322  0.3881  0.0518 -0.9214
14570TIP3    H165125   3.860   3.689   5.409 -0.9159  2.8295 -1.0682
14570TIP3    H265126   3.948   3.620   5.306 -1.4737 -1.5986  1.3011
14571TIP3   OH265127   0.048   6.427   2.717  0.1732  0.1191  0.0383
14571TIP3    H165128   0.085   6.343   2.744 -2.0746 -0.3836  1.7323
14571TIP3    H265129  -0.016   6.405   2.649  0.8253  0.6673 -0.7691
14572TIP3   OH265130   4.891   2.246   0.268  0.0955 -0.1188 -0.4644
14572TIP3    H165131   4.894   2.314   0.201 -0.1968 -1.9454 -2.3809
14572TIP3    H265132   4.807   2.259   0.312 -0.1492  0.4847 -1.1132
14573TIP3   OH265133   1.449   4.987   0.753 -0.5818  0.0102  0.0088
14573TIP3    H165134   1.416   4.962   0.839  0.9284 -0.1563  0.5600
14573TIP3    H265135   1.480   5.077   0.765 -0.1297 -0.1033 -0.2865
14574TIP3   OH265136   1.883   2.164  12.163 -0.4194  0.6670  0.5160
14574TIP3    H165137   1.814   2.176  12.098  0.4028 -0.9674 -0.6693
14574TIP3    H265138   1.838   2.124  12.238 -0.9381  0.4937  0.1178
14575TIP3   OH265139   0.257   0.154  17.037  0.4454  0.1298  0.0366
14575TIP3    H165140   0.175   0.111  17.061  0.2277 -0.2003 -1.2357
14575TIP3    H265141   0.312   0.084  17.004  1.1766  0.3807  0.7204
14576TIP3   OH265142   1.982   3.885   5.483  0.0114  0.4194  0.4069
14576TIP3    H165143   1.923   3.961   5.477 -1.7701 -0.9658 -0.1246
14576TIP3    H265144   2.000   3.876   5.576 -0.4617  0.9761  0.5583
14577TIP3   OH265145   6.018   5.058   2.699 -0.2293 -0.3912  0.3811
14577TIP3    H165146   6.058   4.998   2.762 -2.0023 -1.2328  0.7195
14577TIP3    H265147   6.002   5.004   2.621  3.1412  0.9314 -1.3519
14578TIP3   OH265148   4.836   0.637  11.861  0.1101 -0.3032 -0.2877
14578TIP3    H165149   4.750   0.658  11.898  0.7017 -0.4391  1.2206
14578TIP3    H265150   4.844   0.542  11.872  0.7892 -0.1788  0.3504
14579TIP3   OH265151   5.010   2.635   5.108  0.1728 -0.1544 -0.0851
14579TIP3    H165152   4.983   2.681   5.188 -1.5935 -0.1079 -0.6974
14579TIP3    H265153   4.991   2.697   5.038  3.3850  0.5271 -0.4351
14580TIP3   OH265154   2.186   2.663  13.744  0.0049 -1.2728  0.3145
14580TIP3    H165155   2.227   2.742  13.709 -0.9422  0.5389  3.1180
14580TIP3    H265156   2.114   2.644  13.683 -1.2271  1.4334  0.8537
14581TIP3   OH265157   3.105   2.664   3.936  0.3086  0.3918  0.5774
14581TIP3    H165158   3.015   2.684   3.909  0.1939 -1.3487 -0.3705
14581TIP3    H265159   3.133   2.742   3.984 -0.6980  2.1517 -1.5992
14582TIP3   OH265160   5.908   6.475   2.713  0.1424 -0.1047  0.0782
14582TIP3    H165161   5.827   6.427   2.733  1.5011 -2.0234  1.1596
14582TIP3    H265162   5.937   6.510   2.797  1.4728 -1.1409  0.0804
14583TIP3   OH265163   1.764   6.434  13.552 -0.5975  0.3106  0.3173
14583TIP3    H165164   1.748   6.375  13.478  0.5779  0.7296 -0.2951
14583TIP3    H265165   1.758   6.378  13.629 -0.8120 -0.3460 -0.1717
14584TIP3   OH265166   2.519   0.305   2.192  0.4566  0.6861  0.2999
14584TIP3    H165167   2.491   0.213   2.192  2.2227  0.0949  2.7641
14584TIP3    H265168   2.493   0.337   2.279  3.3046  1.4009  0.9204
14585TIP3   OH265169   2.850   5.885   3.400 -0.2735 -0.6688  0.4308
14585TIP3    H165170   2.840   5.880   3.305 -1.6086 -2.0846  0.6394
14585TIP3    H265171   2.805   5.965   3.425  0.1840 -0.2300 -0.1315
14586TIP3   OH265172   0.672   5.265  13.629 -0.3978 -0.1166  0.3384
14586TIP3    H165173   0.700   5.348  13.591  1.4695 -0.2352  1.3892
14586TIP3    H265174   0.586   5.249  13.590 -1.2136  2.7528  0.8085
14587TIP3   OH265175   4.766   0.966  12.025  0.2337 -0.0176  0.0292
14587TIP3    H165176   4.721   0.899  11.973  0.1775 -0.1184  0.2095
14587TIP3    H265177   4.802   1.026  11.960 -1.9850  1.2639 -0.0551
14588TIP3   OH265178   1.681   5.300   4.229 -0.3870  0.3260 -0.8590
14588TIP3    H165179   1.601   5.249   4.219 -0.6456  0.6854 -0.5896
14588TIP3    H265180   1.749   5.233   4.241 -0.6817  0.0312 -0.8002
14589TIP3   OH265181   1.765   2.152  16.769 -0.0809 -0.2999 -0.4078
14589TIP3    H165182   1.714   2.177  16.691 -1.4005  0.1046  0.5674
14589TIP3    H265183   1.728   2.068  16.796 -0.3444  0.0708  0.3960
14590TIP3   OH265184   6.384   4.445  13.178 -0.5329 -0.3003  0.2020
14590TIP3    H165185   6.374   4.523  13.233 -1.2322 -0.5442  0.4173
14590TIP3    H265186   6.455   4.468  13.118  2.9689 -1.4578  3.7051
14591TIP3   OH265187   2.681   4.855  15.123 -0.5818  0.4405 -0.1159
14591TIP3    H165188   2.586   4.843  15.130 -0.4463 -0.3427  0.3687
14591TIP3    H265189   2.695   4.870  15.029 -1.1494  0.1962 -0.2471
14592TIP3   OH265190   1.997   5.091   5.143  0.1926  0.1741  0.3611
14592TIP3    H165191   2.000   5.125   5.232  0.0820 -0.1580  0.4929
14592TIP3    H265192   1.909   5.112   5.112 -0.0519 -0.4432  0.6248
14593TIP3   OH265193   4.414   1.396  13.401 -0.2074 -0.1983 -0.3550
14593TIP3    H165194   4.350   1.402  13.472 -0.7278 -3.2861 -0.5154
14593TIP3    H265195   4.469   1.474  13.413 -2.2093  1.0189  1.4932
14594TIP3   OH265196   4.913   1.552  12.247  0.0118  0.2440 -0.2277
14594TIP3    H165197   4.963   1.585  12.173 -0.5236  0.7780 -0.3639
14594TIP3    H265198   4.915   1.624  12.311  0.6059 -0.2748  0.3429
14595TIP3   OH265199   0.711   3.601  14.672 -0.4815 -0.1465  0.2654
14595TIP3    H165200   0.678   3.535  14.733 -0.1725 -0.9653 -0.4407
14595TIP3    H265201   0.641   3.608  14.606 -0.2094 -0.2794 -0.0363
14596TIP3   OH265202   4.301   4.228   1.313  0.0421 -0.6091 -0.3318
14596TIP3    H165203   4.256   4.223   1.229 -1.5729 -1.8021  0.5566
14596TIP3    H265204   4.382   4.178   1.301  0.4478  0.3375 -1.5447
14597TIP3   OH265205   1.010   1.946  12.174 -0.1508 -0.6484  0.0710
14597TIP3    H165206   0.929   1.992  12.196 -1.3838 -0.9947 -3.3620
14597TIP3    H265207   1.018   1.878  12.240 -2.5023 -0.3955  0.6486
14598TIP3   OH265208   1.562   3.235  10.618  0.3237 -0.0718 -0.2456
14598TIP3    H165209   1.580   3.211  10.709  0.0482 -2.3039 -0.7484
14598TIP3    H265210   1.495   3.303  10.623 -1.1597 -1.5875  1.1834
14599TIP3   OH265211   1.002   4.753  12.423 -0.3539  0.3592  0.3874
14599TIP3    H165212   1.091   4.733  12.392 -0.6811  0.4390 -0.6077
14599TIP3    H265213   1.016   4.793  12.509  0.4788 -1.3404  1.0735
14600TIP3   OH265214   3.268   0.180   5.010 -0.7104 -0.4038 -0.4517
14600TIP3    H165215   3.192   0.191   5.067  0.9128 -0.5083  1.8146
14600TIP3    H265216   3.306   0.268   5.003  1.0455 -0.9691  1.4954
14601TIP3   OH265217   5.378   4.318   6.177 -0.3524 -0.5812 -0.0973
14601TIP3    H165218   5.332   4.385   6.228  1.2576 -1.2347  2.2964
14601TIP3    H265219   5.470   4.343   6.182  0.1015 -2.1331 -0.4247
14602TIP3   OH265220   2.291   4.228  10.786 -0.8681  0.4636 -0.0605
14602TIP3    H165221   2.351   4.194  10.720 -0.6863  1.1453 -0.2462
14602TIP3    H265222   2.221   4.271  10.737 -3.1497 -2.9418  0.0446
14603TIP3   OH265223   1.655   5.154  15.752 -0.3867 -0.5666  0.2543
14603TIP3    H165224   1.696   5.068  15.741  0.9353  0.1499 -0.5012
14603TIP3    H265225   1.620   5.175  15.666 -2.0455 -1.0081  0.8068
14604TIP3   OH265226   6.021   2.949  15.373  0.1251  0.0610  0.2918
14604TIP3    H165227   5.962   2.931  15.300 -0.0736 -0.5657  0.6083
14604TIP3    H265228   5.973   2.922  15.451 -0.1881  1.9558  0.7810
14605TIP3   OH265229   6.228   0.456   1.338 -0.3402 -0.8172 -0.1755
14605TIP3    H165230   6.208   0.504   1.258  0.0777  0.4990  0.4960
14605TIP3    H265231   6.293   0.510   1.383 -1.6469 -0.7940  1.7509
14606TIP3   OH265232   2.106   6.359  15.396  0.0965 -0.2073 -0.3338
14606TIP3    H165233   2.130   6.270  15.373  0.3968 -0.6444  1.5648
14606TIP3    H265234   2.057   6.392  15.320  2.1674 -1.0863 -2.0962
14607TIP3   OH265235   2.957   1.233  12.264 -0.2459 -0.2717 -0.3113
14607TIP3    H165236   2.946   1.192  12.178 -0.3525 -0.0010 -0.4262
14607TIP3    H265237   3.043   1.202  12.294 -1.0702 -1.9448  0.3580
14608TIP3   OH265238   4.869   0.789   5.195 -0.3011  0.1492  0.9872
14608TIP3    H165239   4.785   0.830   5.174  1.2080  2.6963 -0.3661
14608TIP3    H265240   4.865   0.703   5.153 -1.2020  1.3009 -1.3904
14609TIP3   OH265241   2.714   6.592   4.394 -0.4971 -0.4506  0.1112
14609TIP3    H165242   2.633   6.545   4.413 -0.2476 -0.1854  1.9048
14609TIP3    H265243   2.696   6.637   4.311 -0.8240 -3.4092 -1.4976
14610TIP3   OH265244   1.617   0.192   1.729  0.4288  0.0712 -0.2649
14610TIP3    H165245   1.577   0.123   1.676 -2.4074  0.2943  1.4487
14610TIP3    H265246   1.668   0.145   1.795  1.1663 -0.2804 -1.0711
14611TIP3   OH265247   6.647   1.334  16.619 -0.7529  0.0096 -0.3602
14611TIP3    H165248   6.742   1.325  16.623 -0.7473  0.0510 -0.3952
14611TIP3    H265249   6.630   1.422  16.654 -0.6618  0.6212 -1.8315
14612TIP3   OH265250   6.168   1.760  15.386 -0.2102 -0.3017 -0.1762
14612TIP3    H165251   6.149   1.681  15.437  0.7700 -0.1018  0.4949
14612TIP3    H265252   6.120   1.830  15.431  0.6228 -0.1327  0.4514
14613TIP3   OH265253   4.446   0.499   1.282  0.2409  0.3457 -0.1431
14613TIP3    H165254   4.393   0.456   1.214  1.9707  0.2358 -1.4480
14613TIP3    H265255   4.385   0.514   1.354 -1.6803  0.5715 -1.7718
14614TIP3   OH265256   3.332   3.986   3.787 -0.2756  0.0986 -0.0731
14614TIP3    H165257   3.415   3.940   3.777 -0.1497  0.2306  0.3366
14614TIP3    H265258   3.274   3.945   3.723  0.7878  1.6667 -2.0997
14615TIP3   OH265259   5.850   2.129   5.245 -0.0189  0.3810  0.0796
14615TIP3    H165260   5.903   2.198   5.285 -0.3955  0.9439 -0.3864
14615TIP3    H265261   5.871   2.133   5.152 -0.4475  0.2247 -0.0239
14616TIP3   OH265262   3.268   5.298   0.593  0.2730  0.3888 -0.6521
14616TIP3    H165263   3.276   5.244   0.514  0.2065  0.4697 -0.7160
14616TIP3    H265264   3.196   5.359   0.572 -0.6115 -0.4372 -0.0316
14617TIP3   OH265265   3.085   3.862  11.020  0.0181  0.1695 -0.1074
14617TIP3    H165266   3.079   3.955  10.996 -0.8988  0.1768  0.1076
14617TIP3    H265267   3.014   3.821  10.971 -0.1492 -0.2666  0.4926
14618TIP3   OH265268   3.281   3.969   4.869  0.2616  0.1809 -0.0026
14618TIP3    H165269   3.240   3.890   4.904  0.3074  0.1043 -0.1220
14618TIP3    H265270   3.262   3.967   4.776  2.4202 -1.0245 -0.4637
14619TIP3   OH265271   1.458   5.175  16.414  0.6103 -0.1191 -0.5995
14619TIP3    H165272   1.512   5.154  16.491  1.7883  1.4701 -0.9536
14619TIP3    H265273   1.510   5.144  16.340  0.4009  0.1564 -0.8611
14620TIP3   OH265274   1.260   0.833   3.475 -0.2135  0.0670 -0.4772
14620TIP3    H165275   1.272   0.838   3.380  0.7335 -2.1750 -0.5107
14620TIP3    H265276   1.167   0.850   3.489 -0.9340 -2.3011 -2.0743
14621TIP3   OH265277   2.367   2.119  17.045  0.1790  0.1805  0.2576
14621TIP3    H165278   2.399   2.195  17.094  0.9009  0.8822 -1.2459
14621TIP3    H265279   2.307   2.156  16.980  0.4645 -0.5401 -0.4271
14622TIP3   OH265280   6.080   4.353  16.838  0.5134 -0.3901 -0.3525
14622TIP3    H165281   6.082   4.309  16.923 -1.5035  2.0301  1.0075
14622TIP3    H265282   6.155   4.412  16.839  1.1165 -1.1276 -0.7357
14623TIP3   OH265283   4.871   5.167   5.784  0.1310  0.4074 -0.1208
14623TIP3    H165284   4.855   5.188   5.876 -1.3332 -0.5161 -0.1529
14623TIP3    H265285   4.796   5.203   5.738  0.2393 -0.2354 -0.8131
14624TIP3   OH265286   5.998   0.268   2.554 -0.3265  0.1345  0.3432
14624TIP3    H165287   5.984   0.283   2.460  1.2539  1.4332  0.2828
14624TIP3    H265288   6.024   0.354   2.588  1.0605 -0.7576  1.5903
14625TIP3   OH265289   6.334   4.290  13.906 -0.2882  0.4563 -0.4182
14625TIP3    H165290   6.253   4.329  13.875 -0.3232  1.2365  0.5909
14625TIP3    H265291   6.363   4.349  13.976 -0.3087 -1.3209  1.1223
14626TIP3   OH265292   0.548   6.034   1.101 -0.3508  0.0730  0.1398
14626TIP3    H165293   0.461   5.995   1.094  0.2695 -1.1054 -1.1369
14626TIP3    H265294   0.590   5.986   1.172 -1.0460  1.2611  1.3782
14627TIP3   OH265295   1.853   5.743   6.239  0.5286  0.0057  0.0313
14627TIP3    H165296   1.825   5.821   6.286 -0.1745 -0.0669 -0.2555
14627TIP3    H265297   1.934   5.769   6.195 -0.5188  1.0674 -1.3292
14628TIP3   OH265298   3.146   4.925   3.505 -0.0341 -0.0464 -0.6692
14628TIP3    H165299   3.166   4.881   3.423  0.8722  0.4812 -0.7489
14628TIP3    H265300   3.226   4.916   3.557 -0.3754  0.1744 -0.0976
14629TIP3   OH265301   0.891   4.060   5.591  0.0601  0.1328 -0.1187
14629TIP3    H165302   0.810   4.064   5.641  0.1767 -0.3978  0.1155
14629TIP3    H265303   0.907   4.150   5.563  0.3621  0.5530  1.3824
14630TIP3   OH265304   4.274   1.140  15.094  0.4782 -0.0564 -0.1626
14630TIP3    H165305   4.340   1.186  15.144 -0.0688 -2.9077  3.4279
14630TIP3    H265306   4.211   1.109  15.160 -2.6728 -0.1945 -3.1053
14631TIP3   OH265307   1.676   0.186  15.841 -0.3112 -0.4448 -0.0592
14631TIP3    H165308   1.728   0.145  15.910 -0.3368 -0.0962  0.1631
14631TIP3    H265309   1.720   0.161  15.760  2.1530  2.5885  0.2555
14632TIP3   OH265310   1.228   5.727  15.236  0.3642 -0.1046 -0.1369
14632TIP3    H165311   1.277   5.645  15.245  0.4739  0.1268  1.6307
14632TIP3    H265312   1.137   5.703  15.256  0.3559  0.1580  0.1425
14633TIP3   OH265313   4.171   0.641  16.937  0.5149 -0.2695  0.5476
14633TIP3    H165314   4.255   0.666  16.976  1.2319 -0.9592 -0.5191
14633TIP3    H265315   4.175   0.677  16.849 -0.2789 -0.3910  0.4648
14634TIP3   OH265316   1.025   2.164   2.442  0.5474  0.4925 -0.2603
14634TIP3    H165317   1.105   2.216   2.444  1.4084 -0.8189  1.0424
14634TIP3    H265318   1.050   2.083   2.397 -0.5493  0.8439 -1.5204
14635TIP3   OH265319   5.313   4.498  12.721  0.5168  0.0060  0.0034
14635TIP3    H165320   5.286   4.576  12.769 -0.6834 -0.1051 -0.4693
14635TIP3    H265321   5.334   4.434  12.789 -0.1807  0.1803  0.3902
14636TIP3   OH265322   4.383   4.174  13.135 -0.6683  0.0552 -0.1275
14636TIP3    H165323   4.408   4.264  13.113 -2.3200  0.3501 -0.8946
14636TIP3    H265324   4.423   4.121  13.066 -0.7236  0.3367 -0.3782
14637TIP3   OH265325   0.992   3.699   4.738  0.5811 -0.3802 -0.1939
14637TIP3    H165326   1.018   3.759   4.808 -1.6948  0.0438  0.3452
14637TIP3    H265327   1.072   3.651   4.715  1.5093 -0.0060  2.1849
14638TIP3   OH265328   4.626   2.043  15.903 -0.0694 -0.5346  0.9994
14638TIP3    H165329   4.660   2.027  15.815  1.0776 -2.0495  1.6795
14638TIP3    H265330   4.531   2.050  15.891  0.3307  2.6105 -0.7785
14639TIP3   OH265331   0.516   4.557  11.647  0.2296 -0.6274  0.4902
14639TIP3    H165332   0.464   4.520  11.576 -0.7924  0.6540  0.5339
14639TIP3    H265333   0.494   4.651  11.646 -0.4225 -0.7063  2.9748
14640TIP3   OH265334   1.261   2.805  14.457  0.0116 -0.1293  0.2385
14640TIP3    H165335   1.196   2.849  14.402  0.5893 -0.9247 -1.1236
14640TIP3    H265336   1.214   2.783  14.537 -1.1871 -0.0052 -0.4216
14641TIP3   OH265337   1.069   1.638   4.229  0.5521 -0.2003 -0.7566
14641TIP3    H165338   1.105   1.707   4.173  1.4731  1.3594  1.6915
14641TIP3    H265339   1.045   1.683   4.310  2.8678 -3.0241  1.6150
14642TIP3   OH265340   6.564   0.968  15.642  0.3111 -0.4678 -0.0994
14642TIP3    H165341   6.617   1.047  15.628 -1.5354  1.0091  0.9378
14642TIP3    H265342   6.604   0.925  15.717  1.1842 -0.3962 -0.5135
14643TIP3   OH265343   1.043   4.374   2.826  0.0502  0.6491 -0.7296
14643TIP3    H165344   1.064   4.345   2.914  1.2088  1.9664 -0.5585
14643TIP3    H265345   1.100   4.321   2.769 -0.9245 -0.4244 -0.7292
14644TIP3   OH265346   0.709   1.680  16.908  0.1215 -0.2564  0.4886
14644TIP3    H165347   0.694   1.773  16.926 -1.8369 -0.5439  0.5364
14644TIP3    H265348   0.800   1.664  16.934  0.3456  1.5491  0.8684
14645TIP3   OH265349   0.810   4.114  13.438 -0.6492 -0.8415  0.0587
14645TIP3    H165350   0.756   4.036  13.433 -2.0193  0.1916 -1.4022
14645TIP3    H265351   0.821   4.143  13.348  1.3394 -0.3371  0.4218
14646TIP3   OH265352   2.468   3.307   4.329  0.0142  0.4154 -0.0869
14646TIP3    H165353   2.497   3.392   4.295 -1.8639  1.0104 -0.2189
14646TIP3    H265354   2.442   3.258   4.251 -0.1911  0.2058  0.1162
14647TIP3   OH265355   1.463   2.536  11.948  0.3052  0.4104  0.0797
14647TIP3    H165356   1.514   2.603  11.995  0.4240 -0.3140  0.9831
14647TIP3    H265357   1.530   2.480  11.907  0.2201  0.0365  0.4554
14648TIP3   OH265358   4.855   4.880   4.152  0.2284  0.1123 -0.4161
14648TIP3    H165359   4.812   4.851   4.233  1.5827 -0.0320  0.2653
14648TIP3    H265360   4.830   4.814   4.087 -0.4342 -0.0694  0.0139
14649TIP3   OH265361   3.132   0.505  14.302  0.4173  0.1417 -0.5517
14649TIP3    H165362   3.123   0.411  14.282  0.9882  0.4976 -2.5725
14649TIP3    H265363   3.166   0.507  14.392 -0.1621 -1.5685 -0.2704
14650TIP3   OH265364   3.511   4.541  14.627 -0.1446  0.1201  0.0141
14650TIP3    H165365   3.439   4.567  14.685  0.5295  1.8459  0.1183
14650TIP3    H265366   3.480   4.564  14.540 -0.1226 -0.0766 -0.0449
14651TIP3   OH265367   3.500   2.719  13.645 -0.0251  0.6584  1.0405
14651TIP3    H165368   3.590   2.689  13.643  0.6283  2.5379  1.7605
14651TIP3    H265369   3.474   2.722  13.553  0.3648 -0.6610  0.8791
14652TIP3   OH265370   3.852   2.624  11.195 -0.1464 -0.1659  0.2802
14652TIP3    H165371   3.937   2.600  11.159 -0.8862 -0.6320 -1.2025
14652TIP3    H265372   3.865   2.624  11.290  0.7507 -3.2482  0.2120
14653TIP3   OH265373   3.469   5.683  15.910 -0.4417  0.3204  0.0333
14653TIP3    H165374   3.452   5.627  15.834 -1.0540  0.1434  0.2996
14653TIP3    H265375   3.487   5.769  15.872  0.3637 -0.0149 -0.3735
14654TIP3   OH265376   2.069   2.390   2.693 -0.8383 -0.1875 -0.5266
14654TIP3    H165377   2.050   2.382   2.599 -0.8839 -0.3681 -0.5022
14654TIP3    H265378   1.984   2.381   2.736 -0.4963 -2.7835 -0.3188
14655TIP3   OH265379   1.712   3.936  16.656  0.4045  0.3825  0.1065
14655TIP3    H165380   1.690   3.844  16.640  0.0797  0.6614 -1.0755
14655TIP3    H265381   1.721   3.974  16.569 -0.5213  1.7282  0.5838
14656TIP3   OH265382   3.679   0.647  13.395 -0.2888  0.2751  0.7218
14656TIP3    H165383   3.660   0.608  13.481  0.8532  1.8515  1.7237
14656TIP3    H265384   3.637   0.733  13.398  1.5178  1.1977  0.5346
14657TIP3   OH265385   0.898   2.157  11.755  0.6177 -0.3834 -0.3330
14657TIP3    H165386   0.857   2.231  11.798  0.0989  0.1687 -1.7346
14657TIP3    H265387   0.990   2.182  11.745  0.7857 -0.6100  0.6482
14658TIP3   OH265388   0.293   2.011   3.847  0.1770  0.4223 -0.0358
14658TIP3    H165389   0.296   2.105   3.861  2.5869 -0.0065  2.8283
14658TIP3    H265390   0.201   1.988   3.864 -1.0604  2.5001 -3.3307
14659TIP3   OH265391   5.355   5.623  12.126  0.3190  0.3455 -0.2967
14659TIP3    H165392   5.339   5.529  12.121  3.9479 -0.4796  1.9529
14659TIP3    H265393   5.332   5.656  12.039 -0.5704 -2.6874 -1.2616
14660TIP3   OH265394   6.223   5.916   1.835  0.8423  0.3320  0.4521
14660TIP3    H165395   6.209   5.830   1.797  1.0189  0.2508  0.5705
14660TIP3    H265396   6.185   5.910   1.923  0.1812  0.6064  0.1879
14661TIP3   OH265397   0.841   0.902  11.318 -0.2800 -0.2394 -0.9502
14661TIP3    H165398   0.806   0.987  11.345 -0.0929  0.3076 -2.4006
14661TIP3    H265399   0.785   0.838  11.363  0.0245  0.6340  0.7221
14662TIP3   OH265400   1.212   4.662  12.227  0.6448  0.3580 -0.5640
14662TIP3    H165401   1.284   4.629  12.280 -0.1645  1.3072  1.1733
14662TIP3    H265402   1.251   4.679  12.141  1.9357 -1.3537 -0.3439
14663TIP3   OH265403   3.342   0.606   1.228 -0.0383  0.7924 -0.3221
14663TIP3    H165404   3.401   0.538   1.262 -1.1575 -0.5097 -0.9404
14663TIP3    H265405   3.338   0.589   1.134 -1.0059  1.1788 -0.3500
14664TIP3   OH265406   6.192   5.583  12.103 -0.7783  0.2499 -0.4377
14664TIP3    H165407   6.241   5.535  12.037  0.7218  1.5448 -0.3124
14664TIP3    H265408   6.242   5.664  12.115 -1.8388  0.6870  1.1919
14665TIP3   OH265409   3.709   0.999   4.193 -0.4438 -0.2342 -0.1535
14665TIP3    H165410   3.777   1.040   4.139 -1.3529 -0.6339 -1.6373
14665TIP3    H265411   3.757   0.942   4.253  0.6019  0.4169 -0.3575
14666TIP3   OH265412   6.360   2.581  15.906  0.1588  0.0639  0.8013
14666TIP3    H165413   6.326   2.501  15.866 -0.0428  0.5407  0.0217
14666TIP3    H265414   6.391   2.552  15.992 -2.9362 -0.2554  1.8870
14667TIP3   OH265415   3.598   6.443   1.672  0.1545  0.6224 -0.5178
14667TIP3    H165416   3.652   6.494   1.610 -0.2707  0.5496 -0.9520
14667TIP3    H265417   3.633   6.354   1.667  0.4368  0.7216 -0.2910
14668TIP3   OH265418   0.840   4.620   4.833  0.0417 -0.1403  0.0100
14668TIP3    H165419   0.907   4.675   4.792 -0.3291  1.2552  1.2298
14668TIP3    H265420   0.888   4.566   4.896  0.2355 -0.2722 -0.2532
14669TIP3   OH265421   1.800   6.316  15.438 -0.7250  0.3778 -0.7080
14669TIP3    H165422   1.719   6.358  15.466 -0.7779  0.9840 -1.7546
14669TIP3    H265423   1.853   6.312  15.518 -1.3872  0.8966 -0.2359
14670TIP3   OH265424   6.497   1.312  17.201  0.3121 -0.0317 -0.7181
14670TIP3    H165425   6.427   1.285  17.260  0.3870  0.4468 -0.4031
14670TIP3    H265426   6.552   1.370  17.254  0.2625  0.5700 -1.3186
14671TIP3   OH265427   3.998   5.896   2.291 -0.0509  0.2564  0.2795
14671TIP3    H165428   4.002   5.858   2.379  2.1953  0.2939  0.2244
14671TIP3    H265429   3.915   5.864   2.255  0.2307 -1.8723  1.4519
14672TIP3   OH265430   5.775   0.235  13.233 -0.0777 -0.3275 -0.3190
14672TIP3    H165431   5.752   0.283  13.154 -2.4464 -1.0813 -0.1200
14672TIP3    H265432   5.748   0.292  13.305  1.2405 -0.0300 -0.0539
14673TIP3   OH265433   5.630   1.783  13.720  0.6231  0.4293  0.6270
14673TIP3    H165434   5.637   1.735  13.802  1.0752  1.4635  1.2151
14673TIP3    H265435   5.714   1.830  13.713  0.3974  0.7214 -0.1762
14674TIP3   OH265436   6.085   6.104   5.216  0.2910 -0.0910 -0.5142
14674TIP3    H165437   6.035   6.042   5.269  0.0543  0.2441 -0.3431
14674TIP3    H265438   6.048   6.098   5.129 -0.2098  0.3288 -0.3347
14675TIP3   OH265439   5.662   1.618  15.058  0.0118  0.1623  0.4371
14675TIP3    H165440   5.567   1.609  15.052 -0.0465  1.5915 -0.8056
14675TIP3    H265441   5.695   1.574  14.980  0.4012 -0.5885  1.0176
14676TIP3   OH265442   6.511   2.269   0.541  0.0173  0.5142  0.0094
14676TIP3    H165443   6.463   2.262   0.458  1.6106 -0.3774 -0.8724
14676TIP3    H265444   6.603   2.261   0.516  0.5163  0.0664  1.8913
14677TIP3   OH265445   1.040   2.916   0.153 -0.6511  0.4075 -0.1680
14677TIP3    H165446   0.967   2.854   0.161 -0.2647 -0.0259  0.0042
14677TIP3    H265447   1.051   2.929   0.059  0.4776 -1.2185 -0.2726
14678TIP3   OH265448   3.699   3.804  15.665 -0.0744 -0.0939  0.0152
14678TIP3    H165449   3.660   3.891  15.657  0.5920  0.1132 -1.2468
14678TIP3    H265450   3.752   3.795  15.585  0.0912 -1.5358  0.2780
14679TIP3   OH265451   5.268   3.429  14.448 -0.4076 -0.1203  1.4942
14679TIP3    H165452   5.218   3.426  14.530  0.0811  0.7891  1.8326
14679TIP3    H265453   5.320   3.509  14.455 -1.1996  0.5576 -0.1882
14680TIP3   OH265454   5.052   3.425   3.553 -0.6142  0.6831 -0.1431
14680TIP3    H165455   5.024   3.337   3.580  1.3682  0.1372  0.1720
14680TIP3    H265456   5.035   3.480   3.629 -1.9859  0.6258 -0.3821
14681TIP3   OH265457   3.951   2.353   5.975 -0.6736  0.4778  0.7209
14681TIP3    H165458   3.971   2.315   6.061 -0.0954 -3.1313 -0.9216
14681TIP3    H265459   4.022   2.323   5.918 -0.6714  3.3913 -0.9446
14682TIP3   OH265460   1.572   5.062  15.455 -0.6015 -0.6667  0.4511
14682TIP3    H165461   1.639   5.107  15.404 -1.1776  0.5881  0.8022
14682TIP3    H265462   1.530   5.002  15.393 -2.0308  1.6238 -0.8350
14683TIP3   OH265463   6.640   0.481   2.330 -0.2818  0.2077  0.6690
14683TIP3    H165464   6.725   0.441   2.311 -0.2743  0.5572 -0.0724
14683TIP3    H265465   6.653   0.574   2.310 -0.5216  0.4489  1.6208
14684TIP3   OH265466   4.484   3.501  12.178 -0.3683 -0.0224  0.1268
14684TIP3    H165467   4.409   3.451  12.210 -0.8313  0.5056 -0.1258
14684TIP3    H265468   4.486   3.580  12.232 -0.0135 -0.0170  0.1099
14685TIP3   OH265469   5.191   4.560   4.587 -0.3397  0.6728 -0.4667
14685TIP3    H165470   5.280   4.577   4.557 -0.6898  0.5280 -1.6110
14685TIP3    H265471   5.202   4.511   4.669  0.6283  1.1777 -0.2882
14686TIP3   OH265472   2.662   1.283  15.327  0.4429 -0.2560  0.2345
14686TIP3    H165473   2.676   1.347  15.258 -1.7210  0.5680  0.5030
14686TIP3    H265474   2.733   1.298  15.389  0.4599  1.2959 -0.1491
14687TIP3   OH265475   4.098   1.377  12.112 -0.2947 -0.3269 -0.3817
14687TIP3    H165476   4.038   1.357  12.184  0.6438  0.1000  0.5354
14687TIP3    H265477   4.181   1.337  12.139  0.6848  1.8461 -0.1466
14688TIP3   OH265478   5.724   5.476   6.067  0.2362 -0.1533  0.2243
14688TIP3    H165479   5.771   5.470   6.150 -0.7780  0.9954  0.8894
14688TIP3    H265480   5.684   5.389   6.056 -0.4541  0.0061  1.4253
14689TIP3   OH265481   3.471   1.217   5.941  0.2182 -0.1771  0.5563
14689TIP3    H165482   3.567   1.221   5.937  0.1472  0.1840 -1.1931
14689TIP3    H265483   3.447   1.146   5.881 -0.7358  1.8810 -1.5887
14690TIP3   OH265484   6.523   4.074  14.768 -0.5167 -0.1809 -0.6977
14690TIP3    H165485   6.563   3.990  14.790 -0.9158 -0.2799 -0.3438
14690TIP3    H265486   6.504   4.067  14.674 -0.0219 -0.2641 -0.7899
14691TIP3   OH265487   5.395   0.988   6.165 -0.1514  0.3977 -0.0200
14691TIP3    H165488   5.446   1.060   6.127 -1.1277  0.5890 -1.0071
14691TIP3    H265489   5.383   1.013   6.257 -1.5829  2.1493 -0.6501
14692TIP3   OH265490   5.063   5.717   0.358 -0.0640 -0.0703 -0.6352
14692TIP3    H165491   5.022   5.771   0.291 -0.7464  0.0806 -0.0982
14692TIP3    H265492   5.075   5.776   0.432 -1.4490 -0.8236  0.1986
14693TIP3   OH265493   0.759   1.733  13.741  0.0196  0.1734 -0.0123
14693TIP3    H165494   0.796   1.685  13.815  0.6982 -0.8499 -1.0046
14693TIP3    H265495   0.795   1.822  13.751 -0.5915  0.2863  1.3647
14694TIP3   OH265496   0.539   3.232   4.986  0.2849  0.0203 -0.1171
14694TIP3    H165497   0.472   3.168   4.964 -1.3240  2.1419 -1.5219
14694TIP3    H265498   0.491   3.309   5.018  2.0970  1.0916  0.1275
14695TIP3   OH265499   4.673   4.536  11.023 -0.6515  0.2241  0.1868
14695TIP3    H165500   4.742   4.602  11.018  1.6250 -2.0681  0.3184
14695TIP3    H265501   4.670   4.497  10.936 -1.4886 -0.0163  0.3141
14696TIP3   OH265502   6.493   6.056   3.395  0.2925 -0.2087  0.1942
14696TIP3    H165503   6.506   6.060   3.490 -2.3270 -0.1720  0.5839
14696TIP3    H265504   6.480   6.147   3.369  0.4193 -0.2756 -0.0952
14697TIP3   OH265505   4.444   6.117   6.323 -0.4867  0.5617  0.7411
14697TIP3    H165506   4.456   6.023   6.310 -3.3544  0.2454 -0.1682
14697TIP3    H265507   4.490   6.158   6.250  0.1113 -0.1760  0.7019
14698TIP3   OH265508   0.138   3.325   0.479  0.0413  0.1433 -0.0716
14698TIP3    H165509   0.224   3.332   0.522 -0.0499  1.2342 -0.0315
14698TIP3    H265510   0.156   3.279   0.397  0.9108  1.4471 -0.6534
14699TIP3   OH265511   3.845   0.307   5.258  0.0398 -0.0081  0.2639
14699TIP3    H165512   3.763   0.343   5.293  0.9449  1.5352  0.8347
14699TIP3    H265513   3.853   0.346   5.171 -1.1941 -2.2902 -0.9127
14700TIP3   OH265514   4.320   4.447  15.855 -0.2193 -0.2257  0.5770
14700TIP3    H165515   4.265   4.433  15.932 -1.3880  1.5808  0.0982
14700TIP3    H265516   4.342   4.540  15.858  0.0336 -0.2204 -1.0892
14701TIP3   OH265517   6.197   6.559  11.624  0.1003 -0.2839 -0.3615
14701TIP3    H165518   6.199   6.600  11.710 -1.2499  3.1345 -1.8623
14701TIP3    H265519   6.104   6.548  11.604  0.3200  0.9020 -2.2146
14702TIP3   OH265520   0.749   3.454  16.238 -0.3819  0.1944  0.5707
14702TIP3    H165521   0.714   3.374  16.199 -0.7389  1.5479 -2.0189
14702TIP3    H265522   0.795   3.425  16.317 -0.2089 -2.6054 -0.5166
14703TIP3   OH265523   3.883   6.006  15.221 -0.6110 -0.1961 -0.4854
14703TIP3    H165524   3.817   5.989  15.287 -0.8063 -0.8924 -0.8510
14703TIP3    H265525   3.834   6.035  15.144 -0.5322 -1.1251 -0.8922
14704TIP3   OH265526   0.623   0.414  16.973  0.5327  0.2706 -0.0824
14704TIP3    H165527   0.543   0.421  16.920  1.4502 -0.3725 -1.5773
14704TIP3    H265528   0.600   0.455  17.056 -1.6742 -0.8226 -0.1192
14705TIP3   OH265529   0.117   5.376  15.086  0.6427 -0.3412  0.3397
14705TIP3    H165530   0.119   5.420  15.171  2.1141 -1.2046  0.7838
14705TIP3    H265531   0.025   5.378  15.060 -0.1206 -1.5154  2.7448
14706TIP3   OH265532   5.358   0.170   5.668 -0.1860 -0.0194 -0.0263
14706TIP3    H165533   5.389   0.081   5.680 -2.8371 -0.9427  0.4550
14706TIP3    H265534   5.318   0.193   5.752  0.6518  1.6965 -0.0748
14707TIP3   OH265535   5.049   4.659  16.496  0.3169 -0.3901 -0.2952
14707TIP3    H165536   4.976   4.710  16.460  1.2150 -0.3084 -2.0108
14707TIP3    H265537   5.007   4.583  16.537 -0.6857 -0.6675 -1.8159
14708TIP3   OH265538   1.804   5.716  12.946  0.2425 -0.2612 -0.0294
14708TIP3    H165539   1.800   5.727  12.851 -2.5727 -0.5519  0.0124
14708TIP3    H265540   1.783   5.624  12.961  0.1482 -0.1030  0.8866
14709TIP3   OH265541   1.778   4.306  11.990  0.0117  0.0192  0.5355
14709TIP3    H165542   1.795   4.225  11.942  0.4096  0.2759  0.2398
14709TIP3    H265543   1.865   4.343  12.007 -0.2100  1.3049 -0.9389
14710TIP3   OH265544   2.850   1.560  11.535  0.2336  0.4802  0.0901
14710TIP3    H165545   2.906   1.633  11.560 -0.4328  0.6273  1.2315
14710TIP3    H265546   2.904   1.505  11.479  1.7555  0.2379  1.7668
14711TIP3   OH265547   1.891   2.691  15.590  0.7020  0.5837 -0.6728
14711TIP3    H165548   1.893   2.604  15.551 -1.2336  0.5641 -0.7607
14711TIP3    H265549   1.913   2.676  15.682  0.3333  0.0050 -0.6800
14712TIP3   OH265550   5.164   0.926  10.850 -0.5786 -0.4328  0.0166
14712TIP3    H165551   5.095   0.867  10.822 -0.5539 -0.3759 -0.1639
14712TIP3    H265552   5.238   0.907  10.793 -1.2365  1.1999 -1.4387
14713TIP3   OH265553   2.292   4.627   0.980  0.7575 -0.0094 -0.2829
14713TIP3    H165554   2.350   4.560   0.944 -1.0242 -0.8655 -1.6259
14713TIP3    H265555   2.332   4.710   0.954  2.0137 -0.5582 -0.1539
14714TIP3   OH265556   0.855   1.266  11.184  0.1275 -0.4312  0.4084
14714TIP3    H165557   0.818   1.258  11.096 -0.6850  0.0562  0.6988
14714TIP3    H265558   0.931   1.323  11.172  0.2531 -0.6948 -0.0495
14715TIP3   OH265559   6.123   0.929  14.983  0.2195  0.0646  0.4923
14715TIP3    H165560   6.115   0.961  14.893  1.9765 -1.0743 -0.1017
14715TIP3    H265561   6.042   0.957  15.026 -0.9496  0.0397 -1.6201
14716TIP3   OH265562   2.078   3.590   1.618 -0.2176 -0.2839 -0.1682
14716TIP3    H165563   2.101   3.599   1.526  1.4678  1.3013  0.3718
14716TIP3    H265564   2.068   3.496   1.631  1.1407 -0.6474 -1.6133
14717TIP3   OH265565   1.091   2.127   6.180 -0.2543  0.1249  0.0317
14717TIP3    H165566   1.127   2.208   6.216 -0.1014  0.7315 -1.4465
14717TIP3    H265567   1.141   2.057   6.222 -0.5321  0.7803  1.4784
14718TIP3   OH265568   4.761   2.854   0.197 -0.1318 -0.3543 -0.2694
14718TIP3    H165569   4.738   2.947   0.194  1.2030 -0.0026  0.2211
14718TIP3    H265570   4.749   2.829   0.288  2.5415  0.1316  0.2413
14719TIP3   OH265571   4.895   0.257   4.636 -0.4600 -0.1243  0.2049
14719TIP3    H165572   4.975   0.256   4.689  0.3203 -1.1213 -0.9556
14719TIP3    H265573   4.831   0.209   4.687 -0.1993  0.3283  0.9629
14720TIP3   OH265574   3.190   0.196   1.968  0.1105  0.3324 -0.0221
14720TIP3    H165575   3.282   0.176   1.950  0.2330  1.2472 -0.4107
14720TIP3    H265576   3.154   0.113   1.999  0.1364 -1.0264 -3.4389
14721TIP3   OH265577   6.059   6.589  10.853  0.6602 -0.4494 -0.0749
14721TIP3    H165578   6.049   6.676  10.814  2.0473  0.0668  0.6656
14721TIP3    H265579   6.116   6.542  10.792 -1.9658 -1.6735 -1.6908
14722TIP3   OH265580   6.625   1.258  15.027  0.2922  0.2077 -0.0684
14722TIP3    H165581   6.604   1.351  15.030  2.7428  0.7525  1.7657
14722TIP3    H265582   6.659   1.238  15.115  0.1689 -2.3184 -0.5542
14723TIP3   OH265583   2.784   0.069  16.104  0.3735 -0.0069 -0.0795
14723TIP3    H165584   2.714   0.076  16.169  0.7317 -0.8073  0.3999
14723TIP3    H265585   2.743   0.096  16.022 -0.3539  0.0508  0.2922
14724TIP3   OH265586   3.419   1.240  14.967  0.1781 -0.3491  0.0989
14724TIP3    H165587   3.502   1.277  14.937 -0.0455 -1.3176 -1.7711
14724TIP3    H265588   3.360   1.315  14.974  0.8563  0.1718  0.2722
14725TIP3   OH265589   3.611   2.555   5.113 -0.1675  0.0289 -0.0956
14725TIP3    H165590   3.522   2.575   5.141  0.3461  1.3395  0.7126
14725TIP3    H265591   3.650   2.510   5.189  0.0037 -0.0700 -0.2426
14726TIP3   OH265592   4.268   0.239   0.589 -0.1035 -0.1503 -0.4154
14726TIP3    H165593   4.339   0.275   0.642 -2.4296  1.1930  1.9036
14726TIP3    H265594   4.198   0.304   0.595 -2.5645 -2.6767 -0.3014
14727TIP3   OH265595   2.598   5.877   4.845  0.0814  0.7577 -0.0816
14727TIP3    H165596   2.630   5.964   4.868 -2.0279  1.4478  0.3524
14727TIP3    H265597   2.547   5.891   4.765  1.1830 -0.3853 -0.9989
14728TIP3   OH265598   1.543   0.415   3.059 -0.0647 -0.0926  0.4297
14728TIP3    H165599   1.581   0.329   3.042 -1.8795 -0.4553 -2.0184
14728TIP3    H265600   1.471   0.398   3.120 -0.8723 -0.4307 -0.6049
14729TIP3   OH265601   1.852   5.746  16.285  0.3972  0.2296 -0.2827
14729TIP3    H165602   1.758   5.752  16.301  0.5310  0.8536  0.2711
14729TIP3    H265603   1.859   5.713  16.195 -0.3402  1.6542 -0.8712
14730TIP3   OH265604   2.434   3.047  14.618  0.5914  0.3298  0.2410
14730TIP3    H165605   2.392   2.979  14.566  0.6757  1.8679 -1.9401
14730TIP3    H265606   2.418   3.022  14.709  0.7771 -2.6590 -0.4990
14731TIP3   OH265607   2.673   3.427  15.079  0.2131  0.3117  0.4548
14731TIP3    H165608   2.596   3.417  15.023  0.8284  0.0527 -0.3554
14731TIP3    H265609   2.740   3.464  15.021  1.1719 -0.9177  0.7491
14732TIP3   OH265610   5.745   4.704  13.099  0.2817  0.1077  0.3779
14732TIP3    H165611   5.771   4.673  13.186  0.8076 -0.3258  0.0710
14732TIP3    H265612   5.717   4.794  13.112 -1.9858 -0.7139  1.4259
14733TIP3   OH265613   3.852   2.165   4.029  0.1770  0.3408  0.2184
14733TIP3    H165614   3.781   2.117   4.072  0.7434  0.1734  0.9778
14733TIP3    H265615   3.810   2.213   3.959 -0.8135  0.8846  1.1770
14734TIP3   OH265616   1.408   0.105  13.876 -0.0190  0.2950 -0.7457
14734TIP3    H165617   1.450   0.189  13.859 -0.3459 -0.0282 -3.3331
14734TIP3    H265618   1.454   0.070  13.953  1.8830  1.6255 -1.2456
14735TIP3   OH265619   2.730   6.454  15.486  0.3792  0.4511  0.0005
14735TIP3    H165620   2.780   6.470  15.405  1.7087  0.3063  0.7731
14735TIP3    H265621   2.778   6.383  15.529 -0.0292  0.8741  1.1628
14736TIP3   OH265622   3.143   5.602  17.050  0.2251 -0.2738 -0.1050
14736TIP3    H165623   3.173   5.555  16.972  0.7907 -0.1678  0.0409
14736TIP3    H265624   3.219   5.600  17.109 -0.6881 -1.6939  1.0529
14737TIP3   OH265625   6.390   2.210   3.123  0.5754 -0.2201 -0.2913
14737TIP3    H165626   6.304   2.245   3.100  0.8125  0.4629 -0.1348
14737TIP3    H265627   6.450   2.284   3.112  1.0594 -0.5441  0.1576
14738TIP3   OH265628   0.743   4.285  10.291  0.6422 -0.1216  0.0587
14738TIP3    H165629   0.760   4.205  10.340  1.5284 -0.6096 -1.0053
14738TIP3    H265630   0.791   4.353  10.339  1.4224 -0.5756 -0.0651
14739TIP3   OH265631   5.379   4.587   4.880 -0.1749 -0.1153 -0.1892
14739TIP3    H165632   5.463   4.599   4.834 -0.0650 -1.3317 -0.3302
14739TIP3    H265633   5.403   4.549   4.964 -0.2887  3.1495  1.3659
14740TIP3   OH265634   5.027   0.428   1.314 -0.6305 -0.0497 -0.0335
14740TIP3    H165635   5.024   0.506   1.258 -0.3206  0.2620  0.3802
14740TIP3    H265636   5.098   0.446   1.376  0.8664 -1.5504 -1.2536
14741TIP3   OH265637   5.229   0.393   0.111 -0.0787  0.1171 -0.1491
14741TIP3    H165638   5.159   0.395   0.176 -1.0533 -0.2643 -1.1657
14741TIP3    H265639   5.225   0.479   0.069 -0.0616  0.0277 -0.3343
14742TIP3   OH265640   6.297   2.899  11.635  0.0930  0.0382  1.0549
14742TIP3    H165641   6.270   2.918  11.725 -0.6238  1.8183  0.4963
14742TIP3    H265642   6.360   2.969  11.613  0.0442 -0.2063  0.0877
14743TIP3   OH265643   2.559   4.871  16.942  0.4219 -0.4675 -0.0194
14743TIP3    H165644   2.554   4.967  16.937  0.1132 -0.5305 -1.0513
14743TIP3    H265645   2.468   4.842  16.944  0.5169 -0.7260  0.7074
14744TIP3   OH265646   0.896   0.330  13.787 -0.2938 -0.5248  0.2686
14744TIP3    H165647   0.917   0.316  13.695  1.4867  0.9346  0.4292
14744TIP3    H265648   0.801   0.347  13.787 -0.5359 -1.7502 -1.1331
14745TIP3   OH265649   1.956   1.968   4.459  0.1960  0.2581 -1.0242
14745TIP3    H165650   1.958   1.983   4.365 -0.0034  1.9850 -0.7708
14745TIP3    H265651   2.043   1.932   4.479 -0.0342 -0.8327 -1.9703
14746TIP3   OH265652   0.602   4.888   0.684 -0.1418 -0.0852  0.5745
14746TIP3    H165653   0.566   4.974   0.662 -0.0532 -0.1126  0.3138
14746TIP3    H265654   0.622   4.848   0.599 -0.1781 -0.3616  0.6957
14747TIP3   OH265655   4.633   0.905   0.518 -0.1492  0.2330  0.0855
14747TIP3    H165656   4.629   0.994   0.553 -0.9363 -0.0138  0.6588
14747TIP3    H265657   4.543   0.872   0.528  0.7085 -1.5104  2.2706
14748TIP3   OH265658   3.879   2.225  15.155 -0.3623 -0.4538 -0.2935
14748TIP3    H165659   3.881   2.321  15.154  1.9822 -0.4406  0.6684
14748TIP3    H265660   3.798   2.202  15.199 -1.0881  1.0919 -0.8175
14749TIP3   OH265661   3.806   6.640  16.323 -0.4462  0.2149 -0.0846
14749TIP3    H165662   3.844   6.604  16.243 -0.0333 -0.7983  0.5607
14749TIP3    H265663   3.748   6.570  16.355  0.9352 -0.1883  1.5851
14750TIP3   OH265664   0.113   0.550  13.748 -0.0450  0.5512  0.2773
14750TIP3    H165665   0.079   0.608  13.816 -0.8131  1.2934 -0.7096
14750TIP3    H265666   0.127   0.608  13.672  0.7157 -0.2689 -0.2254
14751TIP3   OH265667   3.683   4.754  12.033 -0.0888 -0.1316 -0.7995
14751TIP3    H165668   3.624   4.825  12.009 -1.5191 -1.0596 -0.1678
14751TIP3    H265669   3.703   4.711  11.950 -3.7770 -2.3929 -0.6528
14752TIP3   OH265670   4.308   3.544   4.024 -0.3729 -0.1543 -0.1574
14752TIP3    H165671   4.284   3.584   3.941 -0.4901  1.6666  0.7371
14752TIP3    H265672   4.261   3.460   4.025 -0.4648 -0.1342 -1.8504
14753TIP3   OH265673   2.963   1.445  16.030 -0.0602  0.4147 -0.3206
14753TIP3    H165674   2.875   1.408  16.034  0.0933  0.0211 -0.5377
14753TIP3    H265675   3.019   1.377  16.065  0.3330  0.0808 -1.5899
14754TIP3   OH265676   6.534   5.441   4.173  0.2221  0.1701 -0.4780
14754TIP3    H165677   6.465   5.427   4.108  0.4181  0.0216 -0.6548
14754TIP3    H265678   6.537   5.536   4.185 -1.4116  0.0400  1.0563
14755TIP3   OH265679   4.711   5.446   0.009 -0.2467  0.7053  0.1080
14755TIP3    H165680   4.616   5.457   0.016 -0.5019 -1.3390  0.2224
14755TIP3    H265681   4.728   5.362   0.051  1.8111  1.6889  1.2867
14756TIP3   OH265682   0.715   3.875   1.142  0.3717  0.1005  0.0158
14756TIP3    H165683   0.728   3.909   1.230 -1.5517  0.8105  0.0678
14756TIP3    H265684   0.620   3.862   1.135  0.5565 -0.5526 -1.7221
14757TIP3   OH265685   5.266   1.444   2.431  0.0290 -0.4265  0.1807
14757TIP3    H165686   5.232   1.533   2.435 -0.6891 -0.6021 -1.5834
14757TIP3    H265687   5.217   1.403   2.359  2.3940 -1.3593 -0.9574
14758TIP3   OH265688   2.302   2.492  15.367  0.0054  0.2395  0.3868
14758TIP3    H165689   2.286   2.402  15.341  0.2382 -0.1346  1.5128
14758TIP3    H265690   2.225   2.540  15.338 -1.1996 -0.7487  1.8442
14759TIP3   OH265691   0.186   2.320  16.887  0.3100  0.3028  0.6083
14759TIP3    H165692   0.272   2.283  16.906 -0.4041 -1.4258  0.4775
14759TIP3    H265693   0.125   2.248  16.897 -1.3377  1.8667  2.1732
14760TIP3   OH265694   5.191   4.474  16.321  0.5353 -0.0423  0.3416
14760TIP3    H165695   5.148   4.388  16.327  1.6968 -0.6768 -0.2181
14760TIP3    H265696   5.151   4.525  16.391 -0.7244 -0.7890  0.1986
14761TIP3   OH265697   3.109   6.028  13.590  0.7692 -0.2601  0.3869
14761TIP3    H165698   3.198   6.011  13.621  1.6438  4.5001  0.8721
14761TIP3    H265699   3.120   6.053  13.498  0.0766  1.1276  0.6681
14762TIP3   OH265700   6.517   0.668  15.288 -0.3580 -0.1441 -0.0586
14762TIP3    H165701   6.569   0.600  15.330  0.3508 -0.3097 -1.1850
14762TIP3    H265702   6.543   0.749  15.330  0.7709 -0.2351 -0.5777
14763TIP3   OH265703   5.976   4.952  11.942 -0.6046  0.0690 -0.2677
14763TIP3    H165704   5.961   4.966  12.035 -3.0582  0.5588 -0.7037
14763TIP3    H265705   6.006   4.861  11.935 -1.2225 -0.2297  0.9123
14764TIP3   OH265706   5.796   4.032  14.935  0.2330 -0.1648 -0.0044
14764TIP3    H165707   5.866   3.968  14.942  0.4943 -0.0646 -1.5439
14764TIP3    H265708   5.758   4.017  14.849 -1.7701 -0.3374  0.8673
14765TIP3   OH265709   3.371   5.289   5.262  0.3962  0.5041  0.3171
14765TIP3    H165710   3.294   5.286   5.205  1.0168 -2.0895 -0.4371
14765TIP3    H265711   3.445   5.278   5.203  1.1453 -0.5341  1.4354
14766TIP3   OH265712   6.394   4.438   4.331  0.2082 -0.2401  0.6935
14766TIP3    H165713   6.477   4.461   4.291  0.3087 -1.8133 -0.0556
14766TIP3    H265714   6.412   4.433   4.424  1.1933 -1.5362  0.4386
14767TIP3   OH265715   5.181   1.696  15.433 -0.4932 -0.2188 -0.3625
14767TIP3    H165716   5.128   1.711  15.511 -0.8707  0.3263 -0.7196
14767TIP3    H265717   5.163   1.772  15.377 -1.3004 -1.2952 -1.5749
14768TIP3   OH265718   3.099   1.651   3.026  0.9772 -0.2689 -0.0019
14768TIP3    H165719   3.127   1.565   2.994 -0.5488 -1.1200  0.9099
14768TIP3    H265720   3.150   1.664   3.106  0.5130 -0.7532  0.3741
14769TIP3   OH265721   1.962   2.380  16.569 -1.5340  0.1543 -0.6777
14769TIP3    H165722   1.924   2.440  16.634 -0.9835 -0.1851 -0.0412
14769TIP3    H265723   2.049   2.417  16.550 -1.6954  0.2581 -1.2304
14770TIP3   OH265724   5.004   3.228  13.661  0.0601  0.3355  0.2060
14770TIP3    H165725   4.966   3.313  13.686  0.5407 -0.0773  2.4510
14770TIP3    H265726   4.954   3.165  13.713  1.1058 -0.5634  0.1135
14771TIP3   OH265727   4.114   3.645  12.897 -0.2679  0.1155 -0.6832
14771TIP3    H165728   4.106   3.581  12.827 -0.8730  0.7497 -1.1962
14771TIP3    H265729   4.051   3.713  12.875 -1.7867 -0.5661  1.4436
14772TIP3   OH265730   1.748   6.534   4.797  0.3591 -0.4503 -0.1283
14772TIP3    H165731   1.680   6.538   4.730 -0.8970  0.2141  1.1611
14772TIP3    H265732   1.732   6.611   4.851  2.5705  0.1002 -0.2012
14773TIP3   OH265733   5.611   2.598  13.300 -0.1481 -0.5247 -0.3761
14773TIP3    H165734   5.669   2.559  13.366  0.1688 -0.9068 -0.8731
14773TIP3    H265735   5.617   2.692  13.315  1.4580 -0.4922 -1.1201
14774TIP3   OH265736   4.196   2.189   5.100 -0.2859  0.0121 -0.2944
14774TIP3    H165737   4.267   2.171   5.162 -0.5018 -0.7554 -0.2546
14774TIP3    H265738   4.177   2.103   5.062  0.1742  0.5576 -1.7810
14775TIP3   OH265739   5.616   6.554  12.991  0.5784 -0.0409 -0.2274
14775TIP3    H165740   5.684   6.518  12.935 -0.4757 -3.0270  0.3430
14775TIP3    H265741   5.639   6.647  13.000  2.9068 -0.3607 -2.3999
14776TIP3   OH265742   3.650   5.607   5.413  0.0176  0.1342  0.4901
14776TIP3    H165743   3.643   5.540   5.481  1.4333 -0.8331 -0.2905
14776TIP3    H265744   3.647   5.558   5.331  0.8984  1.0365 -0.0873
14777TIP3   OH265745   0.913   2.881   3.963  0.1128  0.0822 -0.0950
14777TIP3    H165746   0.857   2.894   4.040  0.8185 -1.0483  0.6191
14777TIP3    H265747   0.851   2.868   3.891 -0.5488 -0.7821  0.6175
14778TIP3   OH265748   1.171   0.749   3.875  0.4758  0.4972 -0.3882
14778TIP3    H165749   1.254   0.792   3.853  0.6471  1.4963  2.1486
14778TIP3    H265750   1.149   0.780   3.963 -1.1300 -2.0043  0.1508
14779TIP3   OH265751   4.046   4.190  11.523 -0.3691 -0.3693 -0.8550
14779TIP3    H165752   4.051   4.237  11.439 -0.8070  0.9687 -0.1575
14779TIP3    H265753   3.964   4.220  11.562  0.4846  0.0725  0.6531
14780TIP3   OH265754   4.477   4.509  10.773 -0.0945  0.3497 -0.5246
14780TIP3    H165755   4.451   4.487  10.862  2.6851 -0.3280  0.1825
14780TIP3    H265756   4.500   4.425  10.733  1.5875  0.9369 -0.8517
14781TIP3   OH265757   5.819   4.953   1.085 -0.4328  0.2828  0.0270
14781TIP3    H165758   5.838   4.860   1.073 -1.4427  0.0070  0.5322
14781TIP3    H265759   5.747   4.955   1.148 -0.5587  1.3985 -0.1438
14782TIP3   OH265760   5.891   0.981  12.235 -0.1348 -0.4564 -0.5797
14782TIP3    H165761   5.902   0.929  12.315  1.4607  0.2319 -0.3403
14782TIP3    H265762   5.973   1.030  12.226 -0.1482 -0.7869 -2.8259
14783TIP3   OH265763   6.735   5.853   1.936  0.3210  0.6762 -0.0698
14783TIP3    H165764   6.757   5.760   1.945 -1.6380  0.3509  1.9494
14783TIP3    H265765   6.806   5.890   1.884  1.6501 -1.7516 -0.0517
14784TIP3   OH265766   1.337   1.526  11.733 -0.5602 -0.8530 -0.2709
14784TIP3    H165767   1.399   1.561  11.797 -0.0699 -1.4010 -0.4337
14784TIP3    H265768   1.312   1.601  11.680 -0.9149 -0.4088  0.5188
14785TIP3   OH265769   0.944   6.402   5.528  0.2750  0.8292 -0.5339
14785TIP3    H165770   0.851   6.420   5.532 -0.3479 -2.0893 -0.1530
14785TIP3    H265771   0.980   6.467   5.468 -1.7528  2.8329  0.3641
14786TIP3   OH265772   3.864   3.134  13.268  0.2557  0.6912 -0.2337
14786TIP3    H165773   3.929   3.082  13.316  0.3821 -0.2037 -1.3716
14786TIP3    H265774   3.902   3.221  13.264  2.1809 -0.1945 -2.3416
14787TIP3   OH265775   4.258   4.568   4.997 -0.4455 -0.1563 -0.2246
14787TIP3    H165776   4.194   4.621   4.949 -1.1892 -1.3596 -0.5901
14787TIP3    H265777   4.313   4.529   4.929 -0.5132 -0.6262 -0.0126
14788TIP3   OH265778   5.403   1.837  16.769 -0.2724 -0.7487  0.1259
14788TIP3    H165779   5.415   1.834  16.674  3.3395 -0.8909  0.5125
14788TIP3    H265780   5.406   1.746  16.797  0.3193 -0.5988  0.5532
14789TIP3   OH265781   3.621   4.588  15.045 -0.7702 -0.5709 -0.7148
14789TIP3    H165782   3.563   4.661  15.022 -0.8910 -0.3940  0.1422
14789TIP3    H265783   3.707   4.614  15.011 -0.9488 -0.3279 -0.9907
14790TIP3   OH265784   5.562   4.961   1.230  0.0016  0.5069  0.1129
14790TIP3    H165785   5.486   4.902   1.235  1.3073 -1.1347  0.9298
14790TIP3    H265786   5.598   4.961   1.318  1.8885  0.0183 -0.6456
14791TIP3   OH265787   1.322   0.763   0.819  0.1021 -0.4555  0.2031
14791TIP3    H165788   1.226   0.763   0.823  0.1364  0.4206  1.1760
14791TIP3    H265789   1.349   0.811   0.897  1.3735 -2.0235  0.7547
14792TIP3   OH265790   1.701   1.728  11.311  0.2474  0.2204  0.5627
14792TIP3    H165791   1.784   1.768  11.287 -0.7906  2.5112  0.6015
14792TIP3    H265792   1.641   1.754  11.240 -0.9930  0.6349  1.7402
14793TIP3   OH265793   5.592   3.793  14.293  0.1073  0.0876  0.3828
14793TIP3    H165794   5.568   3.811  14.203 -1.0954  1.4896  0.9684
14793TIP3    H265795   5.510   3.773  14.337  0.4604  1.0389  1.5167
14794TIP3   OH265796   5.356   3.712   2.687 -0.0795  0.4190  0.5136
14794TIP3    H165797   5.264   3.709   2.664 -0.4556 -0.0575  1.9849
14794TIP3    H265798   5.368   3.638   2.747  1.0014  1.1245  1.2042
14795TIP3   OH265799   0.783   4.455   3.689  0.2352 -0.3923  0.3381
14795TIP3    H165800   0.714   4.516   3.715  0.9459  0.1654  0.9294
14795TIP3    H265801   0.854   4.511   3.657  0.7926 -0.9159  0.6523
14796TIP3   OH265802   2.714   5.360  11.494  0.1145 -0.7621  0.2075
14796TIP3    H165803   2.689   5.268  11.481  0.7182 -0.8197 -0.5892
14796TIP3    H265804   2.632   5.408  11.494 -0.1829 -1.2654  0.3135
14797TIP3   OH265805   5.452   0.485  12.736 -0.4360 -0.4793 -0.2243
14797TIP3    H165806   5.473   0.392  12.725  0.4023 -0.3354  0.0855
14797TIP3    H265807   5.372   0.486  12.788  0.5019 -1.0119  1.2632
14798TIP3   OH265808   3.329   6.211  13.708  0.8688 -0.3750 -0.1505
14798TIP3    H165809   3.249   6.262  13.718  2.1694  1.4944  0.9339
14798TIP3    H265810   3.361   6.233  13.620  1.0663  0.1620  0.0535
14799TIP3   OH265811   4.714   3.243  11.863  0.3306 -0.2286  0.1526
14799TIP3    H165812   4.780   3.256  11.794  1.6416 -0.3429  1.3536
14799TIP3    H265813   4.719   3.149  11.883 -3.4933 -1.2508 -2.9453
14800TIP3   OH265814   0.826   6.065   3.446 -0.2146 -0.3318 -0.3393
14800TIP3    H165815   0.780   6.146   3.468  1.0997  0.2390  0.4342
14800TIP3    H265816   0.887   6.090   3.376 -1.8363 -1.3325 -2.1365
14801TIP3   OH265817   6.636   1.706   2.626 -0.2305  0.3546  0.7390
14801TIP3    H165818   6.546   1.719   2.597 -0.2153  0.8932  0.9260
14801TIP3    H265819   6.649   1.772   2.695  0.0033 -0.3453  1.3711
14802TIP3   OH265820   5.215   4.244  16.613 -0.0526 -0.2488  0.5110
14802TIP3    H165821   5.213   4.177  16.680  1.8882 -1.6778 -0.8022
14802TIP3    H265822   5.137   4.227  16.559 -0.1682 -0.7521  0.8344
14803TIP3   OH265823   0.210   4.184  12.538  0.4210  0.0529 -0.0850
14803TIP3    H165824   0.217   4.260  12.596  1.0046 -0.0805  0.0286
14803TIP3    H265825   0.137   4.133  12.574 -0.2189  0.7504 -0.3868
14804TIP3   OH265826   1.108   5.569   6.363  0.0101  0.0603 -0.1624
14804TIP3    H165827   1.202   5.568   6.381  0.4808  0.4972 -2.3922
14804TIP3    H265828   1.093   5.653   6.319 -1.7151  0.6870  1.5682
14805TIP3   OH265829   4.995   1.073   1.587 -0.3604 -0.5922 -0.1389
14805TIP3    H165830   5.036   0.991   1.615  0.9576  0.3141  0.6653
14805TIP3    H265831   4.942   1.049   1.511 -1.4253 -2.5102  1.1798
14806TIP3   OH265832   6.451   3.436   3.600  0.2777 -0.2556  0.3801
14806TIP3    H165833   6.439   3.343   3.581 -0.7278 -0.1420  0.4725
14806TIP3    H265834   6.391   3.482   3.541  0.8421  0.3441  0.2622
14807TIP3   OH265835   3.557   1.154   4.569 -0.2511 -0.6761  0.3221
14807TIP3    H165836   3.615   1.227   4.588  1.1711 -1.3584 -1.2526
14807TIP3    H265837   3.529   1.123   4.655  0.6386  0.5255  1.0651
14808TIP3   OH265838   5.807   2.373  10.851  0.6581  0.2102 -0.0115
14808TIP3    H165839   5.878   2.311  10.871  0.7813  0.1133 -0.7189
14808TIP3    H265840   5.829   2.451  10.901  1.4474  0.2986 -0.4841
14809TIP3   OH265841   5.544   5.087  11.982 -0.2305  0.4790 -0.1137
14809TIP3    H165842   5.522   5.084  12.075  0.8572 -1.0762  0.1171
14809TIP3    H265843   5.524   5.177  11.955 -0.7075  0.8919  1.5770
14810TIP3   OH265844   5.856   0.883  14.793  0.2950  0.4445  0.5831
14810TIP3    H165845   5.914   0.943  14.747  1.7260  0.5529  2.4709
14810TIP3    H265846   5.815   0.938  14.861  0.2156 -0.3082  1.1453
14811TIP3   OH265847   1.888   5.458  11.324 -0.4310 -0.3292  0.4577
14811TIP3    H165848   1.882   5.554  11.328  1.6620 -0.0976 -1.2930
14811TIP3    H265849   1.930   5.434  11.407 -0.0587  0.3690  0.4774
14812TIP3   OH265850   5.200   5.901  10.818 -0.6259  0.1702 -0.3425
14812TIP3    H165851   5.227   5.928  10.906 -1.3721 -0.4981  0.1086
14812TIP3    H265852   5.124   5.957  10.799 -0.1129  0.7122 -0.8030
14813TIP3   OH265853   5.260   3.932  13.746 -0.0402 -0.0268 -0.1607
14813TIP3    H165854   5.255   4.028  13.741 -1.2769 -0.1722 -1.9829
14813TIP3    H265855   5.221   3.901  13.664  0.3711 -2.0981  0.3976
14814TIP3   OH265856   2.206   2.322   2.278  0.2522 -0.2668  0.3704
14814TIP3    H165857   2.249   2.329   2.193 -1.1032  2.4072 -0.1549
14814TIP3    H265858   2.219   2.231   2.305  3.7501 -0.2388 -1.0325
14815TIP3   OH265859   5.105   5.021   4.132 -0.3118 -0.4968  0.5251
14815TIP3    H165860   5.027   4.972   4.156 -0.0885 -1.9410 -1.5787
14815TIP3    H265861   5.071   5.097   4.084 -0.4347 -0.9822 -0.1555
14816TIP3   OH265862   0.675   5.986   3.932  0.4579  0.6628 -0.2816
14816TIP3    H165863   0.730   5.943   3.999 -0.6869  1.3679  1.1385
14816TIP3    H265864   0.730   5.987   3.854  1.7610 -0.3741  0.5844
14817TIP3   OH265865   0.884   0.546   5.846 -0.0834 -0.1810  0.0380
14817TIP3    H165866   0.910   0.589   5.927 -0.2261  1.5311 -0.7960
14817TIP3    H265867   0.792   0.521   5.859 -1.2966  3.4830 -0.9205
14818TIP3   OH265868   3.239   5.776   4.701 -0.3564  0.5129 -0.5125
14818TIP3    H165869   3.323   5.785   4.656 -0.4549  1.0741 -0.5883
14818TIP3    H265870   3.241   5.843   4.769  0.9472 -2.1599  2.1615
14819TIP3   OH265871   1.849   4.720   5.153 -0.0153  0.3913  0.0078
14819TIP3    H165872   1.944   4.729   5.157  0.2271 -0.3218 -2.9872
14819TIP3    H265873   1.832   4.629   5.175 -0.2621  1.0704  2.9057
14820TIP3   OH265874   1.921   1.764  16.907 -0.0682  0.1579 -0.1953
14820TIP3    H165875   1.894   1.779  16.816 -1.2464  0.5116  0.2070
14820TIP3    H265876   1.891   1.841  16.954  2.7686  1.1625  0.0623
14821TIP3   OH265877   1.728   6.339  14.964  0.1549  0.1119  0.3365
14821TIP3    H165878   1.775   6.422  14.954 -0.1372  0.4459  1.6116
14821TIP3    H265879   1.759   6.285  14.891  1.4159  0.8412  0.3072
14822TIP3   OH265880   4.721   4.499  16.197 -0.1773  0.2131  0.0907
14822TIP3    H165881   4.664   4.547  16.138 -0.5132 -0.8545 -0.4624
14822TIP3    H265882   4.792   4.466  16.141  1.2112  1.8491  0.8295
14823TIP3   OH265883   1.936   6.614   2.165  0.0615  0.7024 -0.6947
14823TIP3    H165884   1.855   6.636   2.210 -0.1021 -0.2422 -0.5122
14823TIP3    H265885   1.917   6.628   2.072 -0.0735  1.1957 -0.5936
14824TIP3   OH265886   3.838   4.332  14.309 -0.4322 -0.4271 -0.6413
14824TIP3    H165887   3.786   4.253  14.329  0.5570 -0.8166  0.4444
14824TIP3    H265888   3.777   4.404  14.322 -0.3844 -0.8025  1.8384
14825TIP3   OH265889   1.040   1.954  12.799 -0.2888  0.3232  0.1893
14825TIP3    H165890   1.115   1.978  12.853 -0.2950 -0.7127  0.6746
14825TIP3    H265891   1.046   2.011  12.723  0.9505  0.3041  0.2594
14826TIP3   OH265892   4.365   1.564  14.310 -0.1078 -0.4846 -0.4118
14826TIP3    H165893   4.300   1.591  14.374  1.2779 -2.7852  2.0917
14826TIP3    H265894   4.445   1.609  14.337  0.3882 -1.1680 -0.7356
14827TIP3   OH265895   0.242   2.709  12.177 -0.6278  0.4120  0.0430
14827TIP3    H165896   0.309   2.704  12.109 -0.2313 -1.7849  0.5457
14827TIP3    H265897   0.160   2.689  12.132 -0.7924  1.8363 -0.3226
14828TIP3   OH265898   2.894   0.660   4.895 -0.2190  0.0336 -0.3685
14828TIP3    H165899   2.890   0.673   4.990 -0.1234 -1.7854 -0.1062
14828TIP3    H265900   2.802   0.668   4.866 -0.2280  0.7403 -0.1506
14829TIP3   OH265901   6.580   1.116   4.983  0.1602 -0.2980 -0.7476
14829TIP3    H165902   6.510   1.148   5.040  1.3194  0.6310  0.1842
14829TIP3    H265903   6.534   1.072   4.911 -1.3511 -0.4089  0.2612
14830TIP3   OH265904   3.661   3.363   1.408 -0.0090  0.7421  1.3676
14830TIP3    H165905   3.728   3.406   1.354  0.2987 -0.0670  1.1062
14830TIP3    H265906   3.620   3.435   1.456 -0.3991  1.4986 -0.0628
14831TIP3   OH265907   0.199   3.828   4.577  0.1643  0.1275  0.1569
14831TIP3    H165908   0.139   3.847   4.649  0.6438  1.4704  0.2078
14831TIP3    H265909   0.254   3.757   4.610  1.6773  2.0457  1.8714
14832TIP3   OH265910   5.445   2.975   2.044  0.1341 -0.1847 -0.2063
14832TIP3    H165911   5.472   2.886   2.020 -3.4023 -1.6210  0.8137
14832TIP3    H265912   5.437   3.021   1.961  0.9115 -1.1573 -0.8232
14833TIP3   OH265913   6.478   5.065   0.429  0.0368 -0.3839  0.4802
14833TIP3    H165914   6.429   5.072   0.347 -0.7229 -1.3426  0.8472
14833TIP3    H265915   6.476   5.154   0.465 -1.8813 -0.5131  0.7405
14834TIP3   OH265916   3.880   6.156   0.061  0.8146 -0.2734 -0.4742
14834TIP3    H165917   3.856   6.249   0.061  1.2098 -0.1704 -0.2194
14834TIP3    H265918   3.837   6.120   0.139 -0.9847 -0.7362 -1.6730
14835TIP3   OH265919   6.119   6.269   2.548 -0.0375  0.0686  0.5209
14835TIP3    H165920   6.154   6.182   2.570 -0.8289 -0.9749 -2.1651
14835TIP3    H265921   6.172   6.298   2.474 -1.0758  1.0189  0.1372
14836TIP3   OH265922   3.679   6.166  10.596 -0.6410 -0.1327  0.3840
14836TIP3    H165923   3.616   6.187  10.665 -2.3423 -1.3804 -0.7529
14836TIP3    H265924   3.688   6.247  10.547  1.5035  1.1234  2.7423
14837TIP3   OH265925   2.206   4.598   5.779 -0.1164  0.2247  0.6002
14837TIP3    H165926   2.236   4.521   5.827  0.2789  0.1124  0.1725
14837TIP3    H265927   2.278   4.660   5.786  0.6804 -0.4431 -1.3537
14838TIP3   OH265928   5.408   4.035  15.476  0.0157  0.4901 -0.1452
14838TIP3    H165929   5.408   4.055  15.383  1.2289  2.0238  0.1665
14838TIP3    H265930   5.490   4.072  15.509  0.7514 -2.1424  1.0919
14839TIP3   OH265931   6.655   3.285  15.712 -0.3454 -0.4085  0.3994
14839TIP3    H165932   6.576   3.294  15.657  1.5748  0.1852 -2.3528
14839TIP3    H265933   6.681   3.375  15.731 -1.0364 -0.6075  2.4383
14840TIP3   OH265934   0.306   5.694  12.087  0.1714  0.2466 -0.6298
14840TIP3    H165935   0.377   5.731  12.140  1.5016 -0.7219 -1.6955
14840TIP3    H265936   0.311   5.600  12.103 -1.1835  0.2132 -0.3633
14841TIP3   OH265937   0.359   5.702  14.721 -0.1389  0.2495 -0.1930
14841TIP3    H165938   0.419   5.640  14.762  0.1719 -1.0847 -2.5632
14841TIP3    H265939   0.273   5.660  14.729 -0.0194 -0.2015 -1.2445
14842TIP3   OH265940   3.633   3.381  14.923 -0.4186  0.0551 -0.3268
14842TIP3    H165941   3.651   3.358  15.014 -0.5715  0.0487 -0.2987
14842TIP3    H265942   3.539   3.396  14.920 -0.4567 -0.2182 -0.5450
14843TIP3   OH265943   2.789   5.402  16.696 -0.1486  0.2886  0.3322
14843TIP3    H165944   2.792   5.489  16.656  0.6699 -0.0971 -0.4847
14843TIP3    H265945   2.702   5.369  16.676  0.6667 -0.4062 -2.3000
14844TIP3   OH265946   4.178   1.969  16.740  0.1356  0.3941 -0.3762
14844TIP3    H165947   4.102   2.024  16.723 -0.2706 -0.2431 -0.6519
14844TIP3    H265948   4.244   1.999  16.678 -0.2952  0.1573 -0.9567
14845TIP3   OH265949   1.054   0.840   4.127 -0.0311  0.5916  0.1221
14845TIP3    H165950   1.070   0.865   4.218 -0.0861 -1.5636  0.7501
14845TIP3    H265951   0.966   0.804   4.127  1.0698 -2.1953 -0.1543
14846TIP3   OH265952   4.721   1.819  16.293  0.1927 -0.0479  0.6331
14846TIP3    H165953   4.784   1.890  16.306  0.5845  0.0751 -1.7437
14846TIP3    H265954   4.774   1.740  16.294  0.1851 -0.0604  0.1468
14847TIP3   OH265955   0.116   0.313   4.495  0.2758  0.5420  0.1128
14847TIP3    H165956   0.130   0.218   4.495  0.7282  0.5748  2.4463
14847TIP3    H265957   0.183   0.346   4.436  1.6810 -0.4349  1.1008
14848TIP3   OH265958   5.649   0.063  15.383 -0.1589  0.6977  0.1450
14848TIP3    H165959   5.661   0.065  15.478  0.7449  0.4742  0.0360
14848TIP3    H265960   5.711   0.129  15.350  0.2540  0.0541 -0.3657
14849TIP3   OH265961   5.192   3.126   5.141 -0.0248 -0.0912 -0.4622
14849TIP3    H165962   5.255   3.196   5.126 -1.4587  0.7800 -2.7438
14849TIP3    H265963   5.136   3.158   5.212 -0.0512  0.6511 -0.8132
14850TIP3   OH265964   3.068   1.431  10.416  0.3179 -0.0946  0.3237
14850TIP3    H165965   3.093   1.523  10.426 -0.0598 -0.0385  0.7782
14850TIP3    H265966   3.140   1.382  10.455  0.4876  0.0077  0.1425
14851TIP3   OH265967   0.624   0.143  14.153 -0.2335 -0.1844 -0.1453
14851TIP3    H165968   0.712   0.148  14.117  0.1326 -0.2670  0.7294
14851TIP3    H265969   0.566   0.164  14.080  0.3575 -3.1119 -1.5267
14852TIP3   OH265970   0.466   6.150  14.262 -0.3180  0.0311 -0.2978
14852TIP3    H165971   0.517   6.084  14.215 -0.4932 -1.2759  1.2971
14852TIP3    H265972   0.529   6.193  14.320 -0.4122  0.5897 -0.5992
14853TIP3   OH265973   0.624   0.836   2.728  0.0236  0.2511  0.3020
14853TIP3    H165974   0.613   0.754   2.777 -2.2154 -0.2403 -0.9971
14853TIP3    H265975   0.536   0.871   2.718  0.7081  1.6291 -1.2214
14854TIP3   OH265976   3.663   4.613   1.094  0.3682  0.4343  0.6383
14854TIP3    H165977   3.678   4.698   1.134  0.1039  0.6957  0.1883
14854TIP3    H265978   3.568   4.611   1.077  0.3552  0.0059  0.7554
14855TIP3   OH265979   5.266   1.047   2.377 -0.6064  0.5259 -0.2834
14855TIP3    H165980   5.248   0.956   2.401 -2.4585  0.9654  0.0730
14855TIP3    H265981   5.362   1.053   2.375 -0.4723 -1.3574 -0.0483
14856TIP3   OH265982   4.719   5.477  12.287  0.1944 -0.1757 -0.4106
14856TIP3    H165983   4.685   5.529  12.360  0.3499  0.7753 -1.0007
14856TIP3    H265984   4.711   5.386  12.317  1.6315  0.2552  1.3761
14857TIP3   OH265985   2.322   5.680  11.490 -0.2018  0.6246  0.5099
14857TIP3    H165986   2.356   5.739  11.557 -0.7289  1.9568 -0.3691
14857TIP3    H265987   2.394   5.620  11.472 -0.4544 -0.5578  3.1365
14858TIP3   OH265988   5.820   1.642  13.448  0.2847 -0.0343 -0.0798
14858TIP3    H165989   5.845   1.722  13.493 -0.5084  0.0730  0.1755
14858TIP3    H265990   5.725   1.650  13.435  0.2936 -0.6664 -0.5702
14859TIP3   OH265991   6.623   5.124  14.817 -0.7436  0.5543 -0.3117
14859TIP3    H165992   6.707   5.169  14.818 -1.1517  1.3412 -0.6154
14859TIP3    H265993   6.634   5.051  14.878  0.4037  0.1705 -0.9717
14860TIP3   OH265994   5.374   2.704   5.639 -0.5810 -0.4388  0.1895
14860TIP3    H165995   5.299   2.685   5.695 -1.0552  0.9919  0.0714
14860TIP3    H265996   5.338   2.710   5.551 -0.2868 -0.0047  0.0944
14861TIP3   OH265997   4.263   2.347  15.148  0.7472 -0.0640  0.7572
14861TIP3    H165998   4.303   2.298  15.076 -2.4660 -1.6069 -0.0643
14861TIP3    H265999   4.301   2.309  15.227  1.4023 -1.0377 -0.0174
14862TIP3   OH266000   1.747   4.214   1.947 -0.0463 -0.2678  0.1519
14862TIP3    H166001   1.811   4.143   1.949  0.4477  0.1631 -0.2174
14862TIP3    H266002   1.798   4.293   1.967 -0.6072 -0.0302  0.6685
14863TIP3   OH266003   1.808   3.405   0.492  0.0955  0.1760 -0.5034
14863TIP3    H166004   1.840   3.495   0.487 -2.5170  1.1222 -1.4315
14863TIP3    H266005   1.775   3.396   0.581  1.0674 -0.1124 -0.1757
14864TIP3   OH266006   1.556   4.001   1.928  0.4304  0.9461  0.1134
14864TIP3    H166007   1.610   3.937   1.881  1.2798  1.0005  1.0047
14864TIP3    H266008   1.618   4.067   1.958 -0.0944  0.8733  1.3744
14865TIP3   OH266009   4.148   2.544   5.759 -0.2607  0.2459 -0.1979
14865TIP3    H166010   4.069   2.520   5.808  0.3224 -1.1279  0.1024
14865TIP3    H266011   4.128   2.520   5.668 -0.3387  0.2663 -0.1865
14866TIP3   OH266012   3.884   5.807   5.397  0.1455  0.3822  0.4034
14866TIP3    H166013   3.811   5.748   5.410  1.1328 -0.5560  1.8667
14866TIP3    H266014   3.908   5.796   5.304 -0.1008 -1.0157  0.4960
14867TIP3   OH266015   6.387   2.910   3.920 -0.5354  0.5000 -0.3209
14867TIP3    H166016   6.432   2.900   3.836  2.1630 -0.1906  1.1575
14867TIP3    H266017   6.378   3.005   3.931  0.3550  0.6349 -0.7287
14868TIP3   OH266018   2.294   1.942  14.431 -0.1413  0.0733  0.1358
14868TIP3    H166019   2.257   1.855  14.447  0.5388 -0.0123  1.2932
14868TIP3    H266020   2.271   1.992  14.510 -1.5136  1.2841 -1.0065
14869TIP3   OH266021   1.367   2.482  15.524 -0.0827 -0.2194  0.2338
14869TIP3    H166022   1.452   2.446  15.498 -0.4800 -2.3567  1.6975
14869TIP3    H266023   1.389   2.554  15.583  0.7456 -0.4116  0.1711
14870TIP3   OH266024   2.152   3.726   3.109 -0.2546 -0.1011  0.2824
14870TIP3    H166025   2.141   3.631   3.117 -0.6661  0.1060  2.4572
14870TIP3    H266026   2.078   3.754   3.055 -0.3522 -0.9614 -0.0381
14871TIP3   OH266027   0.763   0.839  12.663  0.1314 -0.7662 -0.0163
14871TIP3    H166028   0.757   0.913  12.603  0.4796 -0.9913 -0.3219
14871TIP3    H266029   0.814   0.773  12.617  1.1391 -0.6086  0.8660
14872TIP3   OH266030   5.180   0.856   0.955 -0.0101  0.1879 -0.4710
14872TIP3    H166031   5.221   0.815   0.879  0.7880 -1.7501  0.9629
14872TIP3    H266032   5.244   0.846   1.025 -1.1361  1.0671  0.7079
14873TIP3   OH266033   4.289   5.649   4.603  0.0709  0.1485 -0.0244
14873TIP3    H166034   4.205   5.605   4.589  0.2226  0.1946 -1.0753
14873TIP3    H266035   4.342   5.585   4.652 -0.3117 -0.1664 -0.0237
14874TIP3   OH266036   0.759   5.115   3.803 -0.2580  0.5000 -0.0263
14874TIP3    H166037   0.828   5.157   3.853 -0.8622  0.5615  0.7578
14874TIP3    H266038   0.717   5.187   3.755  0.3869  0.4264 -0.7155
14875TIP3   OH266039   1.094   3.449   2.170 -0.3557  0.1088 -0.3414
14875TIP3    H166040   1.119   3.512   2.102 -0.1860 -0.8131 -1.1436
14875TIP3    H266041   1.171   3.393   2.180 -0.6567 -0.2310  0.0757
14876TIP3   OH266042   0.615   4.198  16.846 -0.2075 -0.5095  0.5326
14876TIP3    H166043   0.636   4.259  16.917 -1.8950  1.2797 -0.4614
14876TIP3    H266044   0.666   4.230  16.771  1.0242 -1.9787  0.7108
14877TIP3   OH266045   2.339   3.621  16.792 -0.1286  0.6628  0.3461
14877TIP3    H166046   2.271   3.632  16.858  0.4201  1.4470  0.7822
14877TIP3    H266047   2.420   3.607  16.842 -0.0978 -1.2025 -0.1609
14878TIP3   OH266048   3.026   1.017   1.837 -0.4938 -0.4036  0.3480
14878TIP3    H166049   3.112   0.985   1.863 -0.0885 -0.6219 -1.1900
14878TIP3    H266050   2.981   0.941   1.801 -1.2211 -0.2245  0.8686
14879TIP3   OH266051   0.083   0.519  11.930 -0.0149  0.1119 -0.3628
14879TIP3    H166052   0.094   0.464  12.007  0.2157 -1.4369 -1.4829
14879TIP3    H266053   0.172   0.544  11.904  0.1289 -1.9384 -1.9401
14880TIP3   OH266054   4.235   2.695  15.897  0.3766  0.1977 -0.2326
14880TIP3    H166055   4.321   2.706  15.856 -0.3381  0.9049 -1.6026
14880TIP3    H266056   4.241   2.742  15.980  1.6990 -0.8126  0.2584
14881TIP3   OH266057   4.439   2.578  17.133 -0.3275  0.0387 -0.0675
14881TIP3    H166058   4.363   2.634  17.143 -0.5286 -0.2980  0.2662
14881TIP3    H266059   4.495   2.599  17.207 -0.4013 -0.1988  0.0566
14882TIP3   OH266060   5.821   0.398   4.498  0.3286 -0.8594  0.2673
14882TIP3    H166061   5.890   0.333   4.481  0.8701  0.2558 -1.9821
14882TIP3    H266062   5.866   0.482   4.495 -1.0849 -0.1292 -1.1161
14883TIP3   OH266063   5.443   5.023   0.868 -0.0549  0.3328  0.1342
14883TIP3    H166064   5.538   5.022   0.854 -0.0401 -1.7479  0.2797
14883TIP3    H266065   5.433   5.058   0.957  0.6189 -0.1919  0.4203
14884TIP3   OH266066   5.761   0.038   3.881  0.0054 -0.1986  0.4037
14884TIP3    H166067   5.779   0.009   3.971 -0.1115 -4.0081 -0.7250
14884TIP3    H266068   5.667   0.055   3.880 -0.0452 -0.4463  0.9227
14885TIP3   OH266069   0.048   5.921  12.233 -0.6913 -0.0163 -0.0404
14885TIP3    H166070   0.041   5.827  12.215 -2.1689  0.0335  0.2153
14885TIP3    H266071   0.089   5.926  12.319 -2.8839 -0.5172  1.0811
14886TIP3   OH266072   2.288   3.503   3.268 -0.2298 -0.4314  0.0683
14886TIP3    H166073   2.220   3.504   3.335 -0.6084 -0.2131 -0.3210
14886TIP3    H266074   2.281   3.416   3.228  0.3715 -0.7681  0.6983
14887TIP3   OH266075   2.016   1.508   4.970 -0.3037 -0.1446  0.5290
14887TIP3    H166076   2.084   1.504   4.903 -1.0334  0.4356 -0.2622
14887TIP3    H266077   2.047   1.450   5.040  1.0463  0.2115  0.2332
14888TIP3   OH266078   2.764   4.564   6.078  0.2446 -0.2528  0.0791
14888TIP3    H166079   2.795   4.530   5.994  1.2837 -1.3718  0.8896
14888TIP3    H266080   2.781   4.658   6.074  0.7196 -0.3700 -0.7818
14889TIP3   OH266081   1.086   5.101   4.219  0.3897 -0.1726 -0.2765
14889TIP3    H166082   1.148   5.139   4.158  1.4532 -0.0701  0.8485
14889TIP3    H266083   1.040   5.034   4.168 -0.1125  1.2501 -1.7080
14890TIP3   OH266084   2.242   1.389   6.849 -0.1628  0.0166 -0.3523
14890TIP3    H166085   2.266   1.306   6.808 -1.7200 -0.3867 -0.5141
14890TIP3    H266086   2.274   1.456   6.790 -1.1901 -0.5386 -1.5742
14891TIP3   OH266087   3.956   5.521  12.724 -0.8018  0.3852 -1.0212
14891TIP3    H166088   3.872   5.485  12.751 -0.6355 -0.2533 -1.3296
14891TIP3    H266089   4.021   5.460  12.761 -0.4100  1.5098  0.2199
14892TIP3   OH266090   4.864   1.325  15.106 -0.3270 -0.2635  0.1456
14892TIP3    H166091   4.855   1.230  15.111  0.0763 -0.2702  0.8066
14892TIP3    H266092   4.792   1.358  15.161 -0.1875 -0.1941  0.2849
14893TIP3   OH266093   0.589   6.602  13.164 -0.0537 -0.1530  0.6140
14893TIP3    H166094   0.610   6.510  13.175  0.2731  0.1765  3.0911
14893TIP3    H266095   0.494   6.606  13.164 -0.0667 -0.4774  0.8088
14894TIP3   OH266096   3.347   1.637   3.829  0.2089 -0.2552  0.1844
14894TIP3    H166097   3.301   1.715   3.858  1.3335  0.4465  0.1093
14894TIP3    H266098   3.319   1.568   3.890 -0.7489  0.2072  0.2687
14895TIP3   OH266099   2.963   0.268  11.712 -0.1065 -0.7560  0.0662
14895TIP3    H166100   2.925   0.301  11.793 -1.1532 -0.7965 -0.4014
14895TIP3    H266101   3.017   0.194  11.739 -2.3036 -2.2582  0.4862
14896TIP3   OH266102   1.681   4.834   3.543  0.4356  0.0237 -0.5685
14896TIP3    H166103   1.666   4.897   3.472  1.5066  0.5358 -0.3513
14896TIP3    H266104   1.773   4.810   3.534 -0.0137 -1.6791 -0.7719
14897TIP3   OH266105   6.274   6.753   3.170  0.2434 -0.4284 -0.4817
14897TIP3    H166106   6.364   6.722   3.177 -0.0831 -1.1198  0.7455
14897TIP3    H266107   6.221   6.675   3.183 -0.5640  0.3656  1.1340
14898TIP3   OH266108   5.752   3.398  13.582 -0.6320 -0.0825  0.6054
14898TIP3    H166109   5.765   3.492  13.582  1.7494 -0.3924  0.0704
14898TIP3    H266110   5.718   3.378  13.669 -0.6179  1.1814  0.9055
14899TIP3   OH266111   2.128   4.970  14.853 -0.1080 -0.1010 -0.5780
14899TIP3    H166112   2.140   5.064  14.865 -0.2022 -0.1307 -0.2550
14899TIP3    H266113   2.043   4.962  14.810  0.3426  0.0190 -1.4943
14900TIP3   OH266114   1.847   4.093  11.832 -0.4630 -0.0025  0.5170
14900TIP3    H166115   1.940   4.116  11.829 -0.2572 -0.7223  1.1634
14900TIP3    H266116   1.831   4.050  11.748 -0.4997  1.1540 -0.0850
14901TIP3   OH266117   1.002   3.773   4.102 -0.0364  0.1314  0.0785
14901TIP3    H166118   1.025   3.864   4.119 -0.6186  0.0297  1.4920
14901TIP3    H266119   0.907   3.771   4.111 -0.2147 -0.2681 -1.6913
14902TIP3   OH266120   6.515   1.108  12.624  0.1040 -0.1564  0.1749
14902TIP3    H166121   6.528   1.133  12.532 -0.9118  1.7138  0.5087
14902TIP3    H266122   6.541   1.016  12.628 -0.3882 -0.4251 -2.1120
14903TIP3   OH266123   3.320   3.469   1.308  0.1568  0.3266  0.5818
14903TIP3    H166124   3.328   3.455   1.214 -0.2443 -2.0505  0.8823
14903TIP3    H266125   3.411   3.475   1.339  0.2832  1.6778 -0.0135
14904TIP3   OH266126   2.561   5.363   0.379 -0.0419 -0.1734  0.5707
14904TIP3    H166127   2.550   5.421   0.454 -1.6623  0.4187 -0.0851
14904TIP3    H266128   2.484   5.380   0.324  1.1911 -0.4758 -1.3012
14905TIP3   OH266129   0.613   5.603   5.252  0.5297 -0.2411 -0.0197
14905TIP3    H166130   0.669   5.606   5.329  2.1809  1.4856 -1.2388
14905TIP3    H266131   0.581   5.693   5.242 -0.2937 -0.6175 -0.9050
14906TIP3   OH266132   3.375   2.347   5.514 -0.1605  0.5817  0.3080
14906TIP3    H166133   3.427   2.423   5.486 -1.7997  1.7378  0.3262
14906TIP3    H266134   3.311   2.383   5.575 -0.7323 -0.8910  0.6033
14907TIP3   OH266135   3.776   3.275  15.453  0.6007  0.2635  0.0167
14907TIP3    H166136   3.834   3.225  15.395  2.4774  1.4037  0.8249
14907TIP3    H266137   3.750   3.213  15.521  1.5375 -0.0814  0.0754
14908TIP3   OH266138   3.461   1.368   3.046  0.1841  0.5087  0.0950
14908TIP3    H166139   3.544   1.327   3.021 -0.2331  0.2374 -0.8539
14908TIP3    H266140   3.436   1.324   3.127 -1.0741 -2.3036 -1.7267
14909TIP3   OH266141   2.862   4.988  11.509 -0.2342 -0.3283 -0.3975
14909TIP3    H166142   2.916   4.909  11.504  0.8358  0.4259 -1.0545
14909TIP3    H266143   2.851   5.015  11.417 -0.2758  0.4923 -0.1552
14910TIP3   OH266144   0.671   4.320   3.347  0.3526  0.2909  0.2814
14910TIP3    H166145   0.621   4.257   3.295 -0.6942  1.0586  0.3446
14910TIP3    H266146   0.747   4.270   3.379  0.0167 -0.6840 -0.4223
14911TIP3   OH266147   1.290   3.330  14.732  0.5803 -0.2261  0.1034
14911TIP3    H166148   1.310   3.358  14.643  1.3677 -0.5412  0.1743
14911TIP3    H266149   1.235   3.400  14.767 -0.2495 -0.3900 -0.8281
14912TIP3   OH266150   1.080   6.118  14.392 -0.2334  0.0319  0.2004
14912TIP3    H166151   1.127   6.054  14.444  0.6702  0.9776  0.5555
14912TIP3    H266152   1.016   6.156  14.452 -0.3568 -0.1003  0.1541
14913TIP3   OH266153   4.062   5.147   1.722  0.7272  0.1556  0.4552
14913TIP3    H166154   3.996   5.080   1.705 -0.1054  0.8469  0.9173
14913TIP3    H266155   4.061   5.158   1.817  2.8863 -1.2066  0.6706
14914TIP3   OH266156   5.576   1.138   2.932  0.3436  0.1648  0.1607
14914TIP3    H166157   5.575   1.137   2.836 -0.2906  0.2936  0.1637
14914TIP3    H266158   5.487   1.163   2.957  0.2957 -0.5948  0.7871
14915TIP3   OH266159   1.206   2.690  15.730  0.2813 -0.0915  0.0652
14915TIP3    H166160   1.194   2.765  15.673  1.6019 -0.2979 -0.5063
14915TIP3    H266161   1.128   2.637  15.718 -0.4910  1.0067  0.2041
14916TIP3   OH266162   2.210   2.738   0.924 -0.5711 -0.7611  0.1486
14916TIP3    H166163   2.197   2.680   0.999  0.7356  1.8914  2.5034
14916TIP3    H266164   2.122   2.769   0.903 -0.7933 -0.3720  1.5766
14917TIP3   OH266165   1.076   2.452   6.463  0.6513 -0.2066 -0.0412
14917TIP3    H166166   1.034   2.370   6.490  0.5632 -0.4675 -0.9361
14917TIP3    H266167   1.020   2.484   6.392 -0.4706  1.6831  1.6364
14918TIP3   OH266168   2.806   3.930   2.651 -0.3405  0.1630  0.0153
14918TIP3    H166169   2.831   4.023   2.659 -0.5254  0.4729 -2.6487
14918TIP3    H266170   2.711   3.931   2.659 -0.3067  0.1447  0.4327
14919TIP3   OH266171   1.632   1.581  12.963  0.3145 -0.1199 -0.3017
14919TIP3    H166172   1.550   1.606  12.920  0.0110 -1.2490 -0.4044
14919TIP3    H266173   1.629   1.485  12.966  0.8486 -0.1010  1.2368
14920TIP3   OH266174   5.593   3.845  16.459 -0.3269  0.2422 -0.0994
14920TIP3    H166175   5.606   3.877  16.548 -4.1977 -0.3523  0.7566
14920TIP3    H266176   5.611   3.751  16.465 -1.8624 -0.0268  0.3601
14921TIP3   OH266177   6.734   2.047   1.139  0.8280  0.0803  0.1711
14921TIP3    H166178   6.696   1.964   1.110 -0.9758  0.8175  0.4014
14921TIP3    H266179   6.757   2.092   1.058 -1.8441  1.0405 -0.0647
14922TIP3   OH266180   4.965   3.392   4.135 -0.1652  0.4734  0.9685
14922TIP3    H166181   4.975   3.323   4.200 -1.7822  1.3202  2.1566
14922TIP3    H266182   4.884   3.438   4.161 -1.2255  0.3972 -1.9991
14923TIP3   OH266183   0.882   2.529  15.470  0.4445 -0.4726 -0.0868
14923TIP3    H166184   0.839   2.451  15.436  0.4042 -0.2621 -0.5256
14923TIP3    H266185   0.920   2.571  15.392  1.1416 -0.4742  0.2522
14924TIP3   OH266186   2.053   3.850  12.523  0.5397 -0.4216 -0.4104
14924TIP3    H166187   1.998   3.797  12.465  2.1510 -1.5257 -0.9687
14924TIP3    H266188   2.135   3.801  12.530  1.0633  0.6459  1.2924
14925TIP3   OH266189   5.037   0.265  14.660  0.0311  0.0518  0.1282
14925TIP3    H166190   4.982   0.272  14.738 -0.0910  1.4990 -0.0697
14925TIP3    H266191   5.118   0.311  14.683  0.4691 -0.5555 -0.1836
14926TIP3   OH266192   6.301   0.914   2.151 -0.2789 -0.2197  0.2425
14926TIP3    H166193   6.338   0.978   2.212  1.4504  0.1057 -1.0718
14926TIP3    H266194   6.335   0.830   2.181  0.9164 -0.0141 -0.4628
14927TIP3   OH266195   2.138   0.989  13.281  0.4226  0.5088 -0.0348
14927TIP3    H166196   2.092   1.071  13.298 -0.4050  0.5930 -2.4163
14927TIP3    H266197   2.083   0.944  13.216  2.3133 -0.6228 -0.9016
14928TIP3   OH266198   2.917   0.449   0.020 -0.5080  0.0829 -0.0028
14928TIP3    H166199   2.909   0.355   0.034 -0.4245 -0.1230 -1.3306
14928TIP3    H266200   2.999   0.472   0.064 -1.2850 -0.1813  1.6478
14929TIP3   OH266201   1.330   5.773  14.961  0.0143 -0.0710 -0.1768
14929TIP3    H166202   1.320   5.685  14.926 -2.6790  0.6684 -1.4115
14929TIP3    H266203   1.337   5.761  15.055 -1.6217 -1.5512 -0.2109
14930TIP3   OH266204   5.307   1.699   3.511 -0.3422 -0.4546  0.6415
14930TIP3    H166205   5.214   1.679   3.495 -0.6191  1.3526 -0.1502
14930TIP3    H266206   5.325   1.657   3.595 -2.1686 -0.0200  1.2947
14931TIP3   OH266207   3.828   2.581  10.432 -0.2036  0.1709  0.0460
14931TIP3    H166208   3.760   2.630  10.387  0.0328 -0.0273 -0.5369
14931TIP3    H266209   3.891   2.647  10.460 -1.3768  0.5173  1.9107
14932TIP3   OH266210   1.063   0.403  12.827 -0.3712 -0.6471 -0.5512
14932TIP3    H166211   0.981   0.450  12.838  0.5282  0.6956  0.5667
14932TIP3    H266212   1.040   0.328  12.772 -2.1545  0.1754 -0.9751
14933TIP3   OH266213   6.009   4.685  16.688 -0.0219 -0.1812  0.6580
14933TIP3    H166214   5.962   4.643  16.760 -2.7105 -0.3563 -1.1386
14933TIP3    H266215   6.036   4.612  16.633  0.9091  0.0419  0.8138
14934TIP3   OH266216   0.939   2.839  16.923  0.2140 -0.4954 -0.3107
14934TIP3    H166217   1.004   2.859  16.857  1.7467 -0.1089  1.2712
14934TIP3    H266218   0.916   2.747  16.908 -0.4661 -0.0360 -2.1936
14935TIP3   OH266219   4.868   6.668  15.941  0.2835 -0.0013 -0.0791
14935TIP3    H166220   4.950   6.638  15.902  0.6968  0.0556  0.7233
14935TIP3    H266221   4.816   6.700  15.867  0.3009 -1.5907 -0.7867
14936TIP3   OH266222   5.677   3.018  11.476  0.1014  0.7681  0.1200
14936TIP3    H166223   5.710   2.929  11.464 -1.0666 -0.0020  2.3406
14936TIP3    H266224   5.756   3.071  11.486  0.7991 -0.1492 -0.4157
14937TIP3   OH266225   5.645   4.471   1.873  0.3041  0.4029 -0.2821
14937TIP3    H166226   5.645   4.511   1.786 -0.2363 -0.0335 -0.4908
14937TIP3    H266227   5.621   4.543   1.932  1.2336  0.8337 -0.4229
14938TIP3   OH266228   5.459   3.081   3.580 -0.2244 -0.2308  0.2514
14938TIP3    H166229   5.492   3.153   3.634  0.6186  0.7270 -1.5043
14938TIP3    H266230   5.524   3.012   3.590  1.4779  1.0141 -1.7992
14939TIP3   OH266231   5.120   4.038   3.545 -0.3180 -0.2076  0.1219
14939TIP3    H166232   5.153   3.978   3.612 -0.3736  0.5494  0.8276
14939TIP3    H266233   5.193   4.098   3.529 -0.2356 -0.4975 -0.6414
14940TIP3   OH266234   0.532   4.897  16.310 -0.4510  0.7151  0.1700
14940TIP3    H166235   0.492   4.815  16.340  0.6016  0.6461  1.4882
14940TIP3    H266236   0.562   4.878  16.221  0.6969 -0.6911  0.8234
14941TIP3   OH266237   2.006   0.671   0.088  0.0944 -0.5216  0.1717
14941TIP3    H166238   2.045   0.651   0.173 -0.2602 -1.7370  0.0665
14941TIP3    H266239   2.063   0.738   0.050  1.3556 -1.3603  0.5450
14942TIP3   OH266240   5.348   1.614  14.808  0.0503 -0.1856  0.0983
14942TIP3    H166241   5.371   1.652  14.893  1.2065  1.7779 -1.0560
14942TIP3    H266242   5.346   1.520  14.823  1.3169  0.0795  2.0527
14943TIP3   OH266243   5.050   5.891   1.356 -0.6079 -0.1857 -0.5105
14943TIP3    H166244   5.106   5.850   1.423 -0.9598 -0.3133 -0.2945
14943TIP3    H266245   5.106   5.958   1.316 -0.2463 -0.4245 -0.4058
14944TIP3   OH266246   5.513   5.039  13.957  0.5138  0.2180 -0.0869
14944TIP3    H166247   5.499   5.091  14.036 -2.4732 -2.8064  1.4627
14944TIP3    H266248   5.460   5.082  13.890 -1.9263 -0.7523  1.1814
14945TIP3   OH266249   3.367   6.403  15.860  0.0288  0.1856 -0.2940
14945TIP3    H166250   3.419   6.442  15.930 -0.6500  1.7625 -0.6351
14945TIP3    H266251   3.379   6.462  15.786 -1.6438  0.1813 -0.5937
14946TIP3   OH266252   6.694   2.620   1.438 -0.1244 -0.1083  0.0635
14946TIP3    H166253   6.777   2.617   1.391  0.6375 -2.0568  1.4535
14946TIP3    H266254   6.689   2.536   1.484 -2.4459  0.3376  0.7254
14947TIP3   OH266255   5.662   2.206   3.271  0.0319  0.6996 -0.7367
14947TIP3    H166256   5.716   2.263   3.327  0.7454 -1.6790  1.1259
14947TIP3    H266257   5.724   2.171   3.207  0.0206  0.4924 -0.6339
14948TIP3   OH266258   1.208   1.469  15.738  0.7044 -0.4124 -0.2649
14948TIP3    H166259   1.175   1.418  15.812  0.9967 -0.2284 -0.0066
14948TIP3    H266260   1.165   1.431  15.662 -1.0873  0.6286  0.1861
14949TIP3   OH266261   2.805   2.556  15.470  0.1788 -0.0697 -0.7522
14949TIP3    H166262   2.782   2.595  15.386 -1.2124 -0.4691 -0.5574
14949TIP3    H266263   2.750   2.478  15.477  0.4630 -0.1826  0.4190
14950TIP3   OH266264   3.893   4.280  16.984 -0.3211 -0.4781 -0.1799
14950TIP3    H166265   3.878   4.366  16.944 -2.9643 -0.3020  1.0713
14950TIP3    H266266   3.845   4.219  16.927  0.3748 -0.9430 -0.2680
14951TIP3   OH266267   0.843   5.171   3.529 -0.4431 -0.3673  0.1826
14951TIP3    H166268   0.757   5.147   3.494  0.3975 -1.2434 -1.3525
14951TIP3    H266269   0.824   5.230   3.602 -2.3952 -1.9888  1.0268
14952TIP3   OH266270   2.265   6.404  14.180  0.0308  0.1840 -0.4055
14952TIP3    H166271   2.329   6.393  14.249  0.7215  3.7367 -0.3598
14952TIP3    H266272   2.306   6.367  14.102  1.8909  1.7886 -0.2167
14953TIP3   OH266273   5.608   4.229   1.458 -0.3994  0.2719  0.4102
14953TIP3    H166274   5.703   4.238   1.459 -0.1876 -1.5326 -0.3504
14953TIP3    H266275   5.582   4.255   1.369 -0.6384  0.9685  0.6828
14954TIP3   OH266276   4.576   1.908   1.666 -0.0682 -0.8685 -0.3006
14954TIP3    H166277   4.498   1.923   1.612 -0.4976  1.7071  0.9488
14954TIP3    H266278   4.541   1.889   1.753  0.6464  2.1334  0.7065
14955TIP3   OH266279   6.690   0.283   6.007  0.2502  0.7029 -0.2633
14955TIP3    H166280   6.674   0.312   6.097  0.7955 -0.7696  0.3291
14955TIP3    H266281   6.649   0.197   6.002  0.9790  0.4042 -1.1618
14956TIP3   OH266282   5.258   4.571   1.599 -0.6046  0.1205  0.5398
14956TIP3    H166283   5.217   4.649   1.562 -1.3131 -0.9342 -0.9489
14956TIP3    H266284   5.294   4.600   1.683 -1.5314  1.8491  0.3543
14957TIP3   OH266285   4.214   0.471   3.772  0.1998  0.6367 -0.2227
14957TIP3    H166286   4.200   0.554   3.817  2.5620  0.8522  0.1540
14957TIP3    H266287   4.228   0.408   3.843  0.8321  0.3873 -0.5704
14958TIP3   OH266288   5.679   4.905   6.595  0.2364  0.2893 -0.1693
14958TIP3    H166289   5.678   4.811   6.580 -2.9921  0.3652 -0.8591
14958TIP3    H266290   5.643   4.916   6.683 -1.4994  0.9386 -0.9282
14959TIP3   OH266291   6.400   5.718  14.632  0.6267 -0.0397 -0.1118
14959TIP3    H166292   6.480   5.750  14.590  0.2586  0.0996 -0.7081
14959TIP3    H266293   6.348   5.682  14.561 -0.6987  1.6542 -0.0427
14960TIP3   OH266294   4.092   5.639  12.156  0.5123 -0.7513  0.5028
14960TIP3    H166295   4.180   5.639  12.193  0.5953 -0.2758  0.3143
14960TIP3    H266296   4.086   5.723  12.110  0.0200 -0.8555  0.3765
14961TIP3   OH266297   2.440   3.579   1.446 -0.0550 -0.1898 -0.0452
14961TIP3    H166298   2.479   3.659   1.412 -2.2906  0.7631 -0.4404
14961TIP3    H266299   2.419   3.599   1.537  0.9495 -0.9177  0.3577
14962TIP3   OH266300   6.424   1.064   1.881 -0.7117  0.5622  0.3864
14962TIP3    H166301   6.348   1.040   1.934 -0.1530 -0.3088  0.7964
14962TIP3    H266302   6.498   1.020   1.923 -0.5103 -1.5319 -2.0483
14963TIP3   OH266303   2.714   6.576  16.757 -0.0511  0.6679 -0.0926
14963TIP3    H166304   2.653   6.649  16.761  0.2544  0.9095  0.1956
14963TIP3    H266305   2.791   6.610  16.712  0.6294  0.9252  1.2197
14964TIP3   OH266306   4.621   2.446   6.097 -0.5522 -0.0435  0.1737
14964TIP3    H166307   4.646   2.443   6.005 -0.6274 -0.6225  0.1703
14964TIP3    H266308   4.637   2.537   6.123 -0.7873  0.1870 -0.4768
14965TIP3   OH266309   2.010   1.483  14.174 -0.6121 -0.1287  0.0001
14965TIP3    H166310   1.992   1.474  14.081 -1.1647 -1.3736  0.2134
14965TIP3    H266311   2.063   1.407  14.195 -1.1266 -0.2562  0.8558
14966TIP3   OH266312   6.183   4.788   4.082  0.2965 -0.3244  0.4921
14966TIP3    H166313   6.129   4.714   4.052 -1.0257  0.4742  0.8509
14966TIP3    H266314   6.207   4.766   4.172 -0.2235 -0.2528  0.6500
14967TIP3   OH266315   5.661   4.310   6.169  0.0629 -0.3591  0.1024
14967TIP3    H166316   5.742   4.262   6.188 -0.3913 -1.4235 -0.6465
14967TIP3    H266317   5.659   4.317   6.074 -0.0673  0.8242  0.1864
14968TIP3   OH266318   4.283   0.642  14.882 -0.2950 -0.0373  0.1515
14968TIP3    H166319   4.329   0.618  14.801 -0.9827 -1.0009  0.0402
14968TIP3    H266320   4.351   0.639  14.950  0.5187  1.7744 -0.5324
14969TIP3   OH266321   5.588   6.114   0.560  0.3871 -0.5292 -0.0305
14969TIP3    H166322   5.584   6.204   0.526 -1.7693 -0.2951  0.7711
14969TIP3    H266323   5.547   6.061   0.492  0.0261 -0.6441  0.2715
14970TIP3   OH266324   2.208   5.474   3.676 -0.2696 -0.1568  0.6098
14970TIP3    H166325   2.173   5.555   3.637  0.5773  1.5363  3.2377
14970TIP3    H266326   2.215   5.494   3.769  1.0730 -2.8983  1.1291
14971TIP3   OH266327   0.220   3.269   3.507  0.8530  0.2599 -0.2175
14971TIP3    H166328   0.251   3.344   3.558  2.0496 -1.0760  1.0802
14971TIP3    H266329   0.274   3.268   3.428  2.4445 -0.5407  0.8352
14972TIP3   OH266330   0.997   0.162   4.247  0.4111 -0.0473  0.4583
14972TIP3    H166331   0.922   0.222   4.246  0.0923 -0.4464 -0.3475
14972TIP3    H266332   0.963   0.082   4.207  0.9415 -0.6316  1.1863
14973TIP3   OH266333   4.171   0.614   5.854  0.0927  0.2041 -0.1844
14973TIP3    H166334   4.229   0.568   5.915  0.3059  0.3869 -0.2497
14973TIP3    H266335   4.215   0.607   5.769  0.0161  0.3369 -0.2354
14974TIP3   OH266336   4.682   5.555   2.399 -0.1478 -0.1523  0.4101
14974TIP3    H166337   4.762   5.505   2.410  0.5491  1.0284  0.7863
14974TIP3    H266338   4.706   5.625   2.338 -1.8111 -1.8347 -2.2623
14975TIP3   OH266339   2.430   5.447  13.847  0.3755  0.2330 -0.1086
14975TIP3    H166340   2.422   5.354  13.826  0.2683  0.8049 -2.9308
14975TIP3    H266341   2.495   5.479  13.784 -0.0141  2.1668  0.4549
14976TIP3   OH266342   1.676   5.924  15.758  0.6754  0.2776  0.3696
14976TIP3    H166343   1.682   5.862  15.685  0.5404  1.4995 -0.6857
14976TIP3    H266344   1.607   5.985  15.732  0.6358  0.7260  1.5225
14977TIP3   OH266345   4.614   4.397   0.110 -0.0875 -0.1769  0.4847
14977TIP3    H166346   4.635   4.491   0.117  1.3559 -0.3833 -0.7047
14977TIP3    H266347   4.694   4.358   0.074 -0.7850 -1.8276  0.7003
14978TIP3   OH266348   3.203   0.890   2.511  0.0323 -0.1616  0.1423
14978TIP3    H166349   3.264   0.836   2.561 -1.0153 -1.5902 -0.0935
14978TIP3    H266350   3.257   0.933   2.445  0.6228 -2.3488 -0.8465
14979TIP3   OH266351   5.434   2.078   4.871 -0.2392  0.2894  0.2342
14979TIP3    H166352   5.382   2.002   4.895 -1.3732  0.8930 -0.2732
14979TIP3    H266353   5.372   2.151   4.872  0.3531  0.8342 -1.4470
14980TIP3   OH266354   3.870   6.075   0.637  0.0709  0.4690  0.2015
14980TIP3    H166355   3.890   6.160   0.675  1.7307 -0.1651  0.8033
14980TIP3    H266356   3.942   6.058   0.575 -0.0302 -0.6614  0.3748
14981TIP3   OH266357   3.352   1.065  13.670 -0.3882 -0.0069 -0.1033
14981TIP3    H166358   3.339   1.140  13.728  0.9332 -0.8773  1.3479
14981TIP3    H266359   3.310   1.091  13.588 -1.6910  1.5175  1.0050
14982TIP3   OH266360   3.389   0.604  12.178  0.5713 -0.3664  0.0671
14982TIP3    H166361   3.451   0.548  12.131  0.7979 -1.3630  1.4948
14982TIP3    H266362   3.307   0.596  12.129  0.8707 -1.1627 -0.3128
14983TIP3   OH266363   4.613   1.778  15.981  0.5689  0.3660  0.4770
14983TIP3    H166364   4.620   1.872  15.995 -2.9882  0.4475  2.1716
14983TIP3    H266365   4.565   1.746  16.057  3.3357 -3.1424  0.9081
14984TIP3   OH266366   5.740   2.635  16.980 -0.0132 -0.1383  0.2318
14984TIP3    H166367   5.806   2.669  17.039 -0.0896  0.5815 -0.0966
14984TIP3    H266368   5.674   2.705  16.973 -0.5970 -0.6788  0.2290
14985TIP3   OH266369   1.394   1.705  10.430 -0.2787 -0.5438  0.0664
14985TIP3    H166370   1.446   1.734  10.506  0.7193 -0.8617 -0.4907
14985TIP3    H266371   1.422   1.615  10.415  0.0483 -0.2595 -1.1072
14986TIP3   OH266372   3.061   4.927  15.054 -0.1911  0.7188 -0.2727
14986TIP3    H166373   2.976   4.955  15.089 -0.1618  0.7578 -0.2327
14986TIP3    H266374   3.122   4.997  15.079  0.0751  0.1483  0.6835
14987TIP3   OH266375   3.487   6.481   4.377 -0.4514  0.4501  0.1920
14987TIP3    H166376   3.417   6.457   4.439 -0.4320  1.1759  0.4996
14987TIP3    H266377   3.568   6.465   4.425 -0.4222  0.3467  0.1080
14988TIP3   OH266378   2.831   4.564   5.240 -0.4144 -0.2844 -0.4165
14988TIP3    H166379   2.884   4.566   5.161  0.5907 -1.6460  0.1954
14988TIP3    H266380   2.805   4.472   5.250 -0.8828 -0.0559  0.6016
14989TIP3   OH266381   4.048   4.147  15.990 -0.0005 -0.3962  0.2808
14989TIP3    H166382   3.964   4.183  16.016  0.3783  1.5227 -1.0256
14989TIP3    H266383   4.081   4.104  16.069 -1.0590  1.0432  1.5497
14990TIP3   OH266384   5.566   6.430   1.394 -0.6950 -0.2412  0.2711
14990TIP3    H166385   5.578   6.396   1.305 -1.1714 -0.1630  0.1771
14990TIP3    H266386   5.506   6.503   1.384 -0.0367  0.3392  0.5373
14991TIP3   OH266387   1.716   4.691  13.103  0.2427  0.6282 -0.0239
14991TIP3    H166388   1.675   4.625  13.160 -1.0444  0.4023 -1.2059
14991TIP3    H266389   1.656   4.701  13.030  1.5417  1.4542 -1.0067
14992TIP3   OH266390   6.359   6.356   0.817 -0.1654 -0.1305  0.2767
14992TIP3    H166391   6.370   6.264   0.792  1.4759 -0.0720  0.7067
14992TIP3    H266392   6.296   6.390   0.754  1.0359 -0.9633 -1.4344
14993TIP3   OH266393   0.473   1.667  17.045 -0.0718 -0.7024  0.5372
14993TIP3    H166394   0.551   1.648  16.991 -0.3998 -0.0225 -0.1773
14993TIP3    H266395   0.508   1.714  17.120  0.4057 -1.7525  0.9943
14994TIP3   OH266396   0.754   2.809   4.248  0.2911  0.0949 -0.2744
14994TIP3    H166397   0.663   2.813   4.219 -0.0942 -1.0324  0.7146
14994TIP3    H266398   0.779   2.900   4.262 -0.8814  0.3790  0.0357
14995TIP3   OH266399   0.687   0.099  13.278  0.3136 -0.4176  0.0450
14995TIP3    H166400   0.678   0.191  13.254 -1.4070 -0.8234 -0.9107
14995TIP3    H266401   0.649   0.050  13.205  1.0702 -1.8827  0.6037
14996TIP3   OH266402   0.270   1.732  15.125 -0.6923  0.0390 -0.2330
14996TIP3    H166403   0.245   1.802  15.065 -0.9463 -2.1967 -2.8278
14996TIP3    H266404   0.301   1.662  15.068  0.0901 -1.7724  2.3344
14997TIP3   OH266405   2.654   1.312  12.222  0.4488  0.8643 -0.2409
14997TIP3    H166406   2.579   1.350  12.268  0.0327  0.9926 -1.0242
14997TIP3    H266407   2.727   1.326  12.282  0.1249  2.0829 -0.1083
14998TIP3   OH266408   2.113   0.709  13.491 -0.0139  0.1752 -0.3369
14998TIP3    H166409   2.086   0.690  13.580 -1.6235 -1.0003 -1.0536
14998TIP3    H266410   2.049   0.773  13.460  0.7518  0.8520 -0.5312
14999TIP3   OH266411   3.094   1.080   4.059 -0.1998 -0.0459  0.2412
14999TIP3    H166412   3.140   1.061   4.141 -1.4009 -0.7503  0.7658
14999TIP3    H266413   3.151   1.046   3.991 -0.0218 -1.0662  0.8979
15000TIP3   OH266414   2.438   0.615  15.942 -0.7566  0.1484 -0.3678
15000TIP3    H166415   2.500   0.546  15.966 -0.5983 -0.3231 -2.0467
15000TIP3    H266416   2.493   0.692  15.924 -0.6363 -0.2319 -1.7232
15001TIP3   OH266417   4.814   5.008  14.668 -0.0620  0.1900  0.7684
15001TIP3    H166418   4.781   4.918  14.666  0.6710 -0.0984  1.1537
15001TIP3    H266419   4.795   5.043  14.582 -2.0183  0.2718  1.2243
15002TIP3   OH266420   6.589   0.108   3.218  0.4382 -0.4282  0.2093
15002TIP3    H166421   6.503   0.138   3.246  1.2229  2.4864 -0.2203
15002TIP3    H266422   6.618   0.176   3.156  2.8334 -1.5932  0.0022
15003TIP3   OH266423   1.164   2.585   3.807  0.2280  0.6642  0.1002
15003TIP3    H166424   1.210   2.669   3.808  1.5753 -0.0344 -0.9046
15003TIP3    H266425   1.177   2.551   3.718 -1.4851  0.0302  0.0697
15004TIP3   OH266426   0.921   3.635   3.540  0.4471 -0.1854 -0.6417
15004TIP3    H166427   0.851   3.659   3.602  0.0609  0.2577 -1.2418
15004TIP3    H266428   0.951   3.550   3.571 -0.0733 -0.1921 -0.1240
15005TIP3   OH266429   4.365   0.447  15.283 -0.2643 -0.2955 -0.0130
15005TIP3    H166430   4.404   0.360  15.275  0.4841  0.1174 -1.0853
15005TIP3    H266431   4.323   0.462  15.198 -0.2228  0.4571  0.0921
15006TIP3   OH266432   2.982   2.222   3.898  0.2314  0.4437 -0.2080
15006TIP3    H166433   2.998   2.136   3.859  1.8763  0.0158  1.3198
15006TIP3    H266434   3.068   2.266   3.895 -0.7071  2.2505 -1.4531
15007TIP3   OH266435   0.459   1.970  15.347  0.0978 -0.1020 -0.4307
15007TIP3    H166436   0.411   1.968  15.264 -1.4020  0.3494  0.4072
15007TIP3    H266437   0.548   1.995  15.322 -0.4968  0.7021 -1.8311
15008TIP3   OH266438   1.729   3.824   1.803 -0.5836  0.3665 -0.5262
15008TIP3    H166439   1.704   3.734   1.783 -0.5097  0.8600 -2.9594
15008TIP3    H266440   1.824   3.820   1.816 -0.7690 -0.1243  0.7891
15009TIP3   OH266441   4.054   4.417   1.857  0.1610 -0.0209  0.2321
15009TIP3    H166442   3.991   4.347   1.873 -0.8506  0.5762 -0.9950
15009TIP3    H266443   4.122   4.376   1.803 -0.6687  0.0489 -0.8784
15010TIP3   OH266444   3.522   3.043  14.102  0.1101 -0.1299 -0.5108
15010TIP3    H166445   3.583   2.968  14.099  0.0019 -0.3003  0.8534
15010TIP3    H266446   3.438   3.004  14.124 -0.7650 -0.0242 -3.5149
15011TIP3   OH266447   0.780   5.644  16.519 -0.5135  0.3133 -0.5323
15011TIP3    H166448   0.856   5.679  16.472 -0.0596  0.9671  0.6870
15011TIP3    H266449   0.816   5.610  16.601 -1.5658  0.7504  0.1183
15012TIP3   OH266450   0.462   6.318  10.373  0.0212 -0.3162  0.3426
15012TIP3    H166451   0.551   6.349  10.389  0.5776 -1.3596 -0.6597
15012TIP3    H266452   0.459   6.232  10.416  0.2255 -1.3037 -1.5952
15013TIP3   OH266453   4.172   0.865   4.405 -0.1435  0.3754  0.3895
15013TIP3    H166454   4.184   0.771   4.397 -0.8396  0.1887  1.4541
15013TIP3    H266455   4.077   0.878   4.398 -0.1514  0.8806  1.2532
15014TIP3   OH266456   1.767   1.207  15.810 -0.3471  0.2293 -0.6768
15014TIP3    H166457   1.788   1.263  15.885 -0.3710 -0.4868 -0.1304
15014TIP3    H266458   1.844   1.151  15.800 -1.1093 -0.9674  0.0056
15015TIP3   OH266459   1.913   1.981  15.332  0.5466 -0.1462 -0.0893
15015TIP3    H166460   1.913   1.933  15.249  0.0823 -1.5839  0.7277
15015TIP3    H266461   1.962   1.924  15.391 -0.4883  0.1405  1.0428
15016TIP3   OH266462   0.501   3.992   4.095  0.5043 -0.0769 -0.1949
15016TIP3    H166463   0.469   4.079   4.070 -2.6979 -1.3656 -0.8169
15016TIP3    H266464   0.466   3.978   4.183  0.3953 -0.9902 -0.3743
15017TIP3   OH266465   1.542   0.003   2.370 -0.5299  1.0796  0.2945
15017TIP3    H166466   1.628  -0.014   2.407 -0.7096  1.8854  1.1119
15017TIP3    H266467   1.535  -0.057   2.296  2.4048  3.8322 -2.3489
15018TIP3   OH266468   1.766   2.762  13.735 -0.0272 -0.0245  0.1828
15018TIP3    H166469   1.689   2.805  13.698 -0.7840 -1.2579  0.3019
15018TIP3    H266470   1.832   2.831  13.741 -0.8201  0.8250 -0.8064
15019TIP3   OH266471   3.506   4.438   0.645 -0.2465  0.0319  0.1191
15019TIP3    H166472   3.544   4.363   0.599 -0.2967 -0.5318  0.9819
15019TIP3    H266473   3.573   4.461   0.710  0.2542  1.4385 -0.8729
15020TIP3   OH266474   5.652   6.014   5.576  0.6077  0.3611 -0.0175
15020TIP3    H166475   5.584   6.006   5.643  1.4644  1.5461  1.0212
15020TIP3    H266476   5.697   5.929   5.577  0.5443  0.3328  0.8381
15021TIP3   OH266477   4.434   1.812   4.691  0.0901 -0.2607  0.1139
15021TIP3    H166478   4.366   1.794   4.755 -0.0288 -1.2518 -0.2789
15021TIP3    H266479   4.507   1.756   4.716 -1.0321 -2.9066 -2.3232
15022TIP3   OH266480   0.669   2.397  15.859  0.2617 -0.5342  0.1250
15022TIP3    H166481   0.645   2.387  15.951 -0.9548  2.0271  0.1145
15022TIP3    H266482   0.593   2.361  15.812  0.9480 -1.9836  0.0940
15023TIP3   OH266483   0.998   1.000  11.623 -0.0827 -0.1024  0.0986
15023TIP3    H166484   0.995   0.963  11.535  1.1381  0.7118 -0.2940
15023TIP3    H266485   0.912   1.042  11.634 -0.5900 -1.0127 -0.3395
15024TIP3   OH266486   6.730   4.252   0.411  0.1736 -0.4701  0.0825
15024TIP3    H166487   6.729   4.159   0.391 -0.9337 -0.5704  0.6164
15024TIP3    H266488   6.737   4.257   0.506  0.4451 -0.0020  0.0433
15025TIP3   OH266489   0.877   5.301   0.831 -0.3692 -0.2897 -0.1303
15025TIP3    H166490   0.887   5.286   0.925  0.6777  1.9466  0.1476
15025TIP3    H266491   0.919   5.386   0.816 -2.7245  0.5663 -2.1838
15026TIP3   OH266492   1.218   3.956  14.864  0.1523  0.6886 -0.1354
15026TIP3    H166493   1.289   3.918  14.812  0.0158 -2.3795  1.8239
15026TIP3    H266494   1.146   3.966  14.801  1.2343  0.6696 -1.3929
15027TIP3   OH266495   3.881   3.639   3.781 -0.0338  0.0724  0.7494
15027TIP3    H166496   3.839   3.633   3.695 -0.8139 -1.5898  1.2234
15027TIP3    H266497   3.830   3.704   3.828 -0.4054  0.0438  0.3946
15028TIP3   OH266498   5.787   3.667  13.626  0.0841 -0.6802  0.2592
15028TIP3    H166499   5.882   3.672  13.615  0.1359 -2.6477 -0.3106
15028TIP3    H266500   5.772   3.696  13.716  0.9241  2.5675 -0.5859
15029TIP3   OH266501   3.098   3.951  12.178 -0.0766  0.1383 -0.1061
15029TIP3    H166502   3.026   3.984  12.124 -0.6277  0.4750  0.8284
15029TIP3    H266503   3.073   3.862  12.201  0.8114 -0.5166 -1.5455
15030TIP3   OH266504   1.462   5.507  11.123  0.5570  0.1405  0.0433
15030TIP3    H166505   1.540   5.459  11.095 -0.4242 -1.0895 -0.6474
15030TIP3    H266506   1.406   5.509  11.045 -1.1995 -1.2611  1.2170
15031TIP3   OH266507   0.025   3.155  12.193  0.0615 -0.1898 -0.2358
15031TIP3    H166508   0.085   3.113  12.132  0.9749  0.0253  0.5147
15031TIP3    H266509   0.048   3.248  12.190 -0.7722  0.0168 -0.5467
15032TIP3   OH266510   0.738   3.543  17.143 -0.1447 -0.3562  0.0533
15032TIP3    H166511   0.760   3.622  17.193 -0.9137  0.1885 -0.4624
15032TIP3    H266512   0.706   3.576  17.059  0.8071 -1.2624 -0.6726
15033TIP3   OH266513   5.728   4.792  12.601  0.3185  0.1805  0.0366
15033TIP3    H166514   5.663   4.727  12.627 -0.4251  0.3884 -1.2475
15033TIP3    H266515   5.677   4.864  12.564  1.3064 -0.2059 -2.1617
15034TIP3   OH266516   1.315   1.283  12.120  0.3986  0.2787  0.0536
15034TIP3    H166517   1.292   1.195  12.091 -2.7170 -0.1266  3.3575
15034TIP3    H266518   1.266   1.341  12.063  1.1751 -0.1807 -1.0867
15035TIP3   OH266519   5.606   5.499   4.136  0.6232 -0.1674  0.3682
15035TIP3    H166520   5.564   5.576   4.097 -0.5814 -1.1296 -0.2683
15035TIP3    H266521   5.539   5.431   4.130  1.1383 -0.8467  2.3436
15036TIP3   OH266522   1.277   6.526   3.467 -0.7686 -0.2825  0.2419
15036TIP3    H166523   1.258   6.449   3.414 -0.7580 -0.7088  0.8451
15036TIP3    H266524   1.326   6.491   3.542  1.8748  0.6891 -0.9537
15037TIP3   OH266525   0.662   0.692  12.084  0.3160 -0.2453  0.0937
15037TIP3    H166526   0.570   0.702  12.059 -0.2847 -0.3446  2.1137
15037TIP3    H266527   0.672   0.598  12.103  0.4600 -0.0251  1.1657
15038TIP3   OH266528   6.505   3.846   0.509 -0.4316  0.7237 -0.8906
15038TIP3    H166529   6.490   3.851   0.603  1.2473  0.4426 -0.6066
15038TIP3    H266530   6.452   3.770   0.481 -1.0828  0.9232 -0.2265
15039TIP3   OH266531   4.401   2.623  14.170 -0.6969  0.0519  0.3681
15039TIP3    H166532   4.346   2.544  14.173 -1.0302  0.2846  0.4313
15039TIP3    H266533   4.353   2.687  14.222 -0.1464  0.1227  0.7927
15040TIP3   OH266534   2.131   4.100   4.469 -0.4912 -0.9117  0.8887
15040TIP3    H166535   2.107   4.177   4.419  1.4018  0.6695  2.3269
15040TIP3    H266536   2.067   4.096   4.540  0.2561  0.2105  1.6484
15041TIP3   OH266537   2.579   0.260   2.572  0.1723 -0.2525 -0.1737
15041TIP3    H166538   2.558   0.342   2.529 -0.1676  0.6556  1.6518
15041TIP3    H266539   2.571   0.280   2.666 -2.7834 -3.1091  0.2583
15042TIP3   OH266540   4.703   1.438  12.086  0.1340 -0.2577  0.0179
15042TIP3    H166541   4.756   1.470  12.159  0.0175  1.4052 -0.6078
15042TIP3    H266542   4.761   1.441  12.010 -0.6777  1.0702 -0.5676
15043TIP3   OH266543   4.307   3.029   0.163 -0.2300  0.1681  0.3509
15043TIP3    H166544   4.346   3.032   0.076 -1.1705 -0.6761 -0.1090
15043TIP3    H266545   4.377   3.060   0.222  0.9642 -0.8073 -0.5167
15044TIP3   OH266546   2.088   6.086   1.875 -0.0303  0.1046  0.0304
15044TIP3    H166547   2.069   6.154   1.939 -0.1340 -0.3226  0.4634
15044TIP3    H266548   2.119   6.133   1.797 -1.3957  0.7225 -0.1550
15045TIP3   OH266549   0.526   3.166   0.949  0.1024 -0.2168  0.4502
15045TIP3    H166550   0.550   3.244   0.898  0.3369 -0.5071  0.1105
15045TIP3    H266551   0.463   3.198   1.013  1.2963  0.5372  1.2706
15046TIP3   OH266552   4.887   1.084  15.629 -0.3212 -0.0715 -0.5167
15046TIP3    H166553   4.829   1.141  15.679 -1.2083 -1.1358 -0.2955
15046TIP3    H266554   4.936   1.142  15.572 -1.7925  0.8229 -0.8851
15047TIP3   OH266555   2.889   6.719   5.992 -0.7736 -0.4511  0.3804
15047TIP3    H166556   2.972   6.711   6.038 -1.0191 -0.7188  0.7832
15047TIP3    H266557   2.883   6.811   5.967 -0.7173 -0.2726  1.0318
15048TIP3   OH266558   4.742   4.689  11.320 -0.0493  0.1424  0.2190
15048TIP3    H166559   4.699   4.604  11.318 -0.4357  0.3399  0.0212
15048TIP3    H266560   4.699   4.739  11.251  1.6906 -0.2251 -1.1795
15049TIP3   OH266561   4.347   0.120   0.263 -0.4734  0.7813 -0.0676
15049TIP3    H166562   4.357   0.213   0.284 -0.5799  0.9588 -0.7734
15049TIP3    H266563   4.288   0.086   0.330 -1.3233  1.4740 -0.4583
15050TIP3   OH266564   4.636   0.954  10.484 -0.2298 -0.9042  0.1258
15050TIP3    H166565   4.585   0.962  10.403 -2.1984  1.8143  1.5520
15050TIP3    H266566   4.706   0.893  10.462 -0.7629 -0.3047 -3.6162
15051TIP3   OH266567   5.587   0.684  14.836 -0.4256 -0.0401  0.1043
15051TIP3    H166568   5.578   0.714  14.926 -0.4578  0.4093 -0.0469
15051TIP3    H266569   5.649   0.611  14.841  1.0193  1.1740  0.2498
15052TIP3   OH266570   0.813   4.494   4.084  0.0234 -0.1937 -0.0904
15052TIP3    H166571   0.794   4.586   4.065 -0.8521 -0.6863 -1.7083
15052TIP3    H266572   0.851   4.495   4.172  0.8684  1.8043 -0.4516
15053TIP3   OH266573   3.085   5.294   6.633  0.0489 -0.1403  0.4625
15053TIP3    H166574   3.017   5.296   6.700  1.0149 -0.5020  1.4726
15053TIP3    H266575   3.079   5.379   6.589  0.0065  0.4571  1.6228
15054TIP3   OH266576   5.871   5.800   5.649  0.0445 -0.8696 -0.6713
15054TIP3    H166577   5.934   5.827   5.715 -2.5796  0.7481  1.2516
15054TIP3    H266578   5.853   5.708   5.669 -1.8181 -0.0133  1.8679
15055TIP3   OH266579   0.195   2.399  15.242  0.4204 -0.4148 -0.7561
15055TIP3    H166580   0.140   2.469  15.208 -0.8247 -0.8000  0.3882
15055TIP3    H266581   0.171   2.322  15.190  1.0195 -0.2323 -1.3051
15056TIP3   OH266582   4.908   4.240   5.937  0.0588  0.2174 -0.5442
15056TIP3    H166583   4.896   4.298   6.012 -1.1086  1.4778 -1.6734
15056TIP3    H266584   4.822   4.201   5.923  0.3957 -0.4025 -0.9092
15057TIP3   OH266585   3.011   2.596   0.789 -0.0209 -0.3540  0.1977
15057TIP3    H166586   3.077   2.544   0.743  0.1207  1.0591 -1.2707
15057TIP3    H266587   2.929   2.573   0.745 -0.0418  0.2034 -0.0583
15058TIP3   OH266588   5.938   2.403   6.327 -0.0485 -0.2825  0.2468
15058TIP3    H166589   5.889   2.411   6.408 -0.6013  1.4770 -0.2312
15058TIP3    H266590   5.911   2.479   6.275  0.0518 -1.5364 -1.7071
15059TIP3   OH266591   0.042   5.385   2.762  0.0111 -0.0133 -0.0646
15059TIP3    H166592  -0.040   5.368   2.715 -1.0455  1.5725  1.1131
15059TIP3    H266593   0.107   5.401   2.694 -1.2647  1.2948 -1.0065
15060TIP3   OH266594   3.442   4.334  12.267 -0.2238 -0.1336  0.2950
15060TIP3    H166595   3.418   4.401  12.202 -3.6724 -1.7913 -0.2856
15060TIP3    H266596   3.537   4.329  12.263 -0.1338  2.2669 -2.1417
15061TIP3   OH266597   5.417   6.400  13.684  0.2448 -0.0784 -0.4240
15061TIP3    H166598   5.358   6.473  13.667  0.8824  0.2019 -1.5291
15061TIP3    H266599   5.439   6.408  13.777  0.7854  1.5068 -0.6656
15062TIP3   OH266600   2.476   3.502  12.929 -0.5506  0.2898 -0.0481
15062TIP3    H166601   2.438   3.541  13.007  0.4154  2.0807 -0.4456
15062TIP3    H266602   2.541   3.566  12.899  1.5320 -1.8921 -0.3741
15063TIP3   OH266603   1.126   4.162  12.703  0.2416  0.1609 -0.4609
15063TIP3    H166604   1.122   4.236  12.764  1.4941 -0.6084  0.5913
15063TIP3    H266605   1.072   4.189  12.629 -0.6397  1.4674  0.6186
15064TIP3   OH266606   2.702   6.131   2.697 -0.2636  0.1758 -0.0088
15064TIP3    H166607   2.722   6.201   2.760 -0.4191 -1.0551  1.4330
15064TIP3    H266608   2.687   6.177   2.615 -0.5694  1.8714  0.9678
15065TIP3   OH266609   2.909   4.070  14.952 -0.0962 -0.0507 -0.3556
15065TIP3    H166610   2.971   4.079  14.879 -0.4975 -0.8255 -0.7938
15065TIP3    H266611   2.826   4.103  14.918 -0.0012  0.7375  0.1480
15066TIP3   OH266612   5.033   2.493   4.321  0.4277  0.2437  0.4476
15066TIP3    H166613   5.128   2.498   4.314  0.3501 -0.5208 -1.3167
15066TIP3    H266614   5.011   2.405   4.291 -0.8735  0.5423  0.4861
15067TIP3   OH266615   2.540   1.192   5.895  0.0434 -0.0566 -0.7811
15067TIP3    H166616   2.455   1.150   5.909  0.5371 -1.0561 -0.7838
15067TIP3    H266617   2.540   1.265   5.957  0.2266 -1.5989  1.0862
15068TIP3   OH266618   3.380   2.102  15.832  0.1245 -0.9141 -0.1070
15068TIP3    H166619   3.459   2.141  15.794 -1.8447  1.2494 -2.1363
15068TIP3    H266620   3.317   2.174  15.834 -2.3469 -3.0178 -0.1484
15069TIP3   OH266621   4.693   4.184   0.786 -0.5203  0.3710 -0.0679
15069TIP3    H166622   4.602   4.196   0.761 -0.3695  1.3963 -0.1213
15069TIP3    H266623   4.737   4.152   0.707 -0.3798  2.0091 -0.6538
15070TIP3   OH266624   6.559   5.812   3.854 -0.5724 -0.0094 -0.2104
15070TIP3    H166625   6.531   5.778   3.769  0.3524  1.6833 -1.2116
15070TIP3    H266626   6.651   5.787   3.861 -0.6133 -0.0407  0.2662
15071TIP3   OH266627   5.183   5.180  13.510 -0.2617 -0.0869  0.1242
15071TIP3    H166628   5.200   5.087  13.528  1.9290  0.4046  0.7302
15071TIP3    H266629   5.231   5.197  13.428  1.2590  1.0441  1.2261
15072TIP3   OH266630   2.677   0.814  16.900 -0.2439 -0.2463  0.3265
15072TIP3    H166631   2.765   0.776  16.890 -0.1189  0.3018 -0.7162
15072TIP3    H266632   2.689   0.907  16.881 -1.1493 -0.2560 -0.3152
15073TIP3   OH266633   1.441   5.017   0.289  0.1025 -0.3936  0.5346
15073TIP3    H166634   1.507   5.082   0.264 -2.0512  1.4943 -0.4094
15073TIP3    H266635   1.436   5.025   0.385  1.2592 -0.6062  0.6278
15074TIP3   OH266636   1.648   0.796  16.144 -0.1146 -0.0485 -0.1497
15074TIP3    H166637   1.591   0.776  16.070  0.9608 -0.9569 -0.7580
15074TIP3    H266638   1.598   0.857  16.198 -1.0037  0.4277 -1.5057
15075TIP3   OH266639   2.730   2.734  11.546  1.0569 -0.3031  0.7113
15075TIP3    H166640   2.657   2.769  11.494  1.2403  1.0164  1.3425
15075TIP3    H266641   2.736   2.642  11.519 -0.9291 -0.4573  0.7564
15076TIP3   OH266642   0.208   4.233   6.104 -0.5002  0.5894 -0.4781
15076TIP3    H166643   0.278   4.175   6.074 -0.5504  1.2446 -1.9494
15076TIP3    H266644   0.254   4.314   6.128 -0.1570 -0.7923  3.8227
15077TIP3   OH266645   2.769   1.646   1.577  0.3313 -0.7656 -0.5726
15077TIP3    H166646   2.696   1.652   1.515 -1.2971  2.4554  1.5541
15077TIP3    H266647   2.847   1.654   1.522 -1.0582  1.1646 -2.3600
15078TIP3   OH266648   2.321   4.281   3.036  0.2733 -0.5898 -0.9975
15078TIP3    H166649   2.264   4.342   2.989 -0.0415 -1.0517 -1.2123
15078TIP3    H266650   2.308   4.303   3.128  0.8193  0.2501 -1.1107
15079TIP3   OH266651   3.873   1.420  13.070  0.4141  0.7694 -0.9711
15079TIP3    H166652   3.881   1.512  13.096 -1.8955  1.4946 -2.6680
15079TIP3    H266653   3.895   1.420  12.977  1.6841 -0.6221 -0.6729
15080TIP3   OH266654   6.459   2.672   2.154 -0.6142  0.4639  0.2845
15080TIP3    H166655   6.440   2.748   2.099  1.5215 -0.4812 -1.8559
15080TIP3    H266656   6.543   2.693   2.195  1.8682 -2.0838 -3.1108
15081TIP3   OH266657   4.994   1.351   1.425  0.0620 -0.8164  0.5358
15081TIP3    H166658   4.905   1.346   1.389 -0.5312 -0.5061  1.9488
15081TIP3    H266659   5.039   1.275   1.388 -0.4822 -0.4023 -1.0104
15082TIP3   OH266660   0.496   3.005   3.158  0.6244 -0.1210 -0.8353
15082TIP3    H166661   0.589   2.992   3.138  0.4108 -0.0817 -1.8768
15082TIP3    H266662   0.459   3.042   3.077 -0.1701  0.4577 -0.2200
15083TIP3   OH266663   3.941   0.826  15.427  0.5668 -0.1907 -0.4235
15083TIP3    H166664   3.904   0.832  15.515 -1.7279  1.7502 -1.4538
15083TIP3    H266665   3.963   0.733  15.416  0.7768 -0.4826  2.1086
15084TIP3   OH266666   0.927   1.669   3.956  0.2001  0.1293 -0.9397
15084TIP3    H166667   0.864   1.739   3.973  0.1474 -0.0946 -0.2069
15084TIP3    H266668   0.937   1.625   4.040  0.0086 -0.9355 -1.4604
15085TIP3   OH266669   3.362   4.019   4.383 -0.4649  0.5924 -0.1810
15085TIP3    H166670   3.418   4.093   4.361 -2.7214  2.0178 -1.3238
15085TIP3    H266671   3.392   3.949   4.325  1.9340  0.4319  1.1712
15086TIP3   OH266672   5.546   4.706  11.185 -0.1076 -0.4657 -0.4527
15086TIP3    H166673   5.501   4.774  11.136 -0.7079  0.8699  1.8536
15086TIP3    H266674   5.602   4.662  11.121 -1.4565  0.6798 -2.4505
15087TIP3   OH266675   3.170   3.824   1.064  0.4572 -0.2371  0.4477
15087TIP3    H166676   3.120   3.782   1.134  1.3640 -1.1989  0.5315
15087TIP3    H266677   3.155   3.769   0.987 -1.8147  1.6788 -0.5584
15088TIP3   OH266678   2.726   5.732  16.466  0.6453 -0.6356 -0.2855
15088TIP3    H166679   2.742   5.688  16.549  0.8427  4.6792  2.7008
15088TIP3    H266680   2.814   5.750  16.432  0.6708  1.2974  0.7410
15089TIP3   OH266681   1.487   2.600  11.647  0.0564 -0.7206 -0.3403
15089TIP3    H166682   1.428   2.570  11.716 -1.2476 -0.0112 -1.1273
15089TIP3    H266683   1.557   2.646  11.694  0.0910 -1.7218  0.6124
15090TIP3   OH266684   3.175   4.239  14.039 -0.0962  0.0061  0.3570
15090TIP3    H166685   3.130   4.194  13.968  0.7250  0.5091 -0.5016
15090TIP3    H266686   3.149   4.193  14.118 -2.0444  0.2421 -0.1280
15091TIP3   OH266687   2.839   1.863   2.103  0.7033 -0.3154  0.3243
15091TIP3    H166688   2.756   1.886   2.145 -0.7470  0.8854 -2.9808
15091TIP3    H266689   2.903   1.921   2.143 -0.4627  0.2384  1.4209
15092TIP3   OH266690   4.916   5.617  14.835 -0.3331 -0.1183  0.2248
15092TIP3    H166691   4.987   5.596  14.897 -0.4534 -1.3596 -0.0409
15092TIP3    H266692   4.836   5.598  14.884 -0.4389 -0.5105 -0.0952
15093TIP3   OH266693   6.007   0.355  13.591  0.1697 -0.3527 -0.5146
15093TIP3    H166694   6.044   0.407  13.520 -0.1206  1.3052  0.5015
15093TIP3    H266695   5.956   0.418  13.642 -1.3141 -1.9258 -0.0090
15094TIP3   OH266696   4.685   4.948  15.442  0.1413 -0.7192  0.1730
15094TIP3    H166697   4.746   5.005  15.395 -0.4357  0.9561  1.4105
15094TIP3    H266698   4.707   4.960  15.534 -0.0265 -2.4779  0.4569
15095TIP3   OH266699   6.206   0.933  12.092 -0.0089  0.2259  0.2786
15095TIP3    H166700   6.280   0.924  12.031 -0.7499  1.6711 -0.8700
15095TIP3    H266701   6.161   0.849  12.086  0.3903  0.0557 -0.5552
15096TIP3   OH266702   1.787   4.146  11.571 -0.2576  0.2753 -0.2623
15096TIP3    H166703   1.860   4.204  11.593  0.5348 -0.7040 -0.2719
15096TIP3    H266704   1.773   4.160  11.477  0.1706  0.1827 -0.3419
15097TIP3   OH266705   2.304   5.524   1.688 -0.5237 -0.2407 -0.0159
15097TIP3    H166706   2.330   5.535   1.597  1.6913  1.6720  0.7753
15097TIP3    H266707   2.215   5.558   1.692 -0.4448  0.1513 -1.3695
15098TIP3   OH266708   0.472   3.042  14.722  0.1858  0.1170  0.3237
15098TIP3    H166709   0.379   3.021  14.733 -0.2913  3.1098  2.8176
15098TIP3    H266710   0.517   2.957  14.727 -2.1200 -1.0357  3.0781
15099TIP3   OH266711   0.563   2.794   2.932 -0.2650 -0.4400 -0.8794
15099TIP3    H166712   0.483   2.801   2.880  1.1243 -1.0380 -3.1754
15099TIP3    H266713   0.619   2.864   2.899  0.7253 -0.9825 -0.3804
15100TIP3   OH266714   3.584   3.255   6.010  0.1692 -0.0009  0.6483
15100TIP3    H166715   3.556   3.196   6.079  3.2269 -3.2710 -0.7600
15100TIP3    H266716   3.573   3.205   5.929  0.3423  2.3256 -0.8837
15101TIP3   OH266717   0.435   4.471  17.166 -0.6821 -0.2572 -0.5189
15101TIP3    H166718   0.514   4.437  17.123  0.6884 -0.9785  2.4806
15101TIP3    H266719   0.435   4.564  17.144  0.8886 -0.2895 -0.7571
15102TIP3   OH266720   1.874   5.884   2.756 -0.0702 -0.1168 -0.1315
15102TIP3    H166721   1.865   5.917   2.666  0.0889  0.1895 -0.0356
15102TIP3    H266722   1.909   5.795   2.745  1.9453  0.6718 -0.3040
15103TIP3   OH266723   1.988   3.842  15.455  0.9560 -0.6755 -0.0245
15103TIP3    H166724   2.049   3.839  15.381  0.8226  2.2538 -0.3214
15103TIP3    H266725   2.044   3.826  15.531  1.5254 -1.2273 -0.5418
15104TIP3   OH266726   0.453   5.231  10.954  0.2481 -0.4263  0.0791
15104TIP3    H166727   0.373   5.251  10.904  0.5333  0.0261 -0.2019
15104TIP3    H266728   0.493   5.158  10.907  0.2296 -0.3623 -0.0386
15105TIP3   OH266729   4.809   5.630  13.876  0.7297 -0.0200  0.2129
15105TIP3    H166730   4.723   5.589  13.885  0.5399  0.4923  0.8501
15105TIP3    H266731   4.864   5.564  13.835  1.1012 -1.8710  3.5523
15106TIP3   OH266732   0.100   6.116  15.407  0.1139 -0.0918  0.0545
15106TIP3    H166733   0.147   6.059  15.346  1.8034  0.9288  0.3736
15106TIP3    H266734   0.165   6.137  15.474 -0.8530  1.2440  0.5838
15107TIP3   OH266735   2.393   3.256  14.379 -0.0553  0.4926  0.2410
15107TIP3    H166736   2.337   3.303  14.440 -1.0326 -0.4762  0.0956
15107TIP3    H266737   2.395   3.166  14.411 -2.3034 -0.5182 -2.3114
15108TIP3   OH266738   2.755   4.475  17.015  0.1739 -0.3596  0.0643
15108TIP3    H166739   2.718   4.552  17.059  0.4759 -0.5442  0.6391
15108TIP3    H266740   2.687   4.447  16.955 -0.2042 -0.0529  0.3496
15109TIP3   OH266741   6.758   5.478  14.308 -0.0291  0.0814 -0.2459
15109TIP3    H166742   6.725   5.410  14.249  2.4483 -0.6259 -0.8608
15109TIP3    H266743   6.757   5.558  14.255 -0.1195 -0.0618 -0.4642
15110TIP3   OH266744   5.681   6.254  11.632 -0.5715  0.5052  0.2573
15110TIP3    H166745   5.637   6.304  11.564  0.8828  1.4037 -0.0490
15110TIP3    H266746   5.755   6.309  11.659  0.7205 -1.2130  0.3275
15111TIP3   OH266747   3.490   5.333   4.287 -0.2533 -0.3369  0.1471
15111TIP3    H166748   3.579   5.317   4.318 -0.1629 -2.4279 -1.0994
15111TIP3    H266749   3.446   5.375   4.361  1.6659  0.4265  0.8915
15112TIP3   OH266750   2.980   6.615  15.802  0.4564 -0.1579 -0.5466
15112TIP3    H166751   3.055   6.673  15.791  0.8329 -0.5963 -0.3177
15112TIP3    H266752   3.017   6.527  15.793 -0.0602 -0.3690 -0.6093
15113TIP3   OH266753   6.668   5.146   2.342 -0.3425 -0.2026 -0.7298
15113TIP3    H166754   6.727   5.089   2.292  1.0288 -2.0642  2.8624
15113TIP3    H266755   6.608   5.085   2.386  0.1417  1.2061  1.9450
15114TIP3   OH266756   2.587   1.698   4.607  0.0537  0.4998  0.5181
15114TIP3    H166757   2.581   1.631   4.539 -1.0732  2.2298 -1.1458
15114TIP3    H266758   2.511   1.754   4.592  2.1518  3.4372  0.4463
15115TIP3   OH266759   0.045   2.714  16.261  0.3125 -0.8521 -0.5422
15115TIP3    H166760  -0.034   2.700  16.210  0.6122 -0.9030 -0.9892
15115TIP3    H266761   0.014   2.724  16.351 -0.3388  0.6233 -0.9175
15116TIP3   OH266762   2.764   0.981   6.001 -0.0184 -0.1883 -0.3624
15116TIP3    H166763   2.697   1.012   5.939 -0.1299  0.9093  0.2974
15116TIP3    H266764   2.784   0.892   5.971 -0.1298  0.2945 -1.9397
15117TIP3   OH266765   2.444   3.904   2.647 -0.5879 -0.4151 -0.0054
15117TIP3    H166766   2.389   3.981   2.657  1.5374  1.3389 -1.3790
15117TIP3    H266767   2.496   3.902   2.728  0.3280  0.4106 -0.5649
15118TIP3   OH266768   1.409   1.280   1.493 -0.1623 -0.0955 -0.1741
15118TIP3    H166769   1.379   1.261   1.404  0.6337 -0.4341 -0.3722
15118TIP3    H266770   1.474   1.349   1.482  0.4865 -0.6683  0.0697
15119TIP3   OH266771   4.217   1.967  16.230  0.1369 -0.0908 -0.3956
15119TIP3    H166772   4.240   1.877  16.209 -2.1278 -0.7917  0.0198
15119TIP3    H266773   4.178   1.962  16.318  1.9958  1.6248  0.5781
15120TIP3   OH266774   1.706   5.507   2.355  0.0565  0.4590  0.2729
15120TIP3    H166775   1.796   5.504   2.387 -0.5153  0.9103  1.9348
15120TIP3    H266776   1.678   5.415   2.353  0.6769  0.2762 -0.6685
15121TIP3   OH266777   6.132   1.778  13.288  0.2010  0.1124 -0.5920
15121TIP3    H166778   6.178   1.814  13.212  0.9360  0.6961  0.1215
15121TIP3    H266779   6.092   1.854  13.330  1.2071  0.0183  0.5530
15122TIP3   OH266780   0.040   0.964  16.251  0.1622  0.0286 -0.2787
15122TIP3    H166781   0.030   1.053  16.285 -0.5370 -0.4395  0.7692
15122TIP3    H266782   0.088   0.917  16.319 -0.2066 -0.6124 -0.4506
15123TIP3   OH266783   2.262   0.370   1.201 -0.5990 -0.4270 -0.3131
15123TIP3    H166784   2.309   0.294   1.169  1.1868  0.8896 -0.9124
15123TIP3    H266785   2.282   0.375   1.294 -1.3588 -1.1301 -0.1087
15124TIP3   OH266786   3.628   4.593   4.723  0.4367 -0.0776 -0.1383
15124TIP3    H166787   3.640   4.641   4.805  0.6523 -2.0753  1.0325
15124TIP3    H266788   3.717   4.575   4.693  0.3574  0.8173 -0.9152
15125TIP3   OH266789   6.397   5.542  16.262 -0.3174  0.5785  0.7583
15125TIP3    H166790   6.413   5.621  16.209  0.0812  0.1030  0.1666
15125TIP3    H266791   6.484   5.513  16.289 -0.2780 -1.0521 -1.0686
15126TIP3   OH266792   0.028   1.914   3.443  0.0597  0.7356  0.0589
15126TIP3    H166793   0.047   1.822   3.429  0.5351  0.7692  0.4588
15126TIP3    H266794   0.106   1.948   3.488  0.4449  1.6170 -1.2246
15127TIP3   OH266795   1.628   5.280  13.564 -0.4530 -0.2781  0.3282
15127TIP3    H166796   1.722   5.286  13.546  0.0397  0.1304  2.8954
15127TIP3    H266797   1.592   5.364  13.535  0.2301  0.1835  0.8221
15128TIP3   OH266798   2.473   4.124  14.291 -0.6709 -0.1666  0.0305
15128TIP3    H166799   2.462   4.093  14.201 -0.0105 -1.1960  0.2974
15128TIP3    H266800   2.558   4.090  14.318 -1.7093 -1.5099  1.7108
15129TIP3   OH266801   1.249   3.108  17.000 -0.1516 -0.6869  0.0500
15129TIP3    H166802   1.326   3.164  16.989 -0.1477 -0.7471 -0.2196
15129TIP3    H266803   1.184   3.145  16.940 -1.1541  0.8573  2.0370
15130TIP3   OH266804   2.870   2.209  13.321 -0.2803  0.4278 -0.3286
15130TIP3    H166805   2.873   2.305  13.314  0.5919  0.4424  0.2144
15130TIP3    H266806   2.958   2.180  13.299 -0.8269 -0.3341 -1.5514
15131TIP3   OH266807   6.760   5.992   0.046  0.5290  0.1291 -0.5364
15131TIP3    H166808   6.692   5.935   0.081 -1.3716  1.8500 -1.3169
15131TIP3    H266809   6.749   5.987  -0.049  2.9803 -1.3196 -0.7804
15132TIP3   OH266810   6.034   2.535  15.060  0.4380 -0.3346 -0.0974
15132TIP3    H166811   6.073   2.559  15.144 -0.7233  2.0472 -0.2112
15132TIP3    H266812   5.985   2.612  15.033  2.1498 -0.4623 -3.7948
15133TIP3   OH266813   6.074   1.128   2.097  0.1164 -0.3908  0.1254
15133TIP3    H166814   6.085   1.049   2.044  1.0196 -0.8285  0.9488
15133TIP3    H266815   6.119   1.108   2.179 -1.6799  0.0941  1.2523
15134TIP3   OH266816   4.868   5.506   0.419  0.3905 -0.1510  0.6916
15134TIP3    H166817   4.812   5.545   0.486  0.4042 -0.3969  0.8466
15134TIP3    H266818   4.948   5.560   0.420  0.6724 -0.5780  1.3555
15135TIP3   OH266819   0.394   0.142   3.534 -0.0036  0.3066  0.2708
15135TIP3    H166820   0.308   0.113   3.563 -0.9330  0.2802 -2.3452
15135TIP3    H266821   0.432   0.066   3.490  0.8290  0.6977  0.2943
15136TIP3   OH266822   5.857   3.037   4.045  0.5079 -0.4431 -0.0389
15136TIP3    H166823   5.823   2.948   4.053 -0.9920  0.2658  1.8712
15136TIP3    H266824   5.825   3.082   4.123  2.9094  1.2467  0.0238
15137TIP3   OH266825   5.977   5.842  15.838 -0.2826 -0.1877  0.3328
15137TIP3    H166826   5.978   5.907  15.768  2.8511  0.1474  0.6151
15137TIP3    H266827   6.019   5.886  15.912  1.0260 -2.2329  0.8314
15138TIP3   OH266828   5.457   4.836   2.286 -0.5624 -0.3088  0.0821
15138TIP3    H166829   5.385   4.783   2.321 -1.2726  1.2802  1.0881
15138TIP3    H266830   5.426   4.868   2.202 -0.6135 -0.4978  0.0298
15139TIP3   OH266831   5.001   2.191   3.493 -0.5442 -0.4579 -0.1056
15139TIP3    H166832   5.093   2.178   3.470  0.3147 -0.3306  3.1278
15139TIP3    H266833   4.973   2.263   3.437  0.6212 -2.0119 -2.8180
15140TIP3   OH266834   3.968   5.288  11.543 -0.0320  0.3529 -0.1758
15140TIP3    H166835   3.905   5.325  11.481 -2.6249  0.5419  2.4420
15140TIP3    H266836   3.915   5.233  11.602  2.4013 -0.3065  1.5220
15141TIP3   OH266837   4.130   4.452  14.931 -0.0238 -0.9269  0.9867
15141TIP3    H166838   4.091   4.482  15.013 -1.3811  1.2425 -0.3864
15141TIP3    H266839   4.186   4.525  14.903  0.2504 -1.5521 -0.1347
15142TIP3   OH266840   6.078   1.186  16.273 -0.0629 -0.0605 -0.4415
15142TIP3    H166841   6.081   1.259  16.335  0.3184 -0.6407  0.2257
15142TIP3    H266842   6.123   1.114  16.317  0.8045 -0.2855 -1.6568
15143TIP3   OH266843   2.395   2.662  12.965  0.6501 -0.7689  0.0878
15143TIP3    H166844   2.416   2.738  12.912 -0.4616 -0.5771 -0.0918
15143TIP3    H266845   2.390   2.695  13.054 -0.3015 -0.5375 -0.0504
15144TIP3   OH266846   6.369   3.448   1.708 -0.3555 -0.0455  0.4341
15144TIP3    H166847   6.398   3.463   1.797  0.1679  0.2565  0.2149
15144TIP3    H266848   6.417   3.370   1.679 -1.1805 -0.6560  0.7150
15145TIP3   OH266849   4.199   6.734   0.728  0.6266  0.0869  0.0240
15145TIP3    H166850   4.234   6.809   0.680  1.2661 -0.6904 -0.7522
15145TIP3    H266851   4.271   6.671   0.730  0.2462 -0.3251  1.0661
15146TIP3   OH266852   1.106   5.057  16.673  0.4436 -0.0858 -0.1233
15146TIP3    H166853   1.187   5.011  16.691  0.4132 -0.1419 -0.1335
15146TIP3    H266854   1.130   5.125  16.610  0.9083  1.2446  1.4528
15147TIP3   OH266855   0.408   1.519  14.993  0.5244 -0.7331  0.0932
15147TIP3    H166856   0.499   1.489  14.994  1.0060  0.6443 -1.4510
15147TIP3    H266857   0.400   1.571  14.914 -0.9634  1.2448  1.4922
15148TIP3   OH266858   0.856   0.683  16.843 -0.0668  0.3985  0.1793
15148TIP3    H166859   0.873   0.696  16.936 -0.2500  1.7569  0.0372
15148TIP3    H266860   0.923   0.736  16.799 -0.1416 -0.0324 -0.4631
15149TIP3   OH266861   1.532   2.905  13.667 -0.8312 -0.0427  0.5463
15149TIP3    H166862   1.444   2.934  13.642 -0.8634  1.2065  2.0721
15149TIP3    H266863   1.590   2.973  13.632 -0.3965 -1.1831 -1.0052
15150TIP3   OH266864   0.070   4.706   3.706  0.0338  0.4667  0.0437
15150TIP3    H166865   0.108   4.680   3.622  0.5052 -0.3555  0.5151
15150TIP3    H266866  -0.020   4.673   3.704 -0.2035  1.1203 -0.4497
15151TIP3   OH266867   5.799   6.542   5.288 -0.2396 -0.1910  0.2562
15151TIP3    H166868   5.803   6.488   5.208  2.6375  2.0207 -1.1736
15151TIP3    H266869   5.732   6.607   5.269 -0.2465 -0.2622  0.0233
15152TIP3   OH266870   1.694   5.669   4.869 -0.2707  0.6342 -0.2743
15152TIP3    H166871   1.732   5.670   4.781  0.2708  0.6726 -0.0390
15152TIP3    H266872   1.690   5.576   4.892  1.4921  0.7439  0.4880
15153TIP3   OH266873   4.590   1.668  14.067 -0.0129  0.4076 -0.4415
15153TIP3    H166874   4.609   1.624  14.150  1.8727 -0.0132 -1.0757
15153TIP3    H266875   4.654   1.740  14.063 -0.5059  0.8115 -1.2362
15154TIP3   OH266876   4.196   5.450   5.490  0.1334 -0.2520  0.4468
15154TIP3    H166877   4.109   5.452   5.450 -0.0878 -1.2578  0.8764
15154TIP3    H266878   4.198   5.369   5.540  0.0199  1.4654  3.3223
15155TIP3   OH266879   5.053   5.197  11.302 -0.0419  0.0985  0.5520
15155TIP3    H166880   5.022   5.158  11.384  0.7562  1.0147  1.2905
15155TIP3    H266881   4.973   5.225  11.257 -0.4011  0.8905  1.6671
15156TIP3   OH266882   3.605   0.502  14.090 -0.4157  0.1566 -0.1347
15156TIP3    H166883   3.603   0.408  14.110 -0.8197  0.2073  0.0595
15156TIP3    H266884   3.514   0.529  14.092 -0.2678  0.6328  0.1780
15157TIP3   OH266885   0.242   2.779  17.239  0.1949 -0.2861 -0.1643
15157TIP3    H166886   0.211   2.717  17.173  0.7697 -1.4294  0.6283
15157TIP3    H266887   0.252   2.727  17.319 -0.4142  1.0730  0.8119
15158TIP3   OH266888   3.839   5.053  11.696 -0.3331  0.2537  0.5244
15158TIP3    H166889   3.909   5.000  11.735  0.0694  0.5535  0.2214
15158TIP3    H266890   3.783   4.989  11.652 -0.2873  0.0015  0.8320
15159TIP3   OH266891   4.845   2.877  14.282 -0.0772 -0.2819  0.2860
15159TIP3    H166892   4.771   2.831  14.243  1.6260 -1.0937 -2.1415
15159TIP3    H266893   4.842   2.854  14.375 -2.1786 -1.2204  0.0058
15160TIP3   OH266894   2.387   3.608  11.299  0.2198 -0.4327 -0.1612
15160TIP3    H166895   2.482   3.618  11.291  0.2961 -0.3097  0.8657
15160TIP3    H266896   2.376   3.530  11.353 -0.2571 -0.3783 -0.1836
15161TIP3   OH266897   1.429   4.938  15.241 -0.1634  0.0516  0.1547
15161TIP3    H166898   1.434   4.846  15.269  1.6480  0.8720  2.6319
15161TIP3    H266899   1.473   4.939  15.156 -0.4874 -1.4235 -0.0516
15162TIP3   OH266900   6.006   5.314   2.448  0.1323  0.4130 -0.7781
15162TIP3    H166901   5.951   5.356   2.514  0.8469  2.2116 -1.2873
15162TIP3    H266902   5.961   5.332   2.365  0.1790 -0.2763 -0.9557
15163TIP3   OH266903   1.835   6.229   3.882 -0.2099 -0.1571 -0.2258
15163TIP3    H166904   1.908   6.169   3.872  0.0914 -0.3346  2.5090
15163TIP3    H266905   1.863   6.310   3.840 -0.1919 -1.5600 -2.9878
15164TIP3   OH266906   3.261   2.979   3.376 -0.2550  0.9303 -0.1123
15164TIP3    H166907   3.242   3.071   3.355  0.7724  1.3780  0.8302
15164TIP3    H266908   3.339   2.984   3.432  0.1517 -0.5608 -0.5518
15165TIP3   OH266909   5.618   5.340   1.000  0.0264 -0.2820  0.1359
15165TIP3    H166910   5.660   5.265   0.958 -0.9741 -0.6106 -0.2956
15165TIP3    H266911   5.682   5.370   1.064  0.4142 -1.5531  0.3656
15166TIP3   OH266912   3.781   6.042   1.420  0.3815 -0.2908 -0.4675
15166TIP3    H166913   3.734   5.960   1.434 -0.4929  0.4190  0.8557
15166TIP3    H266914   3.871   6.024   1.449  0.2752 -0.8817 -0.5141
15167TIP3   OH266915   4.652   5.658  14.947  0.2155  0.3065 -0.1926
15167TIP3    H166916   4.569   5.707  14.942  0.7229  1.0607 -1.4703
15167TIP3    H266917   4.696   5.694  15.024 -0.0490  0.8565 -0.2948
15168TIP3   OH266918   4.589   6.770  11.612  0.2048  0.0622 -0.2693
15168TIP3    H166919   4.504   6.808  11.635 -1.0225 -1.1308 -2.6335
15168TIP3    H266920   4.643   6.845  11.587 -0.1193  0.8358  1.2973
15169TIP3   OH266921   5.628   2.444  13.038  0.3200 -0.6039  0.4193
15169TIP3    H166922   5.559   2.413  12.981 -0.5508 -0.8572  1.5849
15169TIP3    H266923   5.592   2.524  13.077  1.1515 -0.0833  0.1372
15170TIP3   OH266924   1.889   4.905  11.055  0.1616  0.2499 -0.1350
15170TIP3    H166925   1.797   4.932  11.059 -0.0088 -0.3431  0.0870
15170TIP3    H266926   1.919   4.934  10.969 -0.3128  0.2143 -0.3148
15171TIP3   OH266927   0.289   3.709  10.466 -0.3087  0.3979  0.0326
15171TIP3    H166928   0.259   3.690  10.377 -0.5327 -3.4366  0.8232
15171TIP3    H266929   0.210   3.732  10.513 -0.7000 -0.7385 -0.0403
15172TIP3   OH266930   3.699   0.706  12.316  0.5450 -0.0244 -0.0923
15172TIP3    H166931   3.694   0.647  12.391  2.4843 -1.8172 -1.3060
15172TIP3    H266932   3.732   0.788  12.352  0.8581 -0.6661  1.1211
15173TIP3   OH266933   5.659   3.510   5.461  0.3070  0.4043  0.5291
15173TIP3    H166934   5.675   3.578   5.396  0.7378  0.5070  0.7377
15173TIP3    H266935   5.682   3.428   5.417 -0.4576  0.3716  0.1933
15174TIP3   OH266936   1.611   4.084   1.241 -0.6090 -0.7390 -0.2516
15174TIP3    H166937   1.568   4.089   1.326  0.5029  0.2562  0.2708
15174TIP3    H266938   1.549   4.036   1.185 -1.0764 -1.9307  1.2633
15175TIP3   OH266939   2.373   1.024  13.455  0.0563 -0.3630 -0.0140
15175TIP3    H166940   2.282   1.024  13.424 -0.1799  0.7197  0.6751
15175TIP3    H266941   2.395   1.116  13.463  0.3038 -0.6183  2.5376
15176TIP3   OH266942   6.084   0.332   4.786 -0.0726  0.6690  0.3903
15176TIP3    H166943   6.111   0.378   4.706  0.5002  1.7238  1.1864
15176TIP3    H266944   6.166   0.303   4.826 -0.4421 -1.1561 -0.1672
15177TIP3   OH266945   5.154   4.145   4.141 -0.2950 -0.4481  0.4623
15177TIP3    H166946   5.217   4.073   4.142 -0.6167 -0.7270  2.0184
15177TIP3    H266947   5.100   4.130   4.064  0.8519 -0.8115 -0.2757
15178TIP3   OH266948   0.590   5.355  12.330  0.2830  0.0624  0.6614
15178TIP3    H166949   0.540   5.326  12.254 -0.8864  0.3303  1.3192
15178TIP3    H266950   0.681   5.354  12.300 -0.0385 -1.1063 -0.3274
15179TIP3   OH266951   1.658   6.598  15.119 -0.2358  0.6224 -0.2636
15179TIP3    H166952   1.642   6.676  15.066 -3.0352 -0.4104 -1.0373
15179TIP3    H266953   1.667   6.631  15.209  1.2885  2.0669 -0.9238
15180TIP3   OH266954   3.462   2.437   1.707 -0.3808 -0.4668  1.0995
15180TIP3    H166955   3.450   2.415   1.615 -0.2398  1.2933  0.6421
15180TIP3    H266956   3.463   2.352   1.752 -2.4100 -1.2679 -0.2774
15181TIP3   OH266957   1.340   3.480   6.084 -0.5386  0.3338 -0.3912
15181TIP3    H166958   1.262   3.424   6.084 -0.3124  0.0198 -0.0375
15181TIP3    H266959   1.376   3.472   6.173  0.0445  0.2753 -0.6301
15182TIP3   OH266960   4.955   2.517  10.965 -0.0269 -0.1092  0.7498
15182TIP3    H166961   4.970   2.513  10.871  1.4763  0.6142  0.9583
15182TIP3    H266962   5.030   2.564  11.000 -0.6782 -0.1876  2.2932
15183TIP3   OH266963   4.203   4.162  14.073  0.1609  0.3587 -0.2594
15183TIP3    H166964   4.274   4.102  14.097  0.5712 -0.3225 -2.9928
15183TIP3    H266965   4.133   4.143  14.135  0.5517 -2.4444 -0.6364
15184TIP3   OH266966   1.894   2.391  16.264 -0.2447 -0.0935 -0.1599
15184TIP3    H166967   1.919   2.372  16.355  0.2423 -1.9233 -0.6416
15184TIP3    H266968   1.973   2.374  16.214 -0.2338  1.8789 -0.8400
15185TIP3   OH266969   4.213   2.376   2.302  0.2745 -0.2679 -0.0546
15185TIP3    H166970   4.297   2.390   2.258  0.0175 -1.3431 -0.9146
15185TIP3    H266971   4.229   2.400   2.393  0.5968  2.7899 -0.8526
15186TIP3   OH266972   3.230   1.421  14.956  0.1330 -0.0527  0.2269
15186TIP3    H166973   3.247   1.440  14.864  1.4371  0.5978  0.5954
15186TIP3    H266974   3.210   1.506  14.995  0.4911 -0.2002  0.7341
15187TIP3   OH266975   2.657   4.549  13.615 -0.5934  0.0039 -0.5685
15187TIP3    H166976   2.752   4.538  13.610 -0.5559  0.1725 -0.2274
15187TIP3    H266977   2.622   4.469  13.576 -0.3189 -0.5754  0.3577
15188TIP3   OH266978   3.464   4.196  13.158 -0.2920  0.3525 -0.6594
15188TIP3    H166979   3.486   4.286  13.135  1.1910  0.2661  0.3578
15188TIP3    H266980   3.386   4.203  13.212 -0.5175  0.9806 -1.0625
15189TIP3   OH266981   4.097   6.472  11.009  0.4208 -0.0315  0.2425
15189TIP3    H166982   4.016   6.464  11.060  0.3379 -0.3369  0.0604
15189TIP3    H266983   4.075   6.434  10.924  0.9933 -0.8407  0.4571
15190TIP3   OH266984   4.915   6.055   1.526 -0.1606 -0.3797 -0.2618
15190TIP3    H166985   4.890   6.098   1.444 -0.3974 -0.1297 -0.0615
15190TIP3    H266986   4.980   5.990   1.500 -1.6746 -1.6717 -0.9292
15191TIP3   OH266987   5.875   0.048   5.424  0.4873  0.4244 -0.2508
15191TIP3    H166988   5.794   0.038   5.374  0.2117  0.0869  0.2585
15191TIP3    H266989   5.929   0.105   5.370 -0.3502  1.1901 -0.2988
15192TIP3   OH266990   2.373   3.170  16.442 -0.4617 -0.2440  0.0383
15192TIP3    H166991   2.366   3.077  16.419 -1.0239 -0.1733 -0.0908
15192TIP3    H266992   2.282   3.200  16.444 -0.1942  0.7435 -1.7477
15193TIP3   OH266993   4.366   0.699   5.318  0.2960 -0.2765 -0.6905
15193TIP3    H166994   4.371   0.607   5.293 -1.6692 -1.1771  1.9826
15193TIP3    H266995   4.288   0.732   5.273  0.2194 -0.2774 -0.5579
15194TIP3   OH266996   3.456   5.441   2.661 -0.2306 -0.3802 -0.4832
15194TIP3    H166997   3.395   5.510   2.635 -0.7280  0.0318  1.6808
15194TIP3    H266998   3.400   5.369   2.692  0.3054  0.4022  2.5260
15195TIP3   OH266999   3.058   0.759   4.367  0.2421 -0.5334  0.0991
15195TIP3    H167000   3.009   0.797   4.440  2.3854  2.5989  0.0044
15195TIP3    H267001   3.128   0.709   4.409 -0.5127 -1.5306  0.1905
15196TIP3   OH267002   2.959   4.237  13.370  0.8899 -0.2234 -0.7183
15196TIP3    H167003   2.880   4.210  13.417 -0.9047  2.5278 -2.0500
15196TIP3    H267004   3.010   4.285  13.436  0.3109  0.1026 -0.5060
15197TIP3   OH267005   5.452   6.247   5.933  0.3930 -0.1005 -0.2488
15197TIP3    H167006   5.537   6.261   5.973 -0.0777 -0.5676  0.9611
15197TIP3    H267007   5.390   6.292   5.991 -0.3898 -1.4910  0.0341
15198TIP3   OH267008   2.070   5.880   6.130 -0.3049 -0.4183  0.8172
15198TIP3    H167009   2.124   5.875   6.209  1.3418 -2.7975 -0.3950
15198TIP3    H267010   2.036   5.970   6.131  3.6947  1.2418  1.6413
15199TIP3   OH267011   4.010   4.491  10.867 -0.5594  0.2281 -0.1112
15199TIP3    H167012   3.989   4.565  10.811  0.3568  0.5720  0.0040
15199TIP3    H267013   3.933   4.481  10.923 -0.7100  1.0459 -0.1684
15200TIP3   OH267014   6.118   4.416  13.820 -0.0324 -0.0227 -0.1015
15200TIP3    H167015   6.069   4.334  13.816  2.9478 -1.8803 -0.0183
15200TIP3    H267016   6.134   4.439  13.728  0.0389 -0.0871 -0.1038
15201TIP3   OH267017   6.626   2.332   4.069  0.1323 -0.2342 -0.3225
15201TIP3    H167018   6.688   2.258   4.069  0.4610  0.0363  0.2093
15201TIP3    H267019   6.672   2.401   4.117  0.1479  0.5920 -1.5159
15202TIP3   OH267020   1.010   0.447  13.397  0.1027 -0.1431  0.0103
15202TIP3    H167021   1.023   0.535  13.433 -3.6483  0.8764 -0.9418
15202TIP3    H267022   1.000   0.461  13.302 -2.4298 -1.3267  0.0636
15203TIP3   OH267023   5.154   0.858   1.657  0.3535  0.3716 -0.3822
15203TIP3    H167024   5.242   0.893   1.671  0.1819  0.5759  0.2106
15203TIP3    H267025   5.145   0.790   1.724  0.0628  0.3444 -0.4504
15204TIP3   OH267026   4.541   6.088  15.758 -0.2165 -0.1989  0.1739
15204TIP3    H167027   4.446   6.080  15.753  0.0117 -1.7572 -3.6826
15204TIP3    H267028   4.570   6.010  15.805 -0.7542 -0.5695 -0.1077
15205TIP3   OH267029   4.172   1.204   3.289 -0.3649  0.0483 -0.8692
15205TIP3    H167030   4.081   1.176   3.283 -0.0972 -0.5909 -2.1828
15205TIP3    H267031   4.170   1.297   3.267 -0.9005  0.4447  0.7661
15206TIP3   OH267032   4.923   5.089   4.513 -0.1233  0.5112 -0.2409
15206TIP3    H167033   4.921   5.116   4.421  1.8333  1.6551  0.0139
15206TIP3    H267034   4.979   5.011   4.514 -1.0954 -0.2006 -0.1618
15207TIP3   OH267035   1.298   1.044  16.318 -0.1194 -0.2871 -0.5670
15207TIP3    H167036   1.301   1.049  16.223  1.4222  1.3585 -0.4545
15207TIP3    H267037   1.386   1.018  16.344  0.3363  2.1721  0.5262
15208TIP3   OH267038   0.366   6.653  11.376 -0.2472  0.3918 -0.1531
15208TIP3    H167039   0.290   6.682  11.326 -0.0944  0.8006 -0.1538
15208TIP3    H267040   0.339   6.659  11.467  0.1568  1.6493 -0.1029
15209TIP3   OH267041   3.818   0.558   2.991 -0.3777 -0.0838  0.3029
15209TIP3    H167042   3.783   0.481   3.035 -0.7527  0.1341  0.3919
15209TIP3    H267043   3.902   0.575   3.035 -0.4717 -0.2201  0.5378
15210TIP3   OH267044   0.623   2.793   0.847  0.1992  0.6101  0.1441
15210TIP3    H167045   0.557   2.847   0.805 -2.0481 -2.5880 -0.6256
15210TIP3    H267046   0.589   2.779   0.936 -0.0392 -0.8403 -0.1731
15211TIP3   OH267047   1.400   5.499  12.469 -0.2530  0.2001  0.1705
15211TIP3    H167048   1.334   5.432  12.454 -0.4603  0.4243  0.0754
15211TIP3    H267049   1.447   5.506  12.385  0.6623 -0.7857  0.5853
15212TIP3   OH267050   0.719   1.097  12.524 -0.0737  0.2869 -0.4044
15212TIP3    H167051   0.658   1.144  12.467 -0.5551  0.6719  0.4168
15212TIP3    H267052   0.775   1.048  12.464 -1.2154 -0.1036 -1.1787
15213TIP3   OH267053   2.684   6.579  11.110  0.0390 -0.1354  0.2021
15213TIP3    H167054   2.749   6.645  11.084  0.3712 -0.7111 -0.4373
15213TIP3    H267055   2.682   6.517  11.037  0.4946 -1.4066  1.2490
15214TIP3   OH267056   1.310   1.394  16.155  0.1740 -0.0366 -0.6169
15214TIP3    H167057   1.366   1.469  16.135  2.3901 -0.9605  1.8544
15214TIP3    H267058   1.343   1.324  16.099 -1.3953  0.5761 -2.3564
15215TIP3   OH267059   5.479   2.143  11.905 -0.1790  0.0325 -0.0169
15215TIP3    H167060   5.453   2.127  11.814  0.3230 -0.3731 -0.0885
15215TIP3    H267061   5.559   2.093  11.916 -0.6614 -0.5516  0.8912
15216TIP3   OH267062   2.317   1.778   4.570  0.6565 -0.2298  0.0945
15216TIP3    H167063   2.304   1.685   4.553 -0.5440 -0.3178  1.4672
15216TIP3    H267064   2.244   1.803   4.627  0.0980  1.9030 -1.4889
15217TIP3   OH267065   5.066   0.097  15.178 -0.1286  0.5184  0.0066
15217TIP3    H167066   4.986   0.054  15.147 -0.9980  1.5712  0.7508
15217TIP3    H267067   5.137   0.056  15.128 -0.9877 -1.4351  0.3497
15218TIP3   OH267068   5.449   6.577   1.028  0.2186  0.1620  0.2319
15218TIP3    H167069   5.478   6.597   0.939 -0.9612 -1.2136 -0.4806
15218TIP3    H267070   5.410   6.490   1.022 -5.1485  2.2968  0.8385
15219TIP3   OH267071   5.157   2.765  11.246 -0.1624  0.5451  0.4218
15219TIP3    H167072   5.194   2.854  11.253 -0.7756  0.8350 -0.0775
15219TIP3    H267073   5.071   2.778  11.208  0.0823 -0.3554 -0.4430
15220TIP3   OH267074   4.962   2.401   2.799 -0.6154  0.0422 -0.0368
15220TIP3    H167075   4.888   2.346   2.775 -0.9122  0.5713 -0.3353
15220TIP3    H267076   5.022   2.342   2.844 -0.3384 -0.8199 -1.5146
15221TIP3   OH267077   4.958   4.567  15.543  0.0309 -0.5123 -0.1399
15221TIP3    H167078   4.949   4.494  15.604 -0.6950 -0.3366 -0.0237
15221TIP3    H267079   4.915   4.641  15.587  2.0496  0.3759  0.3766
15222TIP3   OH267080   6.506   5.504  12.218 -0.1302  0.0879 -0.0836
15222TIP3    H167081   6.535   5.414  12.204 -0.2066 -0.2051  1.5457
15222TIP3    H267082   6.474   5.506  12.308  0.2430  1.8531  0.0392
15223TIP3   OH267083   4.234   2.641   1.234  0.3372 -0.5765 -0.3401
15223TIP3    H167084   4.257   2.617   1.144  1.5186 -0.1280 -0.1606
15223TIP3    H267085   4.210   2.558   1.275 -1.5506 -0.6175 -1.4351
15224TIP3   OH267086   1.769   4.897   2.907 -0.5721  0.2114  0.0443
15224TIP3    H167087   1.843   4.915   2.850 -0.8782 -0.5881 -0.6233
15224TIP3    H267088   1.807   4.857   2.985 -0.2278  0.5496  0.0477
15225TIP3   OH267089   5.068   1.438  11.265  0.1347  0.0405  0.0519
15225TIP3    H167090   5.001   1.507  11.258  0.0348 -0.1059 -0.4371
15225TIP3    H267091   5.076   1.423  11.359  0.7003  1.2582  0.2155
15226TIP3   OH267092   0.666   5.606   2.021 -0.6183  0.8753  0.1430
15226TIP3    H167093   0.669   5.694   2.059  0.6849  1.6151 -1.5706
15226TIP3    H267094   0.745   5.564   2.053 -0.6018  0.7643 -0.0474
15227TIP3   OH267095   6.512   2.122   5.173 -0.3246  0.4605  0.0256
15227TIP3    H167096   6.557   2.202   5.201  0.3043  0.0488  0.1837
15227TIP3    H267097   6.569   2.084   5.107  0.1844 -0.7390  1.1340
15228TIP3   OH267098   2.556   3.139  14.069 -0.3279  0.4209 -0.3155
15228TIP3    H167099   2.509   3.222  14.078  0.1946  0.8090 -1.1301
15228TIP3    H267100   2.561   3.124  13.974  1.9209  0.8012 -0.2778
15229TIP3   OH267101   2.384   6.190   1.187 -0.4455  0.2804 -0.0841
15229TIP3    H167102   2.347   6.272   1.221  0.5667  0.9866 -0.6742
15229TIP3    H267103   2.478   6.205   1.185 -0.2185 -1.0529  0.1789
15230TIP3   OH267104   3.310   1.153   4.831 -0.1747 -0.5826 -0.7520
15230TIP3    H167105   3.242   1.145   4.898 -0.1994 -0.8606 -0.8092
15230TIP3    H267106   3.330   1.246   4.828  2.1015 -0.9018  1.9087
15231TIP3   OH267107   4.428   6.773   0.563  0.5131 -0.2374 -0.5833
15231TIP3    H167108   4.499   6.753   0.624  0.4192 -0.5772 -0.5832
15231TIP3    H267109   4.407   6.864   0.580  1.3587  0.0421 -1.0017
15232TIP3   OH267110   2.999   3.476  13.984 -0.7266  0.0703  0.1077
15232TIP3    H167111   2.981   3.446  13.895  0.5729  2.0015 -0.8503
15232TIP3    H267112   3.054   3.554  13.972 -0.8396  0.5694  2.5910
15233TIP3   OH267113   2.045   3.086   4.724 -0.2268 -0.3032 -0.0749
15233TIP3    H167114   2.122   3.140   4.705 -0.2478 -0.6860 -1.2946
15233TIP3    H267115   2.080   2.997   4.732 -0.6404 -0.6203 -1.5441
15234TIP3   OH267116   5.940   5.122   3.322  0.2884  0.1632  0.0674
15234TIP3    H167117   5.874   5.054   3.314  0.2752  0.2194 -0.3043
15234TIP3    H267118   6.015   5.090   3.271  0.1879  0.5420 -0.3214
15235TIP3   OH267119   0.449   1.744  14.226 -0.4982 -0.0918  0.2451
15235TIP3    H167120   0.542   1.766  14.231 -0.4691 -0.1030 -0.2926
15235TIP3    H267121   0.435   1.685  14.300  0.3189 -1.5927 -0.7862
15236TIP3   OH267122   6.735   0.498  12.382 -0.0260  0.0277  0.1349
15236TIP3    H167123   6.776   0.515  12.467  1.6322  0.5945 -0.7588
15236TIP3    H267124   6.695   0.581  12.357 -0.9976 -0.2883  0.5987
15237TIP3   OH267125   4.214   1.296  15.749 -0.3502 -1.0273 -0.4261
15237TIP3    H167126   4.152   1.223  15.752 -2.0268  0.3332 -1.0165
15237TIP3    H267127   4.278   1.271  15.683 -0.6473 -2.1648 -0.2903
15238TIP3   OH267128   5.414   5.533  15.055 -1.0350  0.1598 -0.2770
15238TIP3    H167129   5.508   5.545  15.043 -0.7817 -2.0641 -0.7549
15238TIP3    H267130   5.400   5.540  15.150 -0.4652  0.9046 -0.2443
15239TIP3   OH267131   6.580   6.245  12.206  0.0228 -0.1734  0.1139
15239TIP3    H167132   6.566   6.331  12.245  3.0721 -0.3576  1.7213
15239TIP3    H267133   6.542   6.183  12.269 -0.0134 -0.1469  0.1172
15240TIP3   OH267134   0.052   3.795  14.741  0.4524  0.0871  0.1201
15240TIP3    H167135   0.082   3.887  14.740  1.3663 -0.1997  0.4141
15240TIP3    H267136  -0.043   3.801  14.741  0.4917  1.0793  2.0498
15241TIP3   OH267137   4.053   6.518   4.155  0.3909  0.3116 -0.0960
15241TIP3    H167138   3.993   6.462   4.107  0.7657  0.3142 -0.5677
15241TIP3    H267139   4.131   6.464   4.170  1.9597  1.6002 -3.1369
15242TIP3   OH267140   1.466   3.693   0.870  0.3847 -0.2829  0.4956
15242TIP3    H167141   1.493   3.645   0.949  0.9841 -1.2400 -0.2791
15242TIP3    H267142   1.434   3.626   0.811  0.0072  0.4246 -0.1108
15243TIP3   OH267143   6.651   3.039   0.316  0.4281  0.4720  0.1283
15243TIP3    H167144   6.711   3.000   0.252  1.5172  1.0863  0.7517
15243TIP3    H267145   6.636   2.970   0.380 -1.1580 -0.3482 -1.1126
15244TIP3   OH267146   2.167   4.142  16.714 -0.7011  0.5246  0.2513
15244TIP3    H167147   2.255   4.118  16.743  1.2342  2.6560 -3.4521
15244TIP3    H267148   2.147   4.223  16.761 -1.2146 -0.5909  1.9861
15245TIP3   OH267149   0.852   5.505  16.747  0.4282  0.3986 -0.5020
15245TIP3    H167150   0.875   5.412  16.746 -0.0774  0.2615  0.1215
15245TIP3    H267151   0.934   5.550  16.763  0.6805  0.0588 -0.8353
15246TIP3   OH267152   4.781   5.847  13.022  0.3666  0.0663 -0.2672
15246TIP3    H167153   4.690   5.823  13.002  0.5402 -2.2395  1.4372
15246TIP3    H267154   4.774   5.901  13.101  0.6084 -2.8971  1.9033
15247TIP3   OH267155   3.868   4.840   3.443  0.1510  0.1179  0.2250
15247TIP3    H167156   3.949   4.790   3.430  0.3131  0.1944  0.9272
15247TIP3    H267157   3.828   4.843   3.356  2.0356  2.0409 -0.6414
15248TIP3   OH267158   4.988   2.100  10.343 -0.5154 -0.0363  0.0374
15248TIP3    H167159   5.037   2.032  10.298 -0.0592  0.9223 -0.9366
15248TIP3    H267160   5.040   2.119  10.422 -1.6655 -2.1969  1.3717
15249TIP3   OH267161   6.038   3.507  15.411 -0.6157  0.3102  0.4158
15249TIP3    H167162   6.107   3.541  15.354 -0.6410  1.0372  0.8071
15249TIP3    H267163   6.034   3.413  15.391 -0.8272  0.6069 -0.9860
15250TIP3   OH267164   4.053   0.812  12.814 -0.1185  0.4455  0.3522
15250TIP3    H167165   4.017   0.726  12.796 -0.3676  0.9023 -1.4759
15250TIP3    H267166   3.979   0.872  12.807  0.9277  1.4316 -3.7565
15251TIP3   OH267167   1.503   6.687   4.143  0.4430  0.1397 -0.5472
15251TIP3    H167168   1.572   6.629   4.175 -0.2491 -1.1538 -1.3567
15251TIP3    H267169   1.432   6.678   4.207  0.5795  0.5526 -0.3443
15252TIP3   OH267170   5.737   4.808  15.791  0.0543 -0.2730 -0.5488
15252TIP3    H167171   5.722   4.737  15.854  0.8738  1.5070  1.7080
15252TIP3    H267172   5.828   4.834  15.806  0.6509 -0.6458 -3.3575
15253TIP3   OH267173   2.131   4.477   0.748  0.6076  0.1366 -0.0057
15253TIP3    H167174   2.115   4.535   0.822 -0.7392  1.8406 -1.5892
15253TIP3    H267175   2.115   4.531   0.671  0.9483 -1.8846 -1.5460
15254TIP3   OH267176   6.034   4.114  15.430 -0.3251  0.8164 -0.1279
15254TIP3    H167177   6.008   4.066  15.509 -0.8068  2.0316  0.4581
15254TIP3    H267178   6.104   4.172  15.460 -0.0599  0.8177 -0.7418
15255TIP3   OH267179   0.212   5.226   4.905  0.1295  0.1876  0.6013
15255TIP3    H167180   0.162   5.158   4.950  1.3557 -0.0083  1.7246
15255TIP3    H267181   0.185   5.307   4.947  0.1269  0.1786  0.6173
15256TIP3   OH267182   4.700   2.965  12.601  0.6589  0.4705  0.1692
15256TIP3    H167183   4.756   2.938  12.674  2.6424  0.2203 -1.4106
15256TIP3    H267184   4.654   3.043  12.634  3.4662  1.9321  0.8379
15257TIP3   OH267185   2.579   1.945  15.476  0.1147 -0.1814  0.4855
15257TIP3    H167186   2.635   1.879  15.517  0.3312 -0.5727 -0.4036
15257TIP3    H267187   2.634   1.983  15.407 -0.6686 -0.4887 -0.3265
15258TIP3   OH267188   4.334   0.938   4.171 -0.1695  0.1741  0.1512
15258TIP3    H167189   4.246   0.939   4.208 -0.1410  0.2286  0.2178
15258TIP3    H267190   4.363   1.029   4.174 -0.3077  0.2374 -0.3390
15259TIP3   OH267191   3.146   1.102   5.293  0.4837 -0.1373 -0.1760
15259TIP3    H167192   3.062   1.069   5.260  0.9389  0.3292 -1.8660
15259TIP3    H267193   3.134   1.109   5.388 -0.8964 -1.4594 -0.2375
15260TIP3   OH267194   4.134   1.301  17.057  0.5398  0.2970 -0.2874
15260TIP3    H167195   4.133   1.232  16.990 -0.1567  0.0256 -0.0036
15260TIP3    H267196   4.118   1.254  17.139  1.3459  0.6356  0.0635
15261TIP3   OH267197   1.453   1.508  13.781 -0.2809  0.4492  0.0501
15261TIP3    H167198   1.456   1.416  13.806 -3.9828  0.6309  1.3874
15261TIP3    H267199   1.390   1.548  13.841 -0.4279  3.4120 -1.9568
15262TIP3   OH267200   1.218   0.234  15.382 -0.1988  0.6953 -0.1190
15262TIP3    H167201   1.298   0.184  15.397 -1.0409 -1.4979 -2.7158
15262TIP3    H267202   1.161   0.210  15.455 -0.1629 -1.2984 -0.7134
15263TIP3   OH267203   1.018   1.312  15.925  0.2017 -0.2729 -0.3488
15263TIP3    H167204   1.054   1.297  16.012  0.7977  2.2774 -0.1332
15263TIP3    H267205   1.061   1.247  15.869  1.7395 -0.2195  0.7599
15264TIP3   OH267206   1.708   4.500   3.078 -0.0669  0.6740  0.2655
15264TIP3    H167207   1.686   4.428   3.138 -0.0791  0.5334  0.0943
15264TIP3    H267208   1.743   4.568   3.135 -0.9398  0.9004  0.5471
15265TIP3   OH267209   4.306   1.461  15.940  0.1943 -0.0976  0.1035
15265TIP3    H167210   4.284   1.454  16.033  1.9531 -0.2555  0.5243
15265TIP3    H267211   4.263   1.385  15.900  1.6453 -1.5758  1.2462
15266TIP3   OH267212   1.169   0.253   1.654 -0.4958  0.2832  0.0651
15266TIP3    H167213   1.120   0.271   1.573  1.0549  0.1633 -0.9101
15266TIP3    H267214   1.261   0.264   1.629  0.0598 -1.1468  1.4568
15267TIP3   OH267215   2.906   1.986   5.226  0.0615  0.9379  0.3250
15267TIP3    H167216   2.811   1.990   5.230 -0.2172 -0.1014 -3.4110
15267TIP3    H267217   2.930   2.053   5.162  1.4312 -1.9279 -2.2728
15268TIP3   OH267218   2.215   5.023  13.386  0.1108  0.5325 -0.1971
15268TIP3    H167219   2.307   5.001  13.371  0.3918  0.8554  1.0023
15268TIP3    H267220   2.216   5.116  13.411 -0.3201  0.0374  1.7633
15269TIP3   OH267221   6.086   6.440  15.015 -0.0607 -0.1961 -0.3575
15269TIP3    H167222   6.001   6.467  14.979 -0.1661 -1.0785 -0.7862
15269TIP3    H267223   6.145   6.513  14.994 -0.8916  0.7969  0.6856
15270TIP3   OH267224   1.997   1.307  13.243  0.6909  0.5751 -0.5893
15270TIP3    H167225   1.996   1.397  13.210 -0.5210  1.4642  1.7448
15270TIP3    H267226   1.958   1.313  13.330 -0.3803 -2.3824 -0.7944
15271TIP3   OH267227   5.649   6.466   2.553 -0.4648 -0.2338  0.6441
15271TIP3    H167228   5.627   6.539   2.611 -0.9821  1.9398 -2.1806
15271TIP3    H267229   5.642   6.502   2.465  2.7345 -2.7433 -0.7605
15272TIP3   OH267230   2.364   4.877  16.281 -0.1781 -0.0464 -0.1988
15272TIP3    H167231   2.329   4.818  16.215 -1.6847  1.0250 -0.3610
15272TIP3    H267232   2.320   4.960  16.266 -1.9445 -0.2619  3.3115
15273TIP3   OH267233   6.073   1.313  12.838  0.0752 -0.6497  0.2720
15273TIP3    H167234   6.129   1.376  12.792  0.0364 -0.9017 -0.1232
15273TIP3    H267235   6.075   1.341  12.929 -0.7419  0.5356 -0.0545
15274TIP3   OH267236   2.078   5.709   3.610 -0.3056 -0.4253 -0.1136
15274TIP3    H167237   1.985   5.697   3.630 -0.1698 -0.1653  0.6886
15274TIP3    H267238   2.086   5.803   3.590 -0.0359 -0.2576  0.7815
15275TIP3   OH267239   0.440   2.454   6.516 -0.0189 -0.2183  1.0495
15275TIP3    H167240   0.368   2.401   6.482 -0.4305  1.3217 -0.5575
15275TIP3    H267241   0.517   2.397   6.508 -0.8430 -1.4414  1.6455
15276TIP3   OH267242   2.752   2.193   1.578 -0.3191  0.1738  0.1483
15276TIP3    H167243   2.787   2.158   1.497  0.7259  0.8896  0.2884
15276TIP3    H267244   2.724   2.282   1.556  0.0026  0.3825  0.5874
15277TIP3   OH267245   0.086   0.925  13.773 -0.1091 -0.6423 -0.5615
15277TIP3    H167246   0.098   0.887  13.686  0.4369 -0.7058 -0.4630
15277TIP3    H267247   0.020   0.869  13.814 -0.3457 -0.6298 -0.9227
15278TIP3   OH267248   3.981   2.450  10.904  0.6777  0.5940 -0.4025
15278TIP3    H167249   3.949   2.366  10.936 -0.8533  2.1997  2.4867
15278TIP3    H267250   3.907   2.487  10.857  1.2074  0.5316 -1.2959
15279TIP3   OH267251   5.114   5.583   2.809 -0.0719  0.1546 -0.3486
15279TIP3    H167252   5.184   5.563   2.747  0.8479  0.2319  0.6560
15279TIP3    H267253   5.041   5.612   2.754  0.3913 -0.7607 -1.4536
15280TIP3   OH267254   1.781   1.159   6.595  0.1424  0.5283  0.3528
15280TIP3    H167255   1.872   1.137   6.575  0.3179 -0.3438  2.0747
15280TIP3    H267256   1.775   1.253   6.578  1.0983  0.4175 -0.6940
15281TIP3   OH267257   1.845   6.170  11.102 -0.4379  0.5973  0.0058
15281TIP3    H167258   1.788   6.205  11.033  1.1691  0.5502 -1.3871
15281TIP3    H267259   1.890   6.096  11.060 -0.1814 -0.0738  1.4277
15282TIP3   OH267260   6.526   0.724  11.264  0.3526 -0.3141  0.8909
15282TIP3    H167261   6.548   0.658  11.329  2.0656 -1.1057 -0.4421
15282TIP3    H267262   6.583   0.705  11.190 -0.0440  1.8654 -0.0343
15283TIP3   OH267263   0.276   1.330   6.051  0.6534  0.2193  0.9551
15283TIP3    H167264   0.350   1.302   5.999 -0.3152 -1.7286  0.5897
15283TIP3    H267265   0.199   1.306   6.000 -0.2692  0.7588  2.0426
15284TIP3   OH267266   1.931   1.075  14.972 -0.0293  0.3878  0.0249
15284TIP3    H167267   2.013   1.033  14.997  0.0059  0.3748 -0.1187
15284TIP3    H267268   1.925   1.151  15.030 -0.7081 -0.5061  1.1629
15285TIP3   OH267269   5.846   4.819   2.959 -0.2719 -0.0672  0.0307
15285TIP3    H167270   5.822   4.750   2.898  0.1712 -1.5928  1.5275
15285TIP3    H267271   5.775   4.820   3.023  0.7774 -0.6207  1.2204
15286TIP3   OH267272   2.387   4.100  13.329 -0.5106 -0.5864 -0.1433
15286TIP3    H167273   2.333   4.179  13.329 -0.1804 -0.3571  0.0081
15286TIP3    H267274   2.369   4.058  13.245 -0.0884  0.0634 -0.5630
15287TIP3   OH267275   4.322   0.038   0.004 -0.3401  0.3653  0.4109
15287TIP3    H167276   4.331   0.046   0.099  0.4147  0.9071  0.3033
15287TIP3    H267277   4.399   0.084  -0.031  0.3312 -1.3368 -0.4308
15288TIP3   OH267278   0.507   3.958   0.211 -0.4045  0.1828  0.1664
15288TIP3    H167279   0.498   3.999   0.125  1.4924  1.8222  0.7334
15288TIP3    H267280   0.522   4.030   0.271  0.4599 -1.1418  1.5718
15289TIP3   OH267281   4.600   4.857  15.129  0.2907  0.0415 -0.1657
15289TIP3    H167282   4.566   4.922  15.190  2.1821  1.1032 -0.2111
15289TIP3    H267283   4.522   4.811  15.098 -1.0713  2.2094 -0.0758
15290TIP3   OH267284   1.691   1.220   0.090  0.2039 -0.1704  0.0963
15290TIP3    H167285   1.606   1.222   0.132 -0.4960 -2.7544 -1.1339
15290TIP3    H267286   1.745   1.164   0.145 -0.3772 -2.6093 -1.7461
15291TIP3   OH267287   2.878   3.616   1.770 -0.0219 -0.4830  0.3343
15291TIP3    H167288   2.798   3.592   1.723 -0.3526 -0.0909  0.6964
15291TIP3    H267289   2.851   3.684   1.832  0.5124 -0.6387  0.7438
15292TIP3   OH267290   6.120   2.715  16.030 -0.4786  0.2667  0.3461
15292TIP3    H167291   6.201   2.672  16.001 -0.8742 -0.3497  0.1493
15292TIP3    H267292   6.149   2.800  16.063  0.3669 -0.3383  1.1978
15293TIP3   OH267293   2.758   6.424  14.397  0.2019 -0.3535 -0.2078
15293TIP3    H167294   2.851   6.420  14.421  0.1626  0.8136  0.2188
15293TIP3    H267295   2.743   6.348  14.342  1.3454 -0.7205 -0.0142
15294TIP3   OH267296   2.822   3.740  11.626 -0.3252 -0.4654  0.3344
15294TIP3    H167297   2.863   3.687  11.557 -1.6346 -0.5631 -0.3821
15294TIP3    H267298   2.794   3.820  11.581 -1.1650 -0.5159  0.7692
15295TIP3   OH267299   3.431   4.345  14.005  0.0061 -0.0993 -0.9426
15295TIP3    H167300   3.465   4.376  13.920  1.5480  0.8980  0.0181
15295TIP3    H267301   3.336   4.340  13.992  0.2017  0.1825 -2.6824
15296TIP3   OH267302   6.580   3.918  12.891 -0.3124 -0.5900 -0.2323
15296TIP3    H167303   6.546   3.836  12.857 -0.8440 -0.6040  0.3220
15296TIP3    H267304   6.660   3.894  12.937 -1.4706 -1.0887  1.5800
15297TIP3   OH267305   1.416   3.799   5.180 -0.0562 -0.0012  0.0748
15297TIP3    H167306   1.431   3.717   5.134 -2.2266 -0.4736  0.1668
15297TIP3    H267307   1.365   3.852   5.119 -1.9698 -0.2037  1.4510
15298TIP3   OH267308   4.494   6.191   0.562  0.3934 -0.2052  0.0474
15298TIP3    H167309   4.526   6.179   0.651  0.1156 -1.7456 -0.0534
15298TIP3    H267310   4.562   6.152   0.506 -0.1208 -0.5637 -0.3328
15299TIP3   OH267311   2.580   4.412  15.070  0.2777  0.6959  0.1202
15299TIP3    H167312   2.575   4.465  15.149 -1.6643  0.0169  0.5044
15299TIP3    H267313   2.563   4.322  15.100 -1.5899  0.5754 -1.1765
15300TIP3   OH267314   0.359   5.687  13.388  0.2440  0.3441  0.6088
15300TIP3    H167315   0.401   5.604  13.369  1.4070  1.1130 -0.2147
15300TIP3    H267316   0.265   5.666  13.392  0.5360 -1.0072  0.4848
15301TIP3   OH267317   4.146   3.274  16.356 -1.2866 -0.3934 -0.0576
15301TIP3    H167318   4.192   3.282  16.272 -0.2753 -2.1857  0.3088
15301TIP3    H267319   4.064   3.231  16.335 -0.2045 -2.6129  0.1096
15302TIP3   OH267320   2.692   5.403   6.405  0.0522  0.4621 -0.1778
15302TIP3    H167321   2.708   5.454   6.484  0.2519  0.5776 -0.2913
15302TIP3    H267322   2.611   5.356   6.422 -0.4762  1.3150 -0.3222
15303TIP3   OH267323   6.463   2.379   2.752  0.2798 -0.0724  0.3066
15303TIP3    H167324   6.524   2.317   2.711 -0.6816 -1.0110  0.2999
15303TIP3    H267325   6.423   2.425   2.678  0.8566  0.4348  0.3056
15304TIP3   OH267326   2.960   2.427   3.132  0.1739 -0.3370  0.4372
15304TIP3    H167327   3.004   2.446   3.214  0.4363  1.0871 -0.0152
15304TIP3    H267328   2.879   2.479   3.136 -0.0450 -0.6403  0.0049
15305TIP3   OH267329   0.080   0.266  13.775 -0.5921  0.3071  0.3730
15305TIP3    H167330   0.119   0.227  13.696 -0.9153  0.3288  0.2025
15305TIP3    H267331   0.099   0.360  13.767 -0.5554  0.2987  0.3603
15306TIP3   OH267332   0.197   0.070  15.462 -0.1889 -0.4998  0.5624
15306TIP3    H167333   0.158   0.145  15.417  0.9387  0.3401  0.9442
15306TIP3    H267334   0.152  -0.006  15.426  1.0121  0.1035 -2.3659
15307TIP3   OH267335   5.202   5.269   2.537  0.0039 -0.3741 -0.3773
15307TIP3    H167336   5.204   5.197   2.600  0.5358 -0.1726 -0.1671
15307TIP3    H267337   5.245   5.234   2.459 -0.6726 -0.6308 -0.6415
15308TIP3   OH267338   1.739   3.553   2.811 -0.6523 -0.3466  0.2871
15308TIP3    H167339   1.670   3.555   2.744  0.3476  1.7708 -0.7537
15308TIP3    H267340   1.693   3.556   2.894 -1.8677 -0.9920 -0.3558
15309TIP3   OH267341   1.109   3.050  11.534 -0.1003  0.0650 -0.2441
15309TIP3    H167342   1.098   2.980  11.469  0.4153 -0.3634  0.1212
15309TIP3    H267343   1.027   3.099  11.530 -0.9460 -1.2592  0.3339
15310TIP3   OH267344   5.609   6.470   4.238  0.1375  0.4385 -0.3345
15310TIP3    H167345   5.539   6.523   4.200  0.0680 -1.1039 -2.4472
15310TIP3    H267346   5.564   6.398   4.282  0.3229  0.9006  0.6394
15311TIP3   OH267347   5.415   2.927  14.753 -0.0323 -0.2689 -0.0445
15311TIP3    H167348   5.462   3.009  14.771 -0.2319 -0.6849  2.5525
15311TIP3    H267349   5.328   2.940  14.790 -0.5079 -1.1728 -0.8205
15312TIP3   OH267350   0.669   4.237   1.460  0.0469 -0.3488  0.2492
15312TIP3    H167351   0.579   4.229   1.493 -0.2113  2.3233  0.3284
15312TIP3    H267352   0.661   4.296   1.384  1.8979  0.9985  1.0643
15313TIP3   OH267353   0.401   4.429  16.779 -0.0485 -0.0719  0.1793
15313TIP3    H167354   0.338   4.497  16.803  0.4168  0.0542  1.0544
15313TIP3    H267355   0.386   4.414  16.685  0.6775  2.1005 -0.3018
15314TIP3   OH267356   5.794   0.311  15.595 -0.6955  0.3400 -0.0498
15314TIP3    H167357   5.703   0.284  15.605 -0.5640  0.8552  3.0541
15314TIP3    H267358   5.795   0.403  15.620  0.7039  0.2550  0.2548
15315TIP3   OH267359   5.762   0.134   0.170 -0.7498  0.3648  0.0415
15315TIP3    H167360   5.842   0.083   0.155 -0.0934  0.6920  2.1554
15315TIP3    H267361   5.759   0.197   0.099 -0.3926 -1.1873 -1.3849
15316TIP3   OH267362   0.837   0.701   4.056  0.5149  0.6250 -0.0791
15316TIP3    H167363   0.752   0.694   4.100  0.7504 -0.2754  0.2427
15316TIP3    H267364   0.816   0.707   3.963  0.1078  0.1765 -0.0174
15317TIP3   OH267365   4.981   4.006   5.165  0.1519 -0.3605  0.5415
15317TIP3    H167366   5.056   3.979   5.111  0.1113 -0.6877  0.6498
15317TIP3    H267367   4.946   4.082   5.119  0.9759  0.2226  0.8725
15318TIP3   OH267368   1.563   1.191  14.694 -0.3261 -0.4800 -0.2275
15318TIP3    H167369   1.545   1.259  14.629 -0.5087 -1.0244 -0.7500
15318TIP3    H267370   1.564   1.238  14.777 -0.2649  0.1964 -0.5994
15319TIP3   OH267371   1.819   0.924   2.310  0.6451 -0.4750  0.0930
15319TIP3    H167372   1.794   0.915   2.401 -0.0231  1.1670  0.0727
15319TIP3    H267373   1.860   1.011   2.304  2.3156 -1.2831 -0.8010
15320TIP3   OH267374   1.327   1.422   3.561  0.8757 -0.7236 -0.5388
15320TIP3    H167375   1.366   1.478   3.627  0.6821 -0.0665 -0.9797
15320TIP3    H267376   1.271   1.480   3.509 -0.7010 -1.6525  0.0910
15321TIP3   OH267377   5.829   0.860  17.165 -0.2046  0.0369  0.4157
15321TIP3    H167378   5.872   0.802  17.228 -1.2740 -1.7576 -0.4696
15321TIP3    H267379   5.889   0.863  17.091 -0.1878 -0.0268  0.4266
15322TIP3   OH267380   0.149   6.353  12.621 -0.0162  0.0684 -0.3265
15322TIP3    H167381   0.134   6.364  12.527  1.7318  1.3940 -0.4876
15322TIP3    H267382   0.244   6.354  12.630 -0.1687  0.2756  1.5036
15323TIP3   OH267383   0.476   2.943  12.441  0.0296 -0.3467 -0.4207
15323TIP3    H167384   0.393   2.975  12.405  0.3624 -0.4125 -1.2588
15323TIP3    H267385   0.474   2.849  12.424 -0.1871 -0.5157  0.5094
15324TIP3   OH267386   1.077   4.500   3.339 -0.8436  0.6464  0.0823
15324TIP3    H167387   1.134   4.429   3.369 -1.4588  1.1991  2.6639
15324TIP3    H267388   1.047   4.471   3.253  2.9205  0.1278 -1.1615
15325TIP3   OH267389   3.886   3.472   2.537  0.0286  0.5351 -0.5739
15325TIP3    H167390   3.927   3.494   2.454  2.0276  0.5685  0.3894
15325TIP3    H267391   3.957   3.479   2.601 -0.6346 -2.9909  0.6227
15326TIP3   OH267392   1.498   6.738   3.567  0.2159 -0.1602 -0.1471
15326TIP3    H167393   1.443   6.679   3.618  0.8247  0.5330  1.3461
15326TIP3    H267394   1.437   6.803   3.533 -0.2387 -0.7872 -0.5413
15327TIP3   OH267395   6.080   4.977  13.121 -0.8763 -0.3657 -0.4699
15327TIP3    H167396   6.030   4.983  13.040 -1.0038  0.0572 -0.3608
15327TIP3    H267397   6.024   5.017  13.187 -0.5428 -0.2107 -0.2767
15328TIP3   OH267398   5.507   1.057   3.345  0.1802  0.2411  0.1307
15328TIP3    H167399   5.490   0.963   3.349  1.7545  0.0046  1.8598
15328TIP3    H267400   5.571   1.067   3.275  0.3780 -0.0229  0.2769
15329TIP3   OH267401   1.237   5.422   3.557 -0.3571 -0.0177 -0.0779
15329TIP3    H167402   1.299   5.400   3.627  0.0409 -0.7470 -0.6571
15329TIP3    H267403   1.174   5.351   3.558 -0.0772 -0.2774 -0.7846
15330TIP3   OH267404   6.187   1.521   5.788 -0.0886 -0.4582 -0.2249
15330TIP3    H167405   6.128   1.588   5.752  1.3016  1.1763  0.4911
15330TIP3    H267406   6.197   1.457   5.717  0.3493  1.2347 -1.7054
15331TIP3   OH267407   3.270   6.240   1.278 -0.3121 -0.2582  0.5977
15331TIP3    H167408   3.282   6.181   1.203  0.0257 -0.6957  0.9918
15331TIP3    H267409   3.357   6.244   1.319  0.0513  1.7530 -0.3329
15332TIP3   OH267410   3.248   3.202   5.703 -0.3532  0.2890 -0.5788
15332TIP3    H167411   3.323   3.214   5.646 -0.9655 -1.1168 -1.7255
15332TIP3    H267412   3.227   3.109   5.696  0.3403 -0.2111  2.9554
15333TIP3   OH267413   6.039   3.761   5.867  0.0741  0.0153 -0.1166
15333TIP3    H167414   5.970   3.714   5.914 -1.2554  1.3106 -0.7213
15333TIP3    H267415   6.113   3.701   5.866 -0.5529 -0.8250  1.8373
15334TIP3   OH267416   2.002   3.147   0.510 -0.3488  0.2081 -0.4158
15334TIP3    H167417   2.080   3.136   0.456 -0.2524  1.8166 -0.6487
15334TIP3    H267418   1.932   3.165   0.447 -0.3512  1.4954 -0.0671
15335TIP3   OH267419   6.619   5.858   3.023 -0.6162 -0.3359 -0.1431
15335TIP3    H167420   6.683   5.838   2.955  1.2643 -0.4824  1.6140
15335TIP3    H267421   6.535   5.831   2.986  0.7997 -3.7208 -1.0408
15336TIP3   OH267422   3.786   5.006   0.329  0.7810  0.3530  0.7309
15336TIP3    H167423   3.717   5.028   0.266 -0.1331  0.6898  1.8443
15336TIP3    H267424   3.867   5.033   0.285  0.1999  0.2141 -0.4704
15337TIP3   OH267425   2.445   2.658   5.535 -0.2199 -0.3301 -0.1953
15337TIP3    H167426   2.374   2.659   5.470 -0.5634 -1.0059  0.1613
15337TIP3    H267427   2.508   2.722   5.503  0.2817 -1.6476 -1.9333
15338TIP3   OH267428   4.266   3.984  15.413  0.2129  0.1381  0.0548
15338TIP3    H167429   4.312   4.002  15.495  2.0386  0.0596 -0.9094
15338TIP3    H267430   4.255   4.070  15.373  1.0287  0.0029 -0.4781
15339TIP3   OH267431   6.213   3.093   2.189  0.2752  0.6625 -0.0616
15339TIP3    H167432   6.303   3.128   2.195  0.6648 -0.2818 -0.3926
15339TIP3    H267433   6.207   3.031   2.262 -0.3627  1.2666  0.4118
15340TIP3   OH267434   3.432   0.250  16.746 -0.2571  0.3406  0.4933
15340TIP3    H167435   3.444   0.343  16.729 -0.3049  0.4649  1.1355
15340TIP3    H267436   3.456   0.238  16.837  2.4925 -0.7737 -0.3339
15341TIP3   OH267437   3.553   1.768   0.300 -0.0648 -0.4860 -0.2402
15341TIP3    H167438   3.464   1.788   0.273 -0.3376 -2.7307 -1.0981
15341TIP3    H267439   3.565   1.817   0.382 -2.6024 -1.3355  0.6873
15342TIP3   OH267440   5.764   2.647   2.304  0.3887 -0.0923 -0.1139
15342TIP3    H167441   5.777   2.725   2.358 -1.7182  0.9285 -1.0086
15342TIP3    H267442   5.694   2.598   2.348  1.3548 -1.2339  0.1694
15343TIP3   OH267443   0.748   3.126   6.034 -0.3161  0.1870  0.1656
15343TIP3    H167444   0.739   3.044   5.985 -0.7525 -0.5262  1.4361
15343TIP3    H267445   0.759   3.100   6.125  0.5040  1.5116  0.4711
15344TIP3   OH267446   0.807   4.376  12.787  0.4859  0.0136 -0.4855
15344TIP3    H167447   0.896   4.345  12.799  0.9377  1.5274  0.0487
15344TIP3    H267448   0.814   4.446  12.722 -0.5472 -1.0074 -1.7454
15345TIP3   OH267449   1.808   2.034  11.587 -0.2550 -0.0741  0.8470
15345TIP3    H167450   1.841   2.053  11.674  0.7006 -0.5207  0.5807
15345TIP3    H267451   1.807   2.118  11.542  0.2401 -0.0188  0.9468
15346TIP3   OH267452   2.710   3.433  14.040 -0.1369  0.4045  0.3624
15346TIP3    H167453   2.698   3.375  14.114  0.0670 -1.0614 -0.7352
15346TIP3    H267454   2.801   3.463  14.047 -0.1027  0.2225  0.6812
15347TIP3   OH267455   1.175   6.057  13.717  0.1384 -0.3279 -0.5974
15347TIP3    H167456   1.234   6.084  13.787 -2.3321 -0.5064  1.6166
15347TIP3    H267457   1.185   6.124  13.649 -0.9745  2.5227  1.9604
15348TIP3   OH267458   0.508   3.093   4.630  0.1231  0.3669 -0.3223
15348TIP3    H167459   0.505   3.066   4.722  0.6179 -1.3889 -0.8078
15348TIP3    H267460   0.584   3.150   4.624  0.8706 -0.5749  0.0836
15349TIP3   OH267461   3.155   5.586  15.912  0.1450  0.0013  0.4275
15349TIP3    H167462   3.060   5.573  15.905  0.3820 -2.0288  0.6595
15349TIP3    H267463   3.185   5.597  15.822 -0.4704  2.0280  0.4430
15350TIP3   OH267464   4.299   0.195   5.721 -0.0385  0.3020  0.2291
15350TIP3    H167465   4.238   0.153   5.660  0.0600  0.3845  0.0720
15350TIP3    H267466   4.271   0.166   5.807 -0.3680  0.4316  0.1643
15351TIP3   OH267467   2.829   0.671   5.900 -0.0320  0.1451 -0.0132
15351TIP3    H167468   2.911   0.718   5.886 -1.3729  2.6368  0.2576
15351TIP3    H267469   2.828   0.651   5.994 -0.4866  1.6237  0.3124
15352TIP3   OH267470   0.548   0.618   0.257  0.2533 -0.4784 -0.1365
15352TIP3    H167471   0.591   0.621   0.172  0.8037  0.9364  0.1831
15352TIP3    H267472   0.601   0.557   0.309  0.8454 -0.1082 -0.3061
15353TIP3   OH267473   4.290   2.799   2.390  0.1263 -0.6491 -0.4110
15353TIP3    H167474   4.194   2.794   2.397  0.0514 -0.8561 -1.5989
15353TIP3    H267475   4.306   2.879   2.339  0.6653  0.5694  1.6085
15354TIP3   OH267476   6.727   1.145   2.208 -0.0651 -0.2735  0.0391
15354TIP3    H167477   6.771   1.220   2.247 -1.1445  1.0236 -1.1518
15354TIP3    H267478   6.673   1.110   2.278  1.3922 -0.6991  0.9559
15355TIP3   OH267479   1.596   6.495   1.676 -0.2317  0.6627 -0.1361
15355TIP3    H167480   1.638   6.516   1.760 -1.6064 -0.3433  0.8409
15355TIP3    H267481   1.635   6.556   1.613  0.5605  1.6797  1.3083
15356TIP3   OH267482   3.084   4.090  11.501  0.3398 -0.2352  0.1039
15356TIP3    H167483   3.118   4.125  11.418 -0.9356 -0.1159 -0.3873
15356TIP3    H267484   3.097   4.161  11.564  1.5021 -0.4043  0.0534
15357TIP3   OH267485   4.605   3.580  14.804 -0.2875  0.1835 -0.4685
15357TIP3    H167486   4.670   3.624  14.749 -0.2256 -0.3736 -0.8537
15357TIP3    H267487   4.649   3.501  14.835 -0.7995 -0.2474 -0.8096
15358TIP3   OH267488   5.751   0.219  10.558  0.0910 -0.0502  0.1304
15358TIP3    H167489   5.830   0.258  10.595  0.7702 -0.7140 -0.6102
15358TIP3    H267490   5.716   0.164  10.627  0.5969 -0.2076  0.2624
15359TIP3   OH267491   5.868   3.810   5.622 -0.1851 -0.3978 -0.5048
15359TIP3    H167492   5.903   3.805   5.710 -2.4841 -2.4082  0.3733
15359TIP3    H267493   5.786   3.859   5.631 -0.5484 -0.8084 -1.4671
15360TIP3   OH267494   1.134   3.286  16.246 -0.1556  0.3112 -0.5522
15360TIP3    H167495   1.046   3.248  16.253 -0.3327  0.2989 -2.5923
15360TIP3    H267496   1.187   3.216  16.206  0.3837  0.9032 -0.8775
15361TIP3   OH267497   6.309   1.359   0.251 -0.1715  0.0915  0.5046
15361TIP3    H167498   6.237   1.311   0.292 -0.5177 -0.6600 -0.9685
15361TIP3    H267499   6.267   1.433   0.208 -0.3730 -1.6014 -2.3010
15362TIP3   OH267500   3.061   4.782   6.752 -0.5511 -0.3797  0.5342
15362TIP3    H167501   3.046   4.687   6.750 -1.5001 -0.2143 -0.1030
15362TIP3    H267502   2.974   4.821   6.739  0.2254  0.5833 -1.9354
15363TIP3   OH267503   2.264   4.708   2.462  0.0001  0.6084  0.3965
15363TIP3    H167504   2.354   4.707   2.431  0.0075  1.9642  0.3521
15363TIP3    H267505   2.211   4.720   2.383 -0.2017  0.1329  0.4586
15364TIP3   OH267506   2.724   0.966   3.443 -0.5171  0.1549 -0.4073
15364TIP3    H167507   2.633   0.987   3.424 -0.3139  1.9316  0.4712
15364TIP3    H267508   2.720   0.899   3.511 -1.1578  0.0890 -0.5095
15365TIP3   OH267509   2.668   4.724  15.910  0.1695 -0.2458 -0.1003
15365TIP3    H167510   2.622   4.741  15.828 -1.1877 -0.2262  0.6449
15365TIP3    H267511   2.754   4.692  15.884 -0.4811 -0.8560 -1.5258
15366TIP3   OH267512   0.866   2.012  14.696  0.0917 -0.2131 -0.2544
15366TIP3    H167513   0.801   2.052  14.638  0.0142 -1.6864 -1.1957
15366TIP3    H267514   0.873   1.921  14.666  1.5927 -0.4334  0.7049
15367TIP3   OH267515   0.272   0.046   5.006 -0.2629  0.1586  0.2261
15367TIP3    H167516   0.356   0.029   5.048 -0.7810 -1.1825  0.7504
15367TIP3    H267517   0.259   0.140   5.016  0.4639  0.1341  1.5173
15368TIP3   OH267518   6.608   5.240  16.297  0.1611  0.4776  0.0424
15368TIP3    H167519   6.654   5.177  16.352 -1.2338 -0.9994 -0.4383
15368TIP3    H267520   6.518   5.208  16.294  0.3762 -0.0444 -3.9142
15369TIP3   OH267521   6.311   6.066  16.408  0.3270 -0.9946 -0.0856
15369TIP3    H167522   6.346   6.155  16.399 -2.2246  0.1813  0.8938
15369TIP3    H267523   6.318   6.028  16.320  1.2831  0.2396 -0.5527
15370TIP3   OH267524   2.771   1.861   6.183 -0.2066  0.0508 -0.0016
15370TIP3    H167525   2.847   1.867   6.240  0.0711  0.2507 -0.3885
15370TIP3    H267526   2.704   1.817   6.235  0.2781 -0.4018  0.2327
15371TIP3   OH267527   1.657   6.283  16.650  0.0831 -0.0647  0.1279
15371TIP3    H167528   1.659   6.351  16.717 -0.9560 -0.8065  0.9284
15371TIP3    H267529   1.744   6.242  16.655  0.0180 -0.1070  1.0131
15372TIP3   OH267530   0.190   4.717   0.890  0.1987 -0.2804 -0.0703
15372TIP3    H167531   0.192   4.644   0.828  1.3836 -0.2249 -0.1205
15372TIP3    H267532   0.107   4.708   0.936 -0.1631 -1.0105 -0.8483
15373TIP3   OH267533   0.035   4.355  15.219  0.3868  0.0706  0.5928
15373TIP3    H167534   0.019   4.272  15.265  0.4142  0.0277  0.5240
15373TIP3    H267535   0.130   4.355  15.203  0.7430  1.1352  2.5724
15374TIP3   OH267536   3.812   3.683   0.243  0.8667  0.4089  0.1188
15374TIP3    H167537   3.815   3.599   0.198  1.5678 -0.2284  1.3316
15374TIP3    H267538   3.891   3.684   0.297  0.4876  1.5266  0.6667
15375TIP3   OH267539   2.776   4.750  16.710  0.3566  0.2381  0.6686
15375TIP3    H167540   2.748   4.791  16.792 -1.9303 -2.4942  1.3653
15375TIP3    H267541   2.836   4.680  16.737 -1.5736 -1.6582  0.2278
15376TIP3   OH267542   1.540   5.477  12.722  0.0337 -0.3039  0.0266
15376TIP3    H167543   1.601   5.406  12.704  0.3537 -0.5183  1.8730
15376TIP3    H267544   1.485   5.482  12.644  0.1368 -2.4288 -0.1952
15377TIP3   OH267545   1.775   3.715  15.313 -0.0353 -0.4501 -0.2324
15377TIP3    H167546   1.815   3.630  15.296  1.4322  0.2903 -0.5818
15377TIP3    H267547   1.846   3.767  15.351 -0.5305  1.0655 -1.3691
15378TIP3   OH267548   5.909   4.296   5.360 -0.6119 -0.0155  0.3261
15378TIP3    H167549   5.904   4.238   5.437 -0.9198  0.7028  0.8557
15378TIP3    H267550   5.846   4.366   5.379  0.6737  1.1634  0.2652
15379TIP3   OH267551   1.587   1.941   3.133 -0.6045  0.6525 -0.0248
15379TIP3    H167552   1.559   1.851   3.118  0.7092  0.3999 -1.1518
15379TIP3    H267553   1.669   1.933   3.182  0.4428  1.1328 -1.6256
15380TIP3   OH267554   5.879   4.061  12.390 -0.1888  0.8651  0.1767
15380TIP3    H167555   5.914   4.046  12.302  0.0418  2.5144 -0.0336
15380TIP3    H267556   5.837   3.978  12.414  0.7830  0.0124 -0.9990
15381TIP3   OH267557   5.424   3.412   1.591 -0.2501 -0.5901  0.6261
15381TIP3    H167558   5.344   3.398   1.542  0.6836  1.6782 -1.6232
15381TIP3    H267559   5.490   3.359   1.546  0.4049  0.7918 -0.0900
15382TIP3   OH267560   5.538   0.378  14.504 -0.5766  0.0275 -0.3005
15382TIP3    H167561   5.621   0.331  14.490 -0.6835 -0.8153  1.6922
15382TIP3    H267562   5.565   0.465  14.533 -0.3444 -0.6191  1.5244
15383TIP3   OH267563   0.507   6.420  11.306  0.0217 -0.0152 -0.4048
15383TIP3    H167564   0.581   6.477  11.283 -0.2973  0.8131  0.6127
15383TIP3    H267565   0.436   6.480  11.329 -0.4991 -0.8167  0.1194
15384TIP3   OH267566   3.573   6.703  13.904 -0.2836 -0.3707  0.4950
15384TIP3    H167567   3.512   6.659  13.962 -3.1627  1.2157 -1.1650
15384TIP3    H267568   3.575   6.649  13.825 -0.6383  0.2816  0.0283
15385TIP3   OH267569   4.394   4.881   2.836 -0.5755  0.3701 -0.4129
15385TIP3    H167570   4.342   4.961   2.834  0.1878  0.8880  0.2492
15385TIP3    H267571   4.411   4.861   2.744  0.4647  1.7768 -0.5341
15386TIP3   OH267572   0.741   6.357  17.075 -0.2879  0.1060 -0.1740
15386TIP3    H167573   0.705   6.282  17.123 -0.2590 -0.1221 -0.5102
15386TIP3    H267574   0.667   6.390  17.024 -0.0756 -0.2287 -0.6961
15387TIP3   OH267575   2.211   4.979   2.557  0.6017 -0.1455 -0.5209
15387TIP3    H167576   2.249   4.893   2.536  0.5607 -0.5082  0.8147
15387TIP3    H267577   2.281   5.041   2.540  1.4247 -0.6903  0.7654
15388TIP3   OH267578   1.925   4.948  15.065 -0.0947  0.0096  0.1003
15388TIP3    H167579   1.877   5.026  15.038 -1.0877 -0.6770 -0.1681
15388TIP3    H267580   1.983   4.978  15.134  2.8239  1.9096 -3.0094
15389TIP3   OH267581   6.204   6.482   5.151  0.0616  0.2326  0.2172
15389TIP3    H167582   6.260   6.406   5.163  0.0407 -0.1786 -2.0270
15389TIP3    H267583   6.258   6.557   5.177  0.4761 -0.4356  1.3068
15390TIP3   OH267584   5.612   4.572  16.423  0.3316 -0.4999  0.0928
15390TIP3    H167585   5.546   4.533  16.480 -1.8387  1.3999 -1.0206
15390TIP3    H267586   5.627   4.659  16.459  0.4403 -0.0420 -1.0314
15391TIP3   OH267587   1.140   1.924  16.126 -0.4678 -0.4181 -0.6759
15391TIP3    H167588   1.233   1.945  16.128 -0.6691  0.4465  1.6443
15391TIP3    H267589   1.104   1.979  16.056  0.4087  0.9256 -0.0941
15392TIP3   OH267590   5.315   5.183  15.384 -0.2859 -0.1359  0.2691
15392TIP3    H167591   5.298   5.276  15.369  0.1781 -0.0276  0.4342
15392TIP3    H267592   5.260   5.161  15.459 -0.4260 -0.0047  0.2060
15393TIP3   OH267593   3.119   3.767   4.966 -0.6259 -0.1844  0.1624
15393TIP3    H167594   3.126   3.748   5.060 -1.3083 -1.2208  0.0186
15393TIP3    H267595   3.185   3.710   4.926 -1.1873 -0.6639 -0.0871
15394TIP3   OH267596   0.534   0.326   0.129 -0.1986 -0.2823  0.2685
15394TIP3    H167597   0.501   0.379   0.055  1.4819 -1.0935 -1.0994
15394TIP3    H267598   0.501   0.371   0.207  0.0408  1.9971 -0.9091
15395TIP3   OH267599   3.219   1.393   1.673 -0.2824  0.3124 -0.5146
15395TIP3    H167600   3.309   1.407   1.704 -0.7988 -1.5440  2.0097
15395TIP3    H267601   3.229   1.357   1.585  1.5163 -0.9693  0.1776
15396TIP3   OH267602   2.765   2.262  13.019 -0.3545  0.1984 -0.1536
15396TIP3    H167603   2.756   2.338  12.960 -1.2018 -0.4459 -0.8735
15396TIP3    H267604   2.859   2.244  13.021 -0.0102  2.0042  0.9702
15397TIP3   OH267605   2.567   2.608  15.828  0.3558 -0.3174  0.2124
15397TIP3    H167606   2.525   2.568  15.751 -0.4566  0.3458  0.2984
15397TIP3    H267607   2.593   2.695  15.798 -0.2037  0.0420  0.7642
15398TIP3   OH267608   6.475   3.160   3.540  0.0114 -0.1171  0.2620
15398TIP3    H167609   6.400   3.101   3.534  0.0015 -0.5859  3.9463
15398TIP3    H267610   6.541   3.121   3.482 -2.0360 -0.4661 -1.9139
15399TIP3   OH267611   0.617   1.307   0.227  0.4166  0.3665 -0.7891
15399TIP3    H167612   0.612   1.382   0.169 -1.1965  0.1312 -0.9865
15399TIP3    H267613   0.660   1.239   0.175 -3.1302 -0.6173 -2.6427
15400TIP3   OH267614   3.307   0.959  14.981 -0.1006  0.0949  0.2453
15400TIP3    H167615   3.314   1.046  14.941  0.9883  0.1604  0.5759
15400TIP3    H267616   3.397   0.935  15.001 -0.3063 -1.5424 -0.7541
15401TIP3   OH267617   2.144   3.768   2.547  0.2236 -0.3375 -0.3843
15401TIP3    H167618   2.089   3.846   2.535 -0.4659 -0.9996 -1.6454
15401TIP3    H267619   2.165   3.768   2.640 -1.2682  0.3653 -0.0310
15402TIP3   OH267620   0.242   4.002  13.700  0.0470  0.0188 -0.3661
15402TIP3    H167621   0.183   4.071  13.670  0.3446  0.4883  0.1378
15402TIP3    H267622   0.330   4.037  13.688  0.2340 -0.7314 -1.2372
15403TIP3   OH267623   2.793   1.805  17.059  0.1165 -0.2787 -0.3714
15403TIP3    H167624   2.784   1.772  16.970 -1.0731 -0.1280 -0.3138
15403TIP3    H267625   2.855   1.878  17.052  0.8058 -0.9099 -0.9009
15404TIP3   OH267626   0.106   2.031  16.887  0.1093 -0.1071  0.4364
15404TIP3    H167627   0.111   2.002  16.796 -1.0794 -2.1855  0.9850
15404TIP3    H267628   0.160   1.969  16.935  1.1828  1.3119  1.0995
15405TIP3   OH267629   5.875   0.995  15.121  0.0855  0.3858 -0.0655
15405TIP3    H167630   5.794   0.998  15.070 -1.1610 -1.0689  1.7884
15405TIP3    H267631   5.851   1.035  15.205  1.5572  0.8482  0.1373
15406TIP3   OH267632   4.901   6.492  11.019 -0.1001  0.1819 -0.3380
15406TIP3    H167633   4.920   6.551  11.092  0.0360  0.4166 -0.5623
15406TIP3    H267634   4.978   6.436  11.013 -0.8819 -1.0560  0.8768
15407TIP3   OH267635   2.669   2.486   3.557 -0.2799  0.1903  0.4435
15407TIP3    H167636   2.760   2.457   3.553  0.4741  2.1828  2.5539
15407TIP3    H267637   2.620   2.405   3.574  1.1630 -0.7444  0.2890
15408TIP3   OH267638   5.490   4.034   5.439 -0.1690 -0.8189 -0.3414
15408TIP3    H167639   5.526   3.984   5.512  1.0380 -0.2952 -0.5536
15408TIP3    H267640   5.397   4.012   5.437 -0.4438  0.0449  2.0743
15409TIP3   OH267641   6.065   2.455   3.801  0.4333  0.3732  0.3981
15409TIP3    H167642   5.987   2.429   3.752 -0.3943  0.0119  1.8935
15409TIP3    H267643   6.137   2.411   3.755 -0.3058  0.1774 -0.5987
15410TIP3   OH267644   1.023   2.613  17.142 -0.6067  0.0172 -0.1028
15410TIP3    H167645   0.978   2.651  17.068 -1.8034 -0.8768  0.1523
15410TIP3    H267646   0.954   2.579  17.199  0.3572 -1.5844  0.1796
15411TIP3   OH267647   5.058   3.029   2.542 -0.4669  0.2401  0.0145
15411TIP3    H167648   5.001   2.980   2.601 -0.6251  0.1959 -0.1744
15411TIP3    H267649   4.999   3.088   2.495 -0.1608  1.2272  0.8588
15412TIP3   OH267650   3.846   0.757  14.246 -0.2049  0.2352 -0.4864
15412TIP3    H167651   3.827   0.782  14.156 -0.0551  1.3245 -0.2252
15412TIP3    H267652   3.919   0.696  14.239 -1.6974 -1.5033 -1.2665
15413TIP3   OH267653   6.353   5.351  12.593 -0.0502 -0.1153  0.3896
15413TIP3    H167654   6.393   5.428  12.553  0.8551 -0.1596  1.1873
15413TIP3    H267655   6.279   5.330  12.537  0.0985  0.9362 -0.2055
15414TIP3   OH267656   3.487   0.365  15.994  0.8738  0.6220  0.4059
15414TIP3    H167657   3.411   0.421  15.980  0.8201  0.2369 -0.8778
15414TIP3    H267658   3.528   0.357  15.908  2.6528  1.2051  1.1755
15415TIP3   OH267659   1.789   3.336  13.248 -0.1583  0.1864 -0.7281
15415TIP3    H167660   1.852   3.264  13.252  1.6948  1.5510 -3.3632
15415TIP3    H267661   1.843   3.415  13.244 -2.1057  1.5775 -0.5626
15416TIP3   OH267662   0.676   0.596   1.990 -0.8822  0.1194  0.3350
15416TIP3    H167663   0.629   0.530   2.041 -2.0106 -0.0462 -0.8913
15416TIP3    H267664   0.683   0.559   1.902  2.6575 -0.3972  0.7607
15417TIP3   OH267665   1.581   6.544  16.991 -0.3367 -0.2129 -0.0246
15417TIP3    H167666   1.551   6.494  17.067 -0.8444  2.2117  1.4533
15417TIP3    H267667   1.500   6.578  16.951  0.0542  0.7565 -0.0184
15418TIP3   OH267668   4.786   3.616   5.662  0.0289  0.4577 -0.2777
15418TIP3    H167669   4.877   3.588   5.660 -0.8765 -2.6070 -1.8190
15418TIP3    H267670   4.758   3.601   5.753  0.8377  0.7697  0.0260
15419TIP3   OH267671   5.776   1.920   2.726  0.6736  0.3992 -0.0158
15419TIP3    H167672   5.860   1.965   2.724  0.6611  0.3845 -1.8504
15419TIP3    H267673   5.715   1.985   2.764  1.2304  0.8839  0.0524
15420TIP3   OH267674   2.577   4.027   1.737 -0.2144 -0.3152  0.4714
15420TIP3    H167675   2.557   4.100   1.679  0.0627  0.4422  1.3169
15420TIP3    H267676   2.493   4.000   1.773  0.2303  3.4878  4.7756
15421TIP3   OH267677   5.795   6.583   3.738 -0.1951 -0.0650  0.0103
15421TIP3    H167678   5.755   6.644   3.800  1.7604 -0.2299  1.4375
15421TIP3    H267679   5.801   6.633   3.656 -0.6459  0.9063  0.5628
15422TIP3   OH267680   0.961   2.480   5.277  0.8199 -0.3632 -0.1612
15422TIP3    H167681   0.876   2.439   5.265 -0.3689  1.4766  1.6037
15422TIP3    H267682   0.987   2.455   5.365  1.2858  0.5121 -0.0459
15423TIP3   OH267683   3.548   2.918  11.359  0.0296  0.0967 -0.2373
15423TIP3    H167684   3.627   2.970  11.375  0.1685  0.4223 -1.8980
15423TIP3    H267685   3.525   2.883  11.445  2.5730 -0.8544  0.1185
15424TIP3   OH267686   4.034   1.848   5.617 -0.0757  0.0691 -0.0296
15424TIP3    H167687   4.085   1.801   5.551 -0.2580 -1.2950  0.7771
15424TIP3    H267688   4.055   1.940   5.603  2.0122 -0.4134 -0.2050
15425TIP3   OH267689   6.177   3.485  16.464 -0.2708 -0.3659 -0.1574
15425TIP3    H167690   6.258   3.452  16.424  0.0294 -1.4666  1.3383
15425TIP3    H267691   6.123   3.512  16.390  0.7117 -1.3658 -1.2522
15426TIP3   OH267692   0.091   1.327   1.189  0.1560  0.1139 -0.1855
15426TIP3    H167693   0.147   1.301   1.262  1.7043  0.2452 -1.3052
15426TIP3    H267694   0.012   1.363   1.231 -0.2925 -2.5826  1.3949
15427TIP3   OH267695   6.194   0.069   2.891 -0.6016 -0.2456  0.4909
15427TIP3    H167696   6.169   0.160   2.876  0.0582 -0.1957 -0.3103
15427TIP3    H267697   6.251   0.071   2.968 -0.3104  0.0560  0.2648
15428TIP3   OH267698   2.321   5.278   4.646 -0.7367 -0.1706 -0.4681
15428TIP3    H167699   2.296   5.286   4.739 -0.4639 -0.8153 -0.3334
15428TIP3    H267700   2.417   5.282   4.647 -0.7143 -0.6774 -0.6695
15429TIP3   OH267701   2.852   5.779  12.552 -0.3869  0.9728  0.4777
15429TIP3    H167702   2.918   5.842  12.523 -1.3190  1.6356 -0.2306
15429TIP3    H267703   2.847   5.715  12.481 -0.2786  0.7462  0.6722
15430TIP3   OH267704   3.486   2.954   5.627 -0.8901 -0.2927  0.6031
15430TIP3    H167705   3.466   2.865   5.656 -0.6047 -1.0222 -1.3475
15430TIP3    H267706   3.435   2.965   5.547 -0.0558  0.8864  0.2140
15431TIP3   OH267707   3.532   6.549  13.658 -0.3612  0.2071  0.7131
15431TIP3    H167708   3.597   6.557  13.588 -0.8485 -1.2892  0.0807
15431TIP3    H267709   3.448   6.539  13.613 -0.8523  0.5886  1.5202
15432TIP3   OH267710   6.500   6.584   2.345  0.1030 -0.3584 -0.5092
15432TIP3    H167711   6.594   6.595   2.328 -0.1793 -0.0613 -1.9181
15432TIP3    H267712   6.477   6.658   2.401  0.5577 -0.0297 -0.7559
15433TIP3   OH267713   2.732   5.552  12.911 -0.9017 -0.9535 -0.6882
15433TIP3    H167714   2.644   5.578  12.883 -0.6473 -0.8725 -1.4175
15433TIP3    H267715   2.732   5.566  13.006 -0.9850  1.1037 -0.9597
15434TIP3   OH267716   6.534   4.141  13.778 -0.1101 -0.2370 -0.5250
15434TIP3    H167717   6.578   4.110  13.857  0.2460 -0.8669 -0.9638
15434TIP3    H267718   6.462   4.195  13.810  0.1552 -0.3236  0.2255
15435TIP3   OH267719   5.691   2.701   1.763  0.6160  0.5764  0.1689
15435TIP3    H167720   5.620   2.656   1.716  0.9338 -0.7203  0.8989
15435TIP3    H267721   5.653   2.724   1.847  1.2198 -0.6467  0.7890
15436TIP3   OH267722   0.146   2.065  15.921  0.5892  0.3249  0.4559
15436TIP3    H167723   0.115   2.000  15.984  0.7965  1.0202  1.2817
15436TIP3    H267724   0.228   2.098  15.959  0.4388  1.1296  0.0901
15437TIP3   OH267725   3.539   2.905   3.057  0.6239 -0.2551 -0.1886
15437TIP3    H167726   3.550   2.826   3.004 -0.5836 -2.1456  2.2551
15437TIP3    H267727   3.449   2.900   3.089  1.0109  1.3398  1.2265
15438TIP3   OH267728   0.219   1.230   6.651 -0.0593 -0.7162 -0.1964
15438TIP3    H167729   0.297   1.285   6.659 -1.6143  1.6547 -0.7348
15438TIP3    H267730   0.221   1.174   6.728  1.1184  0.7158  0.8460
15439TIP3   OH267731   2.176   6.702   5.702  0.1676  0.2076 -0.4687
15439TIP3    H167732   2.106   6.762   5.674 -1.3409 -0.5797  1.5427
15439TIP3    H267733   2.239   6.705   5.630 -1.6926  1.3108 -2.1237
15440TIP3   OH267734   0.286   3.605   4.720  0.6487 -0.2319  0.1114
15440TIP3    H167735   0.314   3.572   4.806 -1.0500  0.6263  1.0162
15440TIP3    H267736   0.218   3.544   4.692  0.9321 -0.2901 -0.4711
15441TIP3   OH267737   6.546   3.431  15.176 -0.3963 -0.1988 -0.4145
15441TIP3    H167738   6.542   3.461  15.267  0.6659  0.3360 -0.5403
15441TIP3    H267739   6.603   3.494  15.132  0.9588 -1.7419 -0.9274
15442TIP3   OH267740   4.764   0.526   6.447 -0.0200  0.1469  0.2082
15442TIP3    H167741   4.758   0.599   6.386  0.1897 -0.5514 -0.6615
15442TIP3    H267742   4.856   0.521   6.471  0.1303 -0.4216 -0.4727
15443TIP3   OH267743   4.459   1.253  15.240  0.2533  0.2882  0.1217
15443TIP3    H167744   4.554   1.239  15.231  0.4980  2.3175 -0.7934
15443TIP3    H267745   4.452   1.344  15.269 -1.4513  0.2849 -0.2748
15444TIP3   OH267746   3.787   6.418   0.707 -0.4769  0.0630  0.7045
15444TIP3    H167747   3.702   6.460   0.720 -0.5225 -0.1231  1.0060
15444TIP3    H267748   3.848   6.471   0.758 -0.6875 -0.7813  1.8415
15445TIP3   OH267749   2.410   5.685   3.883  0.2147  0.4780  0.4959
15445TIP3    H167750   2.457   5.679   3.799 -1.0975 -0.3408 -0.1980
15445TIP3    H267751   2.434   5.771   3.917  1.2474  0.5787 -0.4299
15446TIP3   OH267752   3.052   1.848   2.679 -0.6288 -0.3802  0.2935
15446TIP3    H167753   3.063   1.837   2.773 -0.6435  2.9747  0.7504
15446TIP3    H267754   3.123   1.796   2.641  2.3372  1.9926  2.3618
15447TIP3   OH267755   5.772   0.223  14.009  0.3068  0.1998 -0.1451
15447TIP3    H167756   5.715   0.253  13.938 -0.2704 -1.4756 -0.4053
15447TIP3    H267757   5.739   0.268  14.087 -0.1921  0.6642 -0.6191
15448TIP3   OH267758   6.210   4.848   3.342  0.0450  0.7622 -0.3070
15448TIP3    H167759   6.191   4.897   3.423 -0.7456 -1.5236  0.9347
15448TIP3    H267760   6.291   4.801   3.361 -0.4208 -0.1826 -0.6453
15449TIP3   OH267761   5.374   2.876  12.998  0.7295  0.5842 -0.9428
15449TIP3    H167762   5.465   2.899  13.018  1.1215 -0.5321 -1.4017
15449TIP3    H267763   5.354   2.806  13.060 -0.4651  2.1419  0.4846
15450TIP3   OH267764   5.219   1.203  10.857 -0.8026  0.1378 -0.0579
15450TIP3    H167765   5.307   1.195  10.895 -0.1476  0.9381 -1.3507
15450TIP3    H267766   5.186   1.113  10.855  0.8422 -0.4796 -1.4561
15451TIP3   OH267767   2.576   6.434   5.076 -0.0552 -0.1078  0.2177
15451TIP3    H167768   2.539   6.386   5.150  0.4154 -0.8872 -0.0462
15451TIP3    H267769   2.671   6.429   5.090 -0.0091  1.0932  0.4037
15452TIP3   OH267770   0.230   0.308   1.715  0.1728 -0.4420 -0.0105
15452TIP3    H167771   0.176   0.373   1.760  0.7832 -0.6612  1.0628
15452TIP3    H267772   0.168   0.256   1.664 -0.3018  1.1068 -1.0479
15453TIP3   OH267773   3.419   4.379   5.087 -0.4684  0.3846 -0.0692
15453TIP3    H167774   3.481   4.332   5.032  1.5452 -0.0278  2.4323
15453TIP3    H267775   3.334   4.364   5.046  0.6007 -2.2867 -1.4382
15454TIP3   OH267776   1.226   5.534  15.621  0.8943 -0.1291 -0.3293
15454TIP3    H167777   1.138   5.548  15.656  0.5136  1.8514 -1.9813
15454TIP3    H267778   1.257   5.455  15.665 -0.8756  0.3486  1.8795
15455TIP3   OH267779   2.822   1.875   1.744  0.2596  0.0725  0.2578
15455TIP3    H167780   2.916   1.860   1.752  0.3686  1.0517  0.8573
15455TIP3    H267781   2.791   1.802   1.690  1.2412 -0.6425  0.6401
15456TIP3   OH267782   6.660   0.664   4.872 -0.5166  0.5432  0.7009
15456TIP3    H167783   6.756   0.663   4.879 -0.3118  2.9398 -1.0103
15456TIP3    H267784   6.641   0.599   4.804  0.1529  2.0638 -0.9806
15457TIP3   OH267785   4.531   6.308  13.499  0.4220 -0.2830  0.3188
15457TIP3    H167786   4.582   6.385  13.475 -2.3235  1.9231  1.2382
15457TIP3    H267787   4.522   6.258  13.418 -0.7310  2.1919 -1.1211
15458TIP3   OH267788   2.063   6.211  16.813  0.4419  0.1312  0.3362
15458TIP3    H167789   1.982   6.230  16.766  0.1649 -0.4231  0.5799
15458TIP3    H267790   2.132   6.250  16.759  0.1088 -0.3319 -0.4273
15459TIP3   OH267791   5.278   0.133   1.147  0.1724  0.0433  0.5898
15459TIP3    H167792   5.291   0.103   1.237 -0.8688 -1.0014  0.4001
15459TIP3    H267793   5.314   0.064   1.093 -2.0866 -0.8384  0.1536
15460TIP3   OH267794   4.885   2.123   2.328 -0.3974 -0.5006  0.0677
15460TIP3    H167795   4.864   2.217   2.334  3.1972  0.2926  1.4492
15460TIP3    H267796   4.801   2.079   2.340 -2.4191  2.5417 -2.1610
15461TIP3   OH267797   0.520   5.263  12.945 -0.4011 -0.3471 -0.4286
15461TIP3    H167798   0.536   5.342  12.892 -1.6528  0.8659  0.9460
15461TIP3    H267799   0.528   5.191  12.883  2.1164  0.7378 -1.4588
15462TIP3   OH267800   3.012   1.892   4.077 -0.5222 -0.3805 -0.4149
15462TIP3    H167801   2.944   1.905   4.010 -0.9610 -1.7551 -0.2475
15462TIP3    H267802   2.963   1.889   4.160 -0.4656 -2.9691 -0.4294
15463TIP3   OH267803   4.208   0.252  11.253 -0.5865  0.5904 -0.4148
15463TIP3    H167804   4.147   0.200  11.201  0.5304 -0.0918 -1.0628
15463TIP3    H267805   4.263   0.188  11.298 -0.4216  1.1923  0.2528
15464TIP3   OH267806   5.831   2.266  14.887  0.2735 -0.0570  0.2018
15464TIP3    H167807   5.736   2.275  14.879  0.1236 -0.5280  1.3681
15464TIP3    H267808   5.844   2.211  14.964  1.5532  2.1375  1.6273
15465TIP3   OH267809   6.669   2.116   0.387  0.0341  0.5666  0.3889
15465TIP3    H167810   6.618   2.043   0.423  0.0302  0.0703 -0.5902
15465TIP3    H267811   6.607   2.165   0.334  0.1627  0.9754  0.6177
15466TIP3   OH267812   0.375   1.771   1.886 -0.3816  0.2788 -0.4269
15466TIP3    H167813   0.311   1.701   1.875  0.7317 -0.7460 -0.5763
15466TIP3    H267814   0.324   1.852   1.885 -1.9694 -0.6596  2.3703
15467TIP3   OH267815   5.049   1.227   2.317  0.4851  0.1259  0.0637
15467TIP3    H167816   5.098   1.156   2.358 -0.2747  0.5792  1.7868
15467TIP3    H267817   4.966   1.188   2.292  1.5092 -0.5536 -2.5513
15468TIP3   OH267818   1.287   4.764   5.846 -0.3023  0.4668  0.0863
15468TIP3    H167819   1.227   4.839   5.847 -0.9502 -0.0466 -0.3197
15468TIP3    H267820   1.241   4.696   5.896 -0.2729 -0.0915 -0.6479
15469TIP3   OH267821   4.037   1.417   4.062  0.6123 -0.2698 -0.5987
15469TIP3    H167822   4.114   1.389   4.111  0.2320  0.1569  0.2476
15469TIP3    H267823   4.043   1.512   4.060 -0.0589 -0.2190 -0.2563
15470TIP3   OH267824   1.493   4.352  15.953  0.4557  0.4609 -0.6048
15470TIP3    H167825   1.426   4.418  15.935  0.7326  0.5924 -1.1627
15470TIP3    H267826   1.477   4.283  15.887  1.7854  1.1765 -1.7053
15471TIP3   OH267827   6.460   5.325  13.936 -0.4834 -0.5326  0.0771
15471TIP3    H167828   6.416   5.410  13.939  1.6312  0.6170 -0.4331
15471TIP3    H267829   6.552   5.345  13.954 -0.2348 -2.9569  1.7341
15472TIP3   OH267830   4.519   3.500   0.012  0.0932 -0.8193 -0.8395
15472TIP3    H167831   4.463   3.573   0.039  1.8054  0.0309  0.5188
15472TIP3    H267832   4.481   3.424   0.054  0.0939 -0.1976  0.3138
15473TIP3   OH267833   6.031   6.064  15.606  0.2701  0.3551  0.8728
15473TIP3    H167834   6.030   6.133  15.673 -2.7070  1.1528  0.0915
15473TIP3    H267835   6.119   6.069  15.568  1.0085  1.8816  2.6947
15474TIP3   OH267836   0.242   0.913  17.107 -0.1513  0.6226  0.3087
15474TIP3    H167837   0.264   0.832  17.152 -0.6681  1.0150  1.2866
15474TIP3    H267838   0.266   0.898  17.016  0.7512 -0.2429  0.6863
15475TIP3   OH267839   1.056   3.452  11.654 -0.0267 -0.2688  1.2846
15475TIP3    H167840   1.059   3.516  11.584 -1.8540  1.0696  2.3786
15475TIP3    H267841   1.142   3.411  11.654  0.8539  1.5523 -0.0140
15476TIP3   OH267842   0.638   2.523   5.628  0.1384 -0.2349  0.1956
15476TIP3    H167843   0.726   2.524   5.592 -1.1499  0.2690 -3.1194
15476TIP3    H267844   0.603   2.437   5.605 -0.0864 -0.6009  1.8800
15477TIP3   OH267845   1.514   0.202   3.386  0.2573  0.3753  0.6658
15477TIP3    H167846   1.588   0.261   3.403 -0.6564  1.6523  0.2542
15477TIP3    H267847   1.445   0.259   3.353 -0.6805 -0.9206  0.3613
15478TIP3   OH267848   1.190   5.250  14.644  0.7082 -0.0026  0.3086
15478TIP3    H167849   1.156   5.321  14.591 -0.4682 -1.0405 -0.3503
15478TIP3    H267850   1.282   5.241  14.616  0.1051 -0.5422 -1.5910
15479TIP3   OH267851   4.946   6.439  13.764  0.1573  0.2065 -0.1578
15479TIP3    H167852   5.023   6.467  13.814 -0.3836 -0.8188  1.2659
15479TIP3    H267853   4.930   6.512  13.703  0.8120  1.4974  1.1722
15480TIP3   OH267854   2.522   2.433   0.804 -0.6490 -0.2090 -0.3715
15480TIP3    H167855   2.516   2.494   0.878  0.1974 -0.3275 -0.2057
15480TIP3    H267856   2.431   2.409   0.785 -1.2340  2.9744 -1.9916
15481TIP3   OH267857   1.593   1.580  12.388 -0.0476  0.1684 -0.4640
15481TIP3    H167858   1.673   1.600  12.339  0.2485  1.6029  0.5597
15481TIP3    H267859   1.563   1.665  12.420 -1.4993 -0.4697 -0.0961
15482TIP3   OH267860   6.112   4.767   3.076  0.1637 -0.4416 -0.3147
15482TIP3    H167861   6.131   4.797   3.165 -2.8391 -2.1756  0.9990
15482TIP3    H267862   6.032   4.814   3.052  2.3249  1.9893 -3.2167
15483TIP3   OH267863   3.084   2.267   1.539 -0.2838  0.1051 -0.0035
15483TIP3    H167864   3.069   2.189   1.593 -1.8919 -0.1238 -0.7395
15483TIP3    H267865   3.177   2.265   1.519 -0.1048 -1.0373  0.9033
15484TIP3   OH267866   0.247   5.338  17.109 -0.2549  0.3093 -0.3067
15484TIP3    H167867   0.297   5.278  17.054  0.4784  0.7732 -0.1513
15484TIP3    H267868   0.309   5.366  17.177 -0.5457  1.3397 -0.4551
15485TIP3   OH267869   3.749   0.046  11.899  0.2358 -0.0407 -0.6466
15485TIP3    H167870   3.708  -0.038  11.883  3.9753 -2.4223  1.3248
15485TIP3    H267871   3.715   0.073  11.984 -0.6527  0.2298 -1.0875
15486TIP3   OH267872   1.874   0.726   3.275  0.0745  0.4055 -0.2933
15486TIP3    H167873   1.920   0.781   3.338 -1.0264  0.7567  0.1974
15486TIP3    H267874   1.931   0.649   3.265  0.1288  0.2287  1.3151
15487TIP3   OH267875   3.366   2.231   4.057  0.1921 -0.1124 -0.2128
15487TIP3    H167876   3.301   2.286   4.013  0.1042 -0.2331 -0.2328
15487TIP3    H267877   3.400   2.286   4.127 -0.8345 -0.4875  0.5807
15488TIP3   OH267878   2.997   5.738   3.871 -0.1565 -0.2949  0.4203
15488TIP3    H167879   3.064   5.757   3.937 -0.5697  0.4131  0.6429
15488TIP3    H267880   2.974   5.823   3.834  0.2734 -0.7262 -0.8513
15489TIP3   OH267881   3.800   0.318   4.064  0.0779  0.1491 -0.1237
15489TIP3    H167882   3.837   0.251   4.121  1.7206  0.3524 -0.9035
15489TIP3    H267883   3.771   0.387   4.124 -0.7281 -0.8256  0.6154
15490TIP3   OH267884   4.630   4.005   0.992  0.2156  0.2983 -0.5801
15490TIP3    H167885   4.679   4.065   0.936  2.8920 -0.6582  0.6759
15490TIP3    H267886   4.594   4.061   1.061  0.7064  0.8211 -0.7400
15491TIP3   OH267887   4.912   2.129   5.087 -0.1931  0.1355 -0.0932
15491TIP3    H167888   4.880   2.160   5.002 -0.1205  1.0380  0.2017
15491TIP3    H267889   4.911   2.207   5.143 -0.8430 -0.5839  0.9162
15492TIP3   OH267890   6.322   3.149   0.568 -0.2634  0.1037  0.5893
15492TIP3    H167891   6.320   3.110   0.480 -3.7273  0.7975  0.2989
15492TIP3    H267892   6.284   3.082   0.624 -1.4319  1.0475  0.9379
15493TIP3   OH267893   3.430   0.269  12.417  0.2618 -0.5171  1.0441
15493TIP3    H167894   3.340   0.263  12.448  0.3394 -0.8730  1.2046
15493TIP3    H267895   3.450   0.362  12.418 -0.4458 -0.3542  0.0233
15494TIP3   OH267896   4.786   0.661   0.803  0.1666 -0.1238 -0.7456
15494TIP3    H167897   4.876   0.647   0.772  0.2424 -0.8313 -0.2025
15494TIP3    H267898   4.794   0.728   0.871  0.6079 -1.9084  1.0024
15495TIP3   OH267899   5.582   1.683   4.093  0.1603 -0.2969 -0.1006
15495TIP3    H167900   5.554   1.761   4.142 -1.1717 -0.3099 -0.8214
15495TIP3    H267901   5.643   1.639   4.152 -0.1431  0.5670  0.8816
15496TIP3   OH267902   0.573   0.108   2.895  0.4300  0.0187  0.6706
15496TIP3    H167903   0.619   0.115   2.979  2.3095  0.7206 -0.3718
15496TIP3    H267904   0.640   0.130   2.830 -0.8636 -1.0118 -1.0467
15497TIP3   OH267905   4.966   4.182  12.327 -0.3236  0.3786  0.4359
15497TIP3    H167906   4.954   4.088  12.314 -0.5961  0.4039  0.5102
15497TIP3    H267907   5.060   4.195  12.317 -0.2236  0.0223  0.9161
15498TIP3   OH267908   5.116   4.774   3.432 -0.4629  0.5332 -0.2366
15498TIP3    H167909   5.049   4.804   3.493 -2.4768 -2.1409 -1.0524
15498TIP3    H267910   5.175   4.720   3.484 -1.9590 -1.4225 -0.5091
15499TIP3   OH267911   4.435   2.099   4.389  0.1250 -0.4011 -0.2451
15499TIP3    H167912   4.454   2.113   4.482  0.9061 -1.2023 -0.2827
15499TIP3    H267913   4.446   2.005   4.375  0.1964 -0.2635 -1.1910
15500TIP3   OH267914   3.564   6.081   2.564  0.2252  0.0293  0.5054
15500TIP3    H167915   3.645   6.031   2.574  0.2300  0.2382  1.6419
15500TIP3    H267916   3.562   6.138   2.641  0.6247  2.3605 -1.1510
15501TIP3   OH267917   6.504   0.896  14.596 -0.6394  0.2404 -0.2550
15501TIP3    H167918   6.502   0.800  14.597 -0.2603  0.2322  0.0054
15501TIP3    H267919   6.573   0.918  14.534 -0.2302  0.3327  0.2267
15502TIP3   OH267920   0.206   1.208   0.095 -0.0352  0.2387  0.1601
15502TIP3    H167921   0.149   1.150   0.044  0.2849 -0.2337  0.3292
15502TIP3    H267922   0.157   1.289   0.104 -0.4199  0.0506 -0.2302
15503TIP3   OH267923   6.067   5.575  14.069 -0.3982 -0.0027 -0.3793
15503TIP3    H167924   6.070   5.479  14.064 -1.1132 -0.0456  0.0000
15503TIP3    H267925   6.027   5.593  14.153  1.2072  0.6532  0.2574
15504TIP3   OH267926   3.223   2.680  12.711 -0.5263 -0.0279  0.1649
15504TIP3    H167927   3.137   2.639  12.722 -0.5281  0.4380  2.1985
15504TIP3    H267928   3.284   2.618  12.751 -0.1002  0.3125  0.0436
15505TIP3   OH267929   6.704   1.288  14.399 -0.0136  0.2045  0.5860
15505TIP3    H167930   6.649   1.363  14.420 -0.7128 -0.2049  0.2458
15505TIP3    H267931   6.710   1.289  14.303 -1.0880 -0.9029  0.4878
15506TIP3   OH267932   3.062   3.355  15.594  0.7044 -0.3526  0.4443
15506TIP3    H167933   3.137   3.310  15.555 -0.9583 -2.9641  0.1525
15506TIP3    H267934   3.053   3.317  15.681  0.6668  1.1046  1.1008
15507TIP3   OH267935   4.685   2.568   1.712  0.0989 -0.1608  0.1279
15507TIP3    H167936   4.668   2.552   1.619  0.0652 -0.7041  0.2247
15507TIP3    H267937   4.764   2.622   1.714 -1.0014  1.5057 -0.2966
15508TIP3   OH267938   4.484   1.258   5.630  0.8227  0.6982  0.0770
15508TIP3    H167939   4.469   1.276   5.723  1.0395  0.1313  0.2238
15508TIP3    H267940   4.535   1.333   5.600  1.5132  0.4619  0.6336
15509TIP3   OH267941   1.642   3.203  16.464  0.3571  0.1350 -0.7841
15509TIP3    H167942   1.716   3.192  16.523  0.5653  0.6807 -0.9377
15509TIP3    H267943   1.681   3.232  16.382 -0.1174  1.5079 -0.5356
15510TIP3   OH267944   2.023   6.183   0.502  0.1603 -0.5329 -0.1248
15510TIP3    H167945   2.003   6.149   0.589 -0.5543  1.1885  0.4155
15510TIP3    H267946   2.001   6.276   0.508  2.7025  0.1830 -1.3246
15511TIP3   OH267947   4.868   3.948   3.443  0.1818  0.4364  0.1291
15511TIP3    H167948   4.841   4.018   3.503  2.3447  2.0737 -0.7479
15511TIP3    H267949   4.960   3.933   3.464 -0.6563 -3.3738  1.4464
15512TIP3   OH267950   0.080   1.575  12.197 -0.1310 -0.3591 -0.2442
15512TIP3    H167951   0.074   1.559  12.291 -1.3558 -0.1066 -0.2754
15512TIP3    H267952   0.042   1.497  12.157  1.0838 -0.8071 -0.5551
15513TIP3   OH267953   2.667   1.036   1.959  0.5525 -0.1408  0.7396
15513TIP3    H167954   2.724   0.967   1.925 -1.1863 -0.9996 -0.5616
15513TIP3    H267955   2.696   1.115   1.915 -1.1014 -1.0875 -2.2127
15514TIP3   OH267956   0.573   0.864   0.693 -0.0847 -0.1865 -0.3365
15514TIP3    H167957   0.548   0.788   0.640 -1.5509  0.9339 -1.2841
15514TIP3    H267958   0.625   0.827   0.765 -3.2319 -2.4440  0.8634
15515TIP3   OH267959   4.896   1.701   0.271  0.3959  0.1047  0.6838
15515TIP3    H167960   4.817   1.753   0.289 -0.1818 -0.7128  0.5716
15515TIP3    H267961   4.890   1.628   0.333  0.3946 -0.6647 -0.2247
15516TIP3   OH267962   3.334   3.567  14.272 -0.1587  0.4149 -0.4390
15516TIP3    H167963   3.286   3.641  14.307 -1.1373 -0.0376 -0.8263
15516TIP3    H267964   3.376   3.528  14.349 -0.3882  0.8252 -0.1064
15517TIP3   OH267965   4.185   6.185  17.184 -0.8168  0.0507  0.1871
15517TIP3    H167966   4.185   6.155  17.275  0.9794  0.0151  0.1977
15517TIP3    H267967   4.121   6.256  17.182 -2.6067 -1.5016  0.9223
15518TIP3   OH267968   6.559   2.495  14.624  0.4765  0.0988  0.0744
15518TIP3    H167969   6.615   2.468  14.696  0.5968 -0.7104 -0.3223
15518TIP3    H267970   6.550   2.417  14.569 -2.0676 -0.1881  0.8039
15519TIP3   OH267971   3.120   3.577   3.009 -0.1326 -0.3852  0.0370
15519TIP3    H167972   3.122   3.669   3.032  0.3687 -0.5044  0.4790
15519TIP3    H267973   3.212   3.554   2.992 -0.3196 -0.6602 -0.6187
15520TIP3   OH267974   3.442   3.868  12.655 -0.3474 -0.6676  0.0457
15520TIP3    H167975   3.477   3.814  12.726  1.1052  2.4833  1.8432
15520TIP3    H267976   3.381   3.928  12.698 -2.5225 -1.3245 -2.0118
15521TIP3   OH267977   0.317   0.076  12.174  0.6049 -0.2836  0.1920
15521TIP3    H167978   0.294   0.072  12.082  0.3263  1.1463  0.1878
15521TIP3    H267979   0.243   0.119  12.216  0.7522 -0.8806  1.0663
15522TIP3   OH267980   1.677   4.170  16.741  0.4082 -0.0828 -0.0424
15522TIP3    H167981   1.685   4.222  16.661  4.2039  0.3397  0.4957
15522TIP3    H267982   1.686   4.079  16.713  2.3405  0.0987 -0.0764
15523TIP3   OH267983   2.361   1.967  12.718 -0.2805 -0.2252  0.6610
15523TIP3    H167984   2.409   1.987  12.798  0.9664  0.6325 -0.2703
15523TIP3    H267985   2.352   1.872  12.719  1.4927 -0.4081  0.8517
15524TIP3   OH267986   0.742   0.073   3.106 -1.1679 -0.6106  0.0167
15524TIP3    H167987   0.735   0.042   3.196 -2.2969 -0.6154 -0.0604
15524TIP3    H267988   0.800   0.011   3.063 -0.1162 -0.2469  0.8981
15525TIP3   OH267989   1.428   1.393   0.491  0.2495 -0.6535 -0.4078
15525TIP3    H167990   1.371   1.416   0.418  0.2737 -0.2978 -0.3179
15525TIP3    H267991   1.509   1.441   0.475 -0.2303  0.5240  0.5571
15526TIP3   OH267992   1.841   2.893  10.996  0.0861  0.2938 -0.7697
15526TIP3    H167993   1.827   2.986  10.980 -0.4320  0.6817  1.6525
15526TIP3    H267994   1.771   2.868  11.056  0.3373 -1.6180 -1.2300
15527TIP3   OH267995   3.489   3.510   3.136  0.6026 -0.8622  0.1767
15527TIP3    H167996   3.439   3.590   3.126 -1.6503 -2.0804  1.3301
15527TIP3    H267997   3.438   3.443   3.091  1.3223 -2.0614  1.0908
15528TIP3   OH267998   2.343   0.138   3.105 -0.0513  0.1441 -0.1461
15528TIP3    H167999   2.406   0.210   3.099  0.4450 -0.2997 -0.4347
15528TIP3    H268000   2.343   0.113   3.197  3.1066 -2.3491 -0.7208
15529TIP3   OH268001   4.679   2.110  14.875 -0.7682 -0.2140  0.0205
15529TIP3    H168002   4.731   2.054  14.933 -2.1690 -2.0458 -0.4349
15529TIP3    H268003   4.650   2.051  14.805 -3.1709  0.8203  0.0855
15530TIP3   OH268004   1.922   1.463   3.977  0.0849 -0.0020 -0.3075
15530TIP3    H168005   1.848   1.409   3.947 -1.4017 -0.5680  3.9723
15530TIP3    H268006   1.884   1.519   4.045  3.0610  1.7154 -0.0011
15531TIP3   OH268007   1.453   2.832   4.008 -0.1022  0.6889  0.2989
15531TIP3    H168008   1.490   2.914   3.976  0.6428 -0.0688 -0.8270
15531TIP3    H268009   1.359   2.842   3.994 -0.0710  1.5829  0.7103
15532TIP3   OH268010   2.958   4.355  12.248 -0.1075 -0.2793  0.1312
15532TIP3    H168011   2.911   4.346  12.165  0.0321  1.2743 -0.1271
15532TIP3    H268012   3.043   4.314  12.232  0.1258  0.5043 -0.6737
15533TIP3   OH268013   3.737   4.060   5.804 -0.2342 -0.8407 -0.6932
15533TIP3    H168014   3.658   4.112   5.817 -0.1692 -0.6637 -1.0152
15533TIP3    H268015   3.801   4.122   5.770  0.7995 -0.3985  1.9271
15534TIP3   OH268016   1.233   6.112  15.222 -0.2011 -0.1397 -0.1567
15534TIP3    H168017   1.216   6.085  15.312  1.1535 -0.7191 -0.0655
15534TIP3    H268018   1.200   6.041  15.168 -1.1986  0.2976 -0.1408
15535TIP3   OH268019   5.220   1.398  13.170  0.2500  0.6025  0.3882
15535TIP3    H168020   5.128   1.385  13.191  0.4515  1.5424  1.9685
15535TIP3    H268021   5.220   1.426  13.078 -1.0507  0.7506  0.4217
15536TIP3   OH268022   5.207   2.768   5.417 -0.4383  0.0626 -0.6672
15536TIP3    H168023   5.153   2.846   5.411  1.3435  1.4277  0.4851
15536TIP3    H268024   5.270   2.777   5.345  0.1909  0.0484 -0.1289
15537TIP3   OH268025   6.187   0.424  11.859  0.2601  0.2141  0.3210
15537TIP3    H168026   6.215   0.335  11.839 -0.9750  0.2108 -1.4890
15537TIP3    H268027   6.260   0.461  11.909  1.4450 -1.3066 -0.2357
15538TIP3   OH268028   4.991   0.617   5.396 -0.3253  0.0883  0.1925
15538TIP3    H168029   5.057   0.686   5.400  0.8917 -0.9285 -1.7147
15538TIP3    H268030   4.932   0.643   5.325  0.2983 -0.9454 -0.7214
15539TIP3   OH268031   6.163   2.647   4.926  0.3755  0.1435  0.5691
15539TIP3    H168032   6.186   2.566   4.881 -0.3782 -1.0027  2.1742
15539TIP3    H268033   6.244   2.697   4.930  0.5880 -0.0304 -1.4280
15540TIP3   OH268034   4.860   5.029  16.577 -0.1237  0.0985 -0.2567
15540TIP3    H168035   4.858   5.070  16.490  0.5441 -0.9174 -0.7634
15540TIP3    H268036   4.905   5.092  16.633  0.9650  0.0453 -1.0515
15541TIP3   OH268037   5.932   0.003   2.648 -0.2068 -0.1866  0.2595
15541TIP3    H168038   5.856   0.004   2.589  0.7966  0.2344 -1.0395
15541TIP3    H268039   5.985   0.078   2.620  0.7146 -0.5031  1.1391
15542TIP3   OH268040   1.520   1.902   4.738 -0.3466 -0.3857  0.1749
15542TIP3    H168041   1.441   1.952   4.719  0.4772  0.4349 -1.1628
15542TIP3    H268042   1.542   1.859   4.655  1.0919  0.0816  0.3058
15543TIP3   OH268043   4.502   5.747   2.823  0.6622 -0.1918  0.3128
15543TIP3    H168044   4.506   5.666   2.873 -0.8745 -0.4717  0.0062
15543TIP3    H268045   4.510   5.719   2.731 -2.7556 -0.3216  0.0011
15544TIP3   OH268046   1.850   0.875  12.157 -0.3066 -0.5614 -0.0173
15544TIP3    H168047   1.827   0.864  12.249 -0.3299 -0.3950 -0.0012
15544TIP3    H268048   1.945   0.889  12.157 -0.3327 -0.3813 -0.0016
15545TIP3   OH268049   1.781   3.383   5.867 -0.1171  0.4743 -0.2704
15545TIP3    H168050   1.758   3.423   5.783 -0.9813  1.6711  0.5184
15545TIP3    H268051   1.830   3.451   5.913 -1.3381  0.5389  0.9592
15546TIP3   OH268052   0.533   0.323   5.196  0.5871  0.3820  0.3400
15546TIP3    H168053   0.458   0.347   5.141  0.6942 -0.6105 -0.2745
15546TIP3    H268054   0.556   0.403   5.242 -0.9970  0.6437  0.7089
15547TIP3   OH268055   5.944   0.723   1.935 -0.4208 -0.2461 -0.4011
15547TIP3    H168056   5.929   0.818   1.931  0.1942 -0.1232  0.1070
15547TIP3    H268057   5.931   0.693   1.845  0.0346  0.4194 -0.6894
15548TIP3   OH268058   0.912   3.429  11.220 -0.0859  0.1270 -0.2352
15548TIP3    H168059   0.886   3.512  11.179 -1.0585 -0.3771 -0.6560
15548TIP3    H268060   0.874   3.362  11.164  0.4216 -0.5979  0.2874
15549TIP3   OH268061   0.824   3.861   0.780 -0.2077  0.0888  0.6229
15549TIP3    H168062   0.867   3.838   0.698  2.1470  1.4205  1.4449
15549TIP3    H268063   0.878   3.820   0.848 -1.6775 -0.3411  1.5447
15550TIP3   OH268064   4.950   4.766  12.424  0.0900 -0.0539  0.5469
15550TIP3    H168065   4.898   4.846  12.421 -0.6303 -0.5173  0.5017
15550TIP3    H268066   4.981   4.754  12.335 -2.2723 -1.4221 -0.1301
15551TIP3   OH268067   2.277   3.508   0.186 -0.1726  0.2965  0.5120
15551TIP3    H168068   2.327   3.524   0.266  0.2622  0.5108  0.1969
15551TIP3    H268069   2.199   3.564   0.195  1.2344  2.4867 -0.4872
15552TIP3   OH268070   5.477   2.209   1.520  0.0659 -0.3797 -0.1453
15552TIP3    H168071   5.568   2.214   1.550 -0.2431 -0.9961  0.9151
15552TIP3    H268072   5.483   2.196   1.425  1.0770 -0.3775 -0.0826
15553TIP3   OH268073   2.916   4.328   6.445  0.2222 -0.4873 -0.2534
15553TIP3    H168074   2.847   4.266   6.469  1.7901 -1.8673  0.8185
15553TIP3    H268075   2.990   4.272   6.420  0.8981  0.9614 -1.5761
15554TIP3   OH268076   0.008   0.634   6.118  0.3785 -0.2992 -1.3599
15554TIP3    H168077  -0.081   0.617   6.086  0.0473  0.1227 -0.6629
15554TIP3    H268078   0.013   0.584   6.199  0.0242  1.4659 -0.2476
15555TIP3   OH268079   1.845   0.591  12.963  0.3282 -0.2349 -0.0362
15555TIP3    H168080   1.825   0.673  12.916 -0.2151 -1.9663 -2.9721
15555TIP3    H268081   1.785   0.591  13.037  0.1142  1.8853 -0.1644
15556TIP3   OH268082   5.927   2.037  14.253  0.0576 -0.2804 -0.0007
15556TIP3    H168083   5.970   2.080  14.326  0.7907 -0.2627 -0.4372
15556TIP3    H268084   5.999   2.005  14.198 -0.4601  1.2594 -1.6407
15557TIP3   OH268085   6.548   0.664  15.865  0.7406  0.2025 -0.0964
15557TIP3    H168086   6.626   0.638  15.815  0.5561 -0.1278 -0.2146
15557TIP3    H268087   6.584   0.698  15.947  0.9799 -0.7510  0.2039
15558TIP3   OH268088   6.480   5.164   5.453 -0.1611 -0.2639  0.0386
15558TIP3    H168089   6.460   5.215   5.531 -0.4136 -1.7322  0.9480
15558TIP3    H268090   6.480   5.073   5.482 -0.9338 -0.8856 -1.8059
15559TIP3   OH268091   4.351   0.410  11.673 -0.6131  0.2309  0.0537
15559TIP3    H168092   4.426   0.408  11.732  0.2939 -2.0655 -1.1081
15559TIP3    H268093   4.379   0.468  11.602  0.6283 -1.6666 -1.0459
15560TIP3   OH268094   0.225   1.816  11.029  0.4240 -0.1732  0.4436
15560TIP3    H168095   0.215   1.907  11.001  0.4614  0.5108  2.5572
15560TIP3    H268096   0.230   1.766  10.948  2.4971  1.9340 -0.7764
15561TIP3   OH268097   0.133   2.933   5.181  0.4867 -0.3088  0.2261
15561TIP3    H168098   0.140   2.859   5.119 -0.5991 -0.6478  0.4866
15561TIP3    H268099   0.146   2.893   5.267 -1.0741 -0.3762  0.4430
15562TIP3   OH268100   4.710   0.423  14.000  0.5583  0.1396  0.2094
15562TIP3    H168101   4.641   0.356  13.999  0.9725 -0.2935  0.6165
15562TIP3    H268102   4.676   0.493  13.944  0.0130 -0.2989 -0.0131
15563TIP3   OH268103   6.735   4.400   1.471 -0.1503 -0.2771  0.0429
15563TIP3    H168104   6.820   4.418   1.512 -0.2139  0.3160 -0.0815
15563TIP3    H268105   6.678   4.469   1.503 -0.7011 -0.9179  0.4552
15564TIP3   OH268106   2.942   5.052   1.492  0.2653  0.1210 -0.1762
15564TIP3    H168107   2.924   5.139   1.528 -0.7775 -0.6356  1.1926
15564TIP3    H268108   3.024   5.026   1.533  0.6501  0.5047 -0.6926
15565TIP3   OH268109   2.596   4.150  15.148 -0.6258 -0.3104 -0.1632
15565TIP3    H168110   2.644   4.144  15.065 -1.3197  1.7726 -0.7450
15565TIP3    H268111   2.624   4.072  15.198  0.6955 -0.9553 -1.8608
15566TIP3   OH268112   4.166   1.469   3.238 -0.1054  0.3041  0.2311
15566TIP3    H168113   4.188   1.528   3.166 -3.2391  2.2295  0.7632
15566TIP3    H268114   4.208   1.507   3.314 -0.7949  0.9815  0.2785
15567TIP3   OH268115   4.832   4.116   2.948 -0.1549  0.3131  0.0779
15567TIP3    H168116   4.791   4.031   2.965 -0.3961  0.6851  1.3761
15567TIP3    H268117   4.866   4.144   3.033  0.2433  1.3543 -0.4161
15568TIP3   OH268118   3.996   2.399  16.066 -0.4576 -0.0373 -0.8566
15568TIP3    H168119   4.030   2.312  16.090 -3.2614 -1.0216 -0.2614
15568TIP3    H268120   4.055   2.460  16.109  0.3780 -1.6883  0.4050
15569TIP3   OH268121   2.939   0.432  13.131  0.3142 -0.3116 -0.0918
15569TIP3    H168122   2.872   0.499  13.122 -0.3264 -0.6615  1.7988
15569TIP3    H268123   3.021   0.480  13.140 -0.0556  0.2084  0.5511
15570TIP3   OH268124   5.594   5.036   4.844 -0.3460  0.0419  0.2894
15570TIP3    H168125   5.571   4.997   4.759  0.5323  1.0506 -0.4237
15570TIP3    H268126   5.515   5.024   4.898 -0.2808 -2.2083 -0.0807
15571TIP3   OH268127   4.728   3.336   4.678 -0.4785 -0.3238  0.3492
15571TIP3    H168128   4.778   3.280   4.737 -2.9718 -2.4396  0.5706
15571TIP3    H268129   4.677   3.393   4.735  0.1540  0.4567  0.1499
15572TIP3   OH268130   2.391   0.902  13.696 -0.5374  0.1103  0.5785
15572TIP3    H168131   2.375   0.925  13.605 -0.9121  0.3805  0.7088
15572TIP3    H268132   2.485   0.889  13.702 -0.3727  1.1367  0.3880
15573TIP3   OH268133   0.406   3.487   5.343 -0.3825 -0.3540 -0.1079
15573TIP3    H168134   0.407   3.503   5.249 -0.4575 -0.9380 -0.2129
15573TIP3    H268135   0.334   3.425   5.355  1.1624 -2.1894  0.0127
15574TIP3   OH268136   2.434   6.282   3.827 -0.5542 -0.1455 -0.2545
15574TIP3    H168137   2.430   6.270   3.922  0.0512  0.5461 -0.1329
15574TIP3    H268138   2.428   6.377   3.815 -1.7743 -0.3107 -0.9737
15575TIP3   OH268139   4.552   4.627   0.470 -0.3413  0.1405  0.5257
15575TIP3    H168140   4.567   4.683   0.547  1.2487  1.1737 -0.5150
15575TIP3    H268141   4.600   4.546   0.490  1.2668  0.9559  0.0124
15576TIP3   OH268142   5.887   4.121  12.852 -0.1384 -0.2551  0.0403
15576TIP3    H168143   5.818   4.058  12.835 -0.4418 -0.1538  0.8893
15576TIP3    H268144   5.968   4.076  12.826 -0.1475 -1.6966  2.3466
15577TIP3   OH268145   1.358   2.153  16.902  0.4288 -0.4815 -0.3017
15577TIP3    H168146   1.319   2.088  16.842  2.6344 -1.2585 -0.9478
15577TIP3    H268147   1.371   2.231  16.848 -2.5563  0.6963  0.5657
15578TIP3   OH268148   2.202   0.621  14.147  0.4449  0.2202  0.1467
15578TIP3    H168149   2.250   0.617  14.065 -0.2657  0.0912 -0.2649
15578TIP3    H268150   2.109   0.623  14.121  0.2411  1.2731  0.8935
15579TIP3   OH268151   5.942   3.564   0.599  0.2221  0.2451  0.5124
15579TIP3    H168152   5.984   3.564   0.685  1.1165 -0.2889  0.0885
15579TIP3    H268153   5.857   3.525   0.613 -0.2289  1.5170  1.4323
15580TIP3   OH268154   0.859   2.296   0.314  0.2419 -0.0176 -0.1216
15580TIP3    H168155   0.925   2.228   0.297  0.6790 -0.0312  1.5230
15580TIP3    H268156   0.908   2.367   0.355 -0.5379  0.5391 -0.1462
15581TIP3   OH268157   5.897   4.567  12.671 -0.7408  0.2114  0.0589
15581TIP3    H168158   5.860   4.645  12.630 -0.4831 -0.3549 -1.2780
15581TIP3    H268159   5.990   4.587  12.681 -0.9638  0.7187  1.2760
15582TIP3   OH268160   2.077   1.990  12.296  0.4780 -0.4337 -0.4423
15582TIP3    H168161   2.021   2.065  12.271 -2.6800 -2.6987 -0.4854
15582TIP3    H268162   2.064   1.982  12.391  0.0843 -1.4659 -0.5810
15583TIP3   OH268163   5.557   4.419  17.226 -0.0664  0.5341 -0.0520
15583TIP3    H168164   5.550   4.499  17.278  2.0564  1.4950 -1.1730
15583TIP3    H268165   5.650   4.410  17.207 -0.5711 -0.7635 -2.1639
15584TIP3   OH268166   3.522   3.753  16.285  0.9977 -0.5625  0.3324
15584TIP3    H168167   3.456   3.798  16.336  2.3224  0.2656  1.3584
15584TIP3    H268168   3.501   3.773  16.194 -0.3243 -0.5715  0.6253
15585TIP3   OH268169   2.629   2.266   5.352  0.5145 -0.3969 -0.7531
15585TIP3    H168170   2.592   2.210   5.284 -0.4276 -1.0541  0.2782
15585TIP3    H268171   2.724   2.257   5.341  0.3856 -2.2037 -0.6248
15586TIP3   OH268172   3.264   6.406   1.060  0.0541  0.0281  0.2713
15586TIP3    H168173   3.173   6.385   1.039 -0.2894  0.5964  1.1360
15586TIP3    H268174   3.285   6.350   1.135  0.8500 -1.0682 -0.7684
15587TIP3   OH268175   6.463   0.413   2.543 -0.2154  0.2774 -0.0586
15587TIP3    H168176   6.541   0.457   2.510  0.2186  1.2267  2.1377
15587TIP3    H268177   6.427   0.368   2.466  2.0523  0.4302 -1.2775
15588TIP3   OH268178   6.772   6.561   0.174 -0.4774  0.0354  0.2954
15588TIP3    H168179   6.697   6.505   0.158 -0.8689  1.2481 -2.3802
15588TIP3    H268180   6.736   6.638   0.217 -1.1148  1.3511 -2.4492
15589TIP3   OH268181   4.531   1.090   5.143  0.2132 -0.4720  0.3898
15589TIP3    H168182   4.437   1.103   5.147  0.4863  1.3789  1.3533
15589TIP3    H268183   4.561   1.105   5.233  1.6012  0.4423 -0.2072
15590TIP3   OH268184   4.326   6.336  11.088 -0.4322  0.1260  0.2920
15590TIP3    H168185   4.255   6.394  11.062 -0.1573  0.1908 -0.3277
15590TIP3    H268186   4.310   6.255  11.040 -0.5598 -0.1571  0.8027
15591TIP3   OH268187   0.695   1.860  15.616  0.2973 -0.5496  0.2951
15591TIP3    H168188   0.709   1.787  15.556 -2.6386  0.8729 -2.2481
15591TIP3    H268189   0.628   1.828  15.677  0.1315 -0.5283  0.1262
15592TIP3   OH268190   5.733   3.990  15.874  0.2551 -0.2083  0.1892
15592TIP3    H168191   5.793   4.019  15.943 -1.3481 -0.3165  1.6647
15592TIP3    H268192   5.775   3.911  15.838  1.6572  0.4805  0.2628
15593TIP3   OH268193   6.250   1.805  14.738 -0.2007 -0.0794 -0.0618
15593TIP3    H168194   6.221   1.857  14.812  2.8837 -1.2780  2.1090
15593TIP3    H268195   6.213   1.718  14.753  0.1928 -0.2490 -0.0561
15594TIP3   OH268196   6.281   5.257   1.236  0.3481 -0.3170 -0.6289
15594TIP3    H168197   6.206   5.227   1.183  0.8067 -0.9539 -0.9339
15594TIP3    H268198   6.354   5.258   1.174  0.7182 -0.2838 -0.1921
15595TIP3   OH268199   5.226   6.546   4.140  0.6152  0.3194 -0.4051
15595TIP3    H168200   5.191   6.458   4.153  0.9738  0.1874 -0.3192
15595TIP3    H268201   5.314   6.532   4.106  0.6735  0.6455 -0.3928
15596TIP3   OH268202   0.743   2.588  16.478  0.2626  0.5319  0.1798
15596TIP3    H168203   0.735   2.545  16.564 -0.3394  2.3151  1.0518
15596TIP3    H268204   0.673   2.653  16.478 -0.3342 -0.0982 -2.0690
15597TIP3   OH268205   5.389   6.684  15.634 -0.0061 -0.2879 -0.2078
15597TIP3    H168206   5.468   6.729  15.665 -0.2662 -0.2102  0.3529
15597TIP3    H268207   5.369   6.727  15.551  0.1621  0.1486 -0.0272
15598TIP3   OH268208   1.822   5.679  13.557 -0.3051 -0.1538 -0.6295
15598TIP3    H168209   1.871   5.724  13.626 -0.4381  0.2848 -0.8155
15598TIP3    H268210   1.889   5.647  13.497 -0.1964 -0.4142 -0.3700
15599TIP3   OH268211   0.381   1.546  16.782  0.2124  0.9428 -0.5873
15599TIP3    H168212   0.377   1.595  16.864 -0.3878  0.5251 -0.3564
15599TIP3    H268213   0.376   1.454  16.809 -1.3545  0.8397 -1.1734
15600TIP3   OH268214   3.440   5.147  14.473 -0.4807 -0.3649  0.3546
15600TIP3    H168215   3.455   5.238  14.447  1.0445 -0.4786  0.8175
15600TIP3    H268216   3.440   5.150  14.569 -4.1546 -0.2602  0.4464
15601TIP3   OH268217   1.361   3.181   0.802 -0.0617  0.7542 -0.1550
15601TIP3    H168218   1.337   3.128   0.725  1.8756 -0.0936 -0.2069
15601TIP3    H268219   1.309   3.144   0.873  0.6248 -0.6869 -0.3799
15602TIP3   OH268220   3.832   0.709   4.806  0.7734  0.2447 -0.1443
15602TIP3    H168221   3.899   0.701   4.738  1.3803  0.5076  0.4114
15602TIP3    H268222   3.798   0.798   4.795  1.0324  0.3676  0.0385
15603TIP3   OH268223   3.720   4.639   3.957  0.0135 -0.1779 -0.4315
15603TIP3    H168224   3.697   4.732   3.955 -1.9793 -0.6253  0.3373
15603TIP3    H268225   3.752   4.621   3.869 -0.6547  0.9809 -0.9289
15604TIP3   OH268226   5.628   4.720   2.037 -0.2677  0.1264  0.3393
15604TIP3    H168227   5.724   4.727   2.032 -0.2504 -0.0504  0.4595
15604TIP3    H268228   5.608   4.739   2.129 -0.1803 -1.9613  0.8060
15605TIP3   OH268229   3.646   2.302   3.869  0.1820 -0.1478  0.1735
15605TIP3    H168230   3.714   2.369   3.862  0.4465 -0.4722 -0.3459
15605TIP3    H268231   3.588   2.335   3.938  1.1621 -0.1465  1.0057
15606TIP3   OH268232   6.030   1.328   2.616 -0.0101  0.0714 -0.0031
15606TIP3    H168233   6.020   1.409   2.567  1.4909 -0.5473 -1.3626
15606TIP3    H268234   5.941   1.308   2.648 -0.1872  2.8005  1.2922
15607TIP3   OH268235   0.758   2.981  12.692 -0.0078 -0.5025  0.2855
15607TIP3    H168236   0.745   3.005  12.600  0.3311 -1.3034  0.0275
15607TIP3    H268237   0.837   2.928  12.692  0.1484 -0.2738  1.0835
15608TIP3   OH268238   1.850   6.425  15.918  0.0095  0.3030  0.0106
15608TIP3    H168239   1.848   6.338  15.958  0.9550  0.5793  0.6586
15608TIP3    H268240   1.760   6.439  15.887 -0.0334 -1.0999 -0.5463
15609TIP3   OH268241   3.156   3.728  15.255 -0.0195 -0.7455  0.2325
15609TIP3    H168242   3.184   3.701  15.168 -0.6877  0.2970 -0.3188
15609TIP3    H268243   3.063   3.749  15.245  0.4992  1.9753  0.5345
15610TIP3   OH268244   1.577   0.719   3.244  0.1699  0.4655  0.0167
15610TIP3    H168245   1.670   0.744   3.238  0.4338 -0.5944 -0.3712
15610TIP3    H268246   1.559   0.715   3.338  0.4603  0.8863  0.0917
15611TIP3   OH268247   6.596   6.638  13.295  0.3989 -0.3120 -0.0512
15611TIP3    H168248   6.560   6.703  13.234 -1.2446 -0.5196  0.6852
15611TIP3    H268249   6.541   6.560  13.282  2.6032 -1.7283 -1.2262
15612TIP3   OH268250   5.669   4.607   3.252  0.6718 -0.2178  0.3245
15612TIP3    H168251   5.641   4.644   3.168  0.8834  3.0008  1.6207
15612TIP3    H268252   5.709   4.523   3.228  0.0560  0.2722 -2.7082
15613TIP3   OH268253   3.960   1.450   5.969 -0.0373 -0.3574 -0.0412
15613TIP3    H168254   3.906   1.397   6.028  0.3732  0.9395  1.5309
15613TIP3    H268255   4.050   1.430   5.995  0.1228  1.0135  0.5138
15614TIP3   OH268256   1.094   0.747   4.867 -0.7790  0.7485 -0.2654
15614TIP3    H168257   1.094   0.705   4.953 -1.9017  0.1802 -0.5282
15614TIP3    H268258   1.071   0.676   4.806  2.8837  0.4797 -1.4026
15615TIP3   OH268259   0.027   5.135  11.463  0.2082  0.3276  0.1864
15615TIP3    H168260   0.110   5.152  11.508  0.0227  0.1745  0.5886
15615TIP3    H268261  -0.001   5.221  11.432  0.2200  0.4733  0.5732
15616TIP3   OH268262   0.146   1.362  16.425 -0.3687  0.1879  0.0913
15616TIP3    H168263   0.104   1.309  16.358  0.7955 -2.0031  1.0489
15616TIP3    H268264   0.238   1.366  16.399  0.5785 -2.6700  2.7315
15617TIP3   OH268265   0.418   2.266  14.964  0.3160 -0.1120  0.0596
15617TIP3    H168266   0.348   2.213  15.001  1.5064 -2.4002 -0.8817
15617TIP3    H268267   0.473   2.288  15.039 -1.2361  1.5385  0.7738
15618TIP3   OH268268   4.432   1.139   6.083 -0.2463 -0.7620 -0.0649
15618TIP3    H168269   4.426   1.197   6.159 -0.3016 -1.2855  0.3365
15618TIP3    H268270   4.517   1.095   6.093  0.5736  0.5142 -1.2898
15619TIP3   OH268271   4.219   0.136  13.086 -0.2839  0.5302 -0.4475
15619TIP3    H168272   4.183   0.123  12.998  1.2452  2.5922 -1.3971
15619TIP3    H268273   4.307   0.169  13.072  0.0207  0.8098  1.8879
15620TIP3   OH268274   2.219   4.171  14.664 -0.6060 -0.2579  0.5568
15620TIP3    H168275   2.171   4.252  14.644  3.4679  2.8162  2.3652
15620TIP3    H268276   2.230   4.173  14.759  0.8459 -2.1404  0.4435
15621TIP3   OH268277   3.519   5.916   5.761  0.1694  0.1828 -0.0039
15621TIP3    H168278   3.526   5.896   5.668  1.9890 -0.9170  0.3369
15621TIP3    H268279   3.596   5.876   5.800 -1.4624 -0.9282  2.2450
15622TIP3   OH268280   1.282   2.036  12.125  0.6064 -0.1268  0.2895
15622TIP3    H168281   1.188   2.017  12.122  0.1481  1.9355  0.9157
15622TIP3    H268282   1.313   2.015  12.037 -0.2378 -1.7478  0.3520
15623TIP3   OH268283   1.891   6.727   1.930  0.0287 -0.3012  0.0789
15623TIP3    H168284   1.829   6.790   1.965  0.5805 -1.0596  2.4730
15623TIP3    H268285   1.954   6.780   1.880 -1.3730  0.6610 -0.6930
15624TIP3   OH268286   6.196   4.258  14.692  0.6274 -0.1689  0.3660
15624TIP3    H168287   6.205   4.163  14.683  0.0741 -0.1422 -0.5474
15624TIP3    H268288   6.263   4.282  14.755 -0.1664 -1.3556  1.7222
15625TIP3   OH268289   4.657   2.735  15.418 -0.2654  0.2666 -0.6049
15625TIP3    H168290   4.583   2.698  15.369 -0.8828  0.0332  0.4855
15625TIP3    H268291   4.624   2.819  15.450  0.1869  0.4811 -0.6925
15626TIP3   OH268292   3.973   2.351   5.028  0.1254  0.5617  0.3202
15626TIP3    H168293   4.036   2.300   5.080  0.1631 -0.1664 -0.4174
15626TIP3    H268294   3.915   2.390   5.092 -0.6556 -1.4303  0.8713
15627TIP3   OH268295   1.320   5.537  11.893 -0.0970  0.4860 -0.4951
15627TIP3    H168296   1.412   5.547  11.871 -0.2645 -0.6238 -1.7269
15627TIP3    H268297   1.273   5.588  11.828 -0.4651 -0.8305 -1.2754
15628TIP3   OH268298   6.391   0.525  12.040  0.2409  0.0521 -0.2918
15628TIP3    H168299   6.462   0.462  12.054 -0.5962 -0.6453  0.9113
15628TIP3    H268300   6.353   0.537  12.127 -0.5312  1.1344 -0.7687
15629TIP3   OH268301   4.429   0.881  12.476 -0.5575  0.6224 -0.0361
15629TIP3    H168302   4.515   0.875  12.434 -0.0401 -0.5526  1.1248
15629TIP3    H268303   4.368   0.850  12.409  0.2461 -1.1823  0.0090
15630TIP3   OH268304   0.148   3.708   0.148  0.2710  0.2415 -0.1874
15630TIP3    H168305   0.054   3.693   0.139  0.2501  0.1237  0.2253
15630TIP3    H268306   0.156   3.793   0.190  0.3395  0.0980  0.0971
15631TIP3   OH268307   5.127   1.429   2.948  0.3965 -0.0391  0.8254
15631TIP3    H168308   5.104   1.427   3.041  0.0960  1.2964  0.7812
15631TIP3    H268309   5.044   1.418   2.902  0.6419 -1.5020  0.7093
15632TIP3   OH268310   5.202   1.802  12.807  0.2196 -0.1174 -0.3970
15632TIP3    H168311   5.291   1.767  12.805 -0.4711 -1.9221 -0.5269
15632TIP3    H268312   5.201   1.868  12.737  0.6297 -2.2363 -2.4903
15633TIP3   OH268313   6.330   5.182  10.928  0.1004 -0.2419  0.2423
15633TIP3    H168314   6.312   5.191  11.022  0.4425  1.7436  0.1544
15633TIP3    H268315   6.410   5.234  10.914  0.5669 -1.2633 -0.9979
15634TIP3   OH268316   0.820   5.127  13.024 -0.5784  0.1958  0.6993
15634TIP3    H168317   0.849   5.172  13.104 -2.7652  1.4566  0.8010
15634TIP3    H268318   0.811   5.197  12.959 -2.5107 -0.3058  0.4197
15635TIP3   OH268319   5.834   2.583  16.517  0.4511  0.3141 -0.2780
15635TIP3    H168320   5.819   2.508  16.575  1.5835 -1.5659 -2.3599
15635TIP3    H268321   5.929   2.598  16.521  0.6504 -0.3097 -2.1884
15636TIP3   OH268322   0.905   4.002   4.585 -0.5275 -0.2037  0.2389
15636TIP3    H168323   0.885   3.916   4.546  0.1830  0.0764 -0.7651
15636TIP3    H268324   0.826   4.054   4.569  0.4332  0.4970 -2.5420
15637TIP3   OH268325   2.037   6.105  13.160  0.0580  0.3731 -0.6365
15637TIP3    H168326   2.097   6.155  13.105  0.7570  0.7908  0.4960
15637TIP3    H268327   1.969   6.074  13.100  0.2363  1.7145 -1.5376
15638TIP3   OH268328   1.014   4.934   2.934  0.1023  0.1224  0.9405
15638TIP3    H168329   0.959   4.860   2.910  0.3805  0.0141  0.6259
15638TIP3    H268330   0.998   4.998   2.865  0.2853  0.1360  0.9117
15639TIP3   OH268331   6.762   0.581  15.105  0.5239 -0.4081  0.5948
15639TIP3    H168332   6.708   0.531  15.043  1.7269 -0.1499 -0.6604
15639TIP3    H268333   6.698   0.629  15.158 -0.5596 -1.5309  0.3452
15640TIP3   OH268334   2.781   3.208   3.617  0.9654 -0.0541 -0.0492
15640TIP3    H168335   2.776   3.285   3.559 -0.3771 -1.5348 -1.9812
15640TIP3    H268336   2.699   3.161   3.601  2.2541 -2.4731  0.2255
15641TIP3   OH268337   3.069   2.999  15.657 -0.2047  0.3233 -0.2325
15641TIP3    H168338   3.027   2.999  15.743  1.0202  0.6158  0.3796
15641TIP3    H268339   3.130   2.925  15.659  1.2791  1.5226 -0.1042
15642TIP3   OH268340   4.683   5.194   5.569  0.1103 -0.6190 -0.1248
15642TIP3    H168341   4.621   5.151   5.628 -0.5949 -1.1915 -1.2819
15642TIP3    H268342   4.736   5.123   5.534  0.1968 -0.3255 -0.5873
15643TIP3   OH268343   0.637   5.758  14.786 -0.1718  0.4566 -0.5563
15643TIP3    H168344   0.599   5.740  14.872 -0.7277  0.7877 -0.7277
15643TIP3    H268345   0.595   5.839  14.757  0.2765  0.5411 -0.9840
15644TIP3   OH268346   6.032   6.503  12.611  0.1976 -0.1891 -0.4171
15644TIP3    H168347   5.952   6.556  12.608 -0.7753 -1.6100 -0.2305
15644TIP3    H268348   6.102   6.566  12.625 -0.5738  1.3953 -3.2557
15645TIP3   OH268349   6.719   4.703   2.818  0.2898 -0.1196  0.3951
15645TIP3    H168350   6.764   4.781   2.851  1.4167 -0.1640 -1.0131
15645TIP3    H268351   6.699   4.652   2.896  1.3424  0.6263  1.1636
15646TIP3   OH268352   1.264   6.059  15.493 -0.5934 -0.4254 -1.0382
15646TIP3    H168353   1.343   6.109  15.511 -0.9983  0.1786 -0.9390
15646TIP3    H268354   1.285   5.969  15.519  0.0816 -0.2773 -1.0888
15647TIP3   OH268355   4.515   1.212   4.216  0.0877  0.3999 -0.5384
15647TIP3    H168356   4.489   1.283   4.159 -1.3941 -0.0810 -0.4898
15647TIP3    H268357   4.607   1.229   4.236  0.7011  0.4315 -3.2451
15648TIP3   OH268358   4.652   2.909   1.055 -0.2886 -0.1249 -0.1006
15648TIP3    H168359   4.660   2.941   1.144 -0.6914 -1.3966  0.4095
15648TIP3    H268360   4.718   2.957   1.005  0.7391 -0.2471  1.1217
15649TIP3   OH268361   3.536   3.835  15.297  0.0412  0.0014  0.3189
15649TIP3    H168362   3.617   3.823  15.347 -0.4091  0.7012  1.2353
15649TIP3    H268363   3.490   3.752  15.305  1.4906 -1.0335 -1.7294
15650TIP3   OH268364   0.208   6.722  16.599  0.5434 -0.3408  0.0933
15650TIP3    H168365   0.263   6.715  16.520 -0.1893 -1.2727 -0.3521
15650TIP3    H268366   0.139   6.784  16.575  1.1463  0.4862  0.4986
15651TIP3   OH268367   5.160   0.944   2.013 -0.7117 -0.2153 -0.5372
15651TIP3    H168368   5.232   0.989   1.968  1.5247 -1.7962  1.2963
15651TIP3    H268369   5.085   1.002   2.002  1.1153  2.0694 -1.5438
15652TIP3   OH268370   3.379   2.538  11.614 -0.4297  0.0559  0.0464
15652TIP3    H168371   3.397   2.543  11.708 -0.8135 -0.7247  0.1672
15652TIP3    H268372   3.463   2.519  11.574 -0.1228  1.1418  0.1571
15653TIP3   OH268373   3.092   4.611   1.775  0.2395 -0.1190  0.0318
15653TIP3    H168374   3.074   4.642   1.687 -0.9285 -1.2613 -0.1400
15653TIP3    H268375   3.101   4.691   1.827  0.8860  0.5550 -1.1054
15654TIP3   OH268376   2.276   4.148  14.941  0.0209  0.0733 -0.4173
15654TIP3    H168377   2.264   4.167  15.034  1.0443 -1.4809  0.0655
15654TIP3    H268378   2.311   4.229  14.904  1.2750  0.1695  0.9213
15655TIP3   OH268379   2.231   4.249   1.754 -0.0547 -0.0928  0.2201
15655TIP3    H168380   2.153   4.207   1.718  0.3043  1.2011 -2.1909
15655TIP3    H268381   2.204   4.279   1.841 -1.9899 -0.4029 -0.2520
15656TIP3   OH268382   5.741   2.334   1.085  0.0495  0.2662  0.2273
15656TIP3    H168383   5.689   2.389   1.026  1.7563 -0.3388 -1.9005
15656TIP3    H268384   5.685   2.260   1.106 -1.3380  1.5331  1.0628
15657TIP3   OH268385   2.042   3.353  13.849  0.3097  0.2168 -0.6209
15657TIP3    H168386   2.136   3.350  13.866  0.4959 -0.3628 -1.7095
15657TIP3    H268387   2.019   3.446  13.854  0.5835  0.2004  1.4521
15658TIP3   OH268388   0.253   1.924   4.517  0.2080  0.3151 -0.1259
15658TIP3    H168389   0.171   1.960   4.486 -0.5135  0.1559  1.5246
15658TIP3    H268390   0.296   1.997   4.563  1.1384  0.4829 -1.2304
15659TIP3   OH268391   0.478   3.002  12.703  0.1103 -0.0658 -0.4613
15659TIP3    H168392   0.574   3.002  12.701  0.1091  0.1681 -0.4907
15659TIP3    H268393   0.452   2.989  12.612  0.1036  1.8094 -0.7403
15660TIP3   OH268394   2.325   5.250  14.277  0.2528  0.4202  0.3558
15660TIP3    H168395   2.314   5.342  14.298  0.5421 -0.0052  2.6079
15660TIP3    H268396   2.419   5.240  14.259  0.4821  0.3490  1.4973
15661TIP3   OH268397   6.184   1.539  14.801 -0.8822 -0.0845  0.1874
15661TIP3    H168398   6.119   1.533  14.871 -0.0615 -1.7808  0.8199
15661TIP3    H268399   6.190   1.450  14.766  0.6804  0.1710 -0.2345
15662TIP3   OH268400   1.874   1.186  12.805 -0.7184 -0.0181 -0.6297
15662TIP3    H168401   1.814   1.128  12.759  0.7878 -0.1406 -2.4519
15662TIP3    H268402   1.855   1.273  12.769 -0.2123  0.0383 -0.7542
15663TIP3   OH268403   4.319   1.488  11.343 -0.0276 -0.2442 -0.1877
15663TIP3    H168404   4.313   1.550  11.415 -0.2644 -0.9620  0.4244
15663TIP3    H268405   4.374   1.531  11.278  2.1429 -0.5392  1.4273
15664TIP3   OH268406   4.565   4.099  17.141 -0.5591 -0.0618 -1.0683
15664TIP3    H168407   4.502   4.085  17.211  1.8144 -0.3993  1.0981
15664TIP3    H268408   4.572   4.015  17.097  0.3601 -0.7910  0.4317
15665TIP3   OH268409   2.709   4.748   2.331  0.6373  0.2332 -0.3462
15665TIP3    H168410   2.769   4.805   2.379 -0.0173  0.4741  0.1952
15665TIP3    H268411   2.739   4.659   2.351  0.8133  0.3519 -0.0832
15666TIP3   OH268412   4.452   0.064   0.837 -0.5889  0.0344  0.0613
15666TIP3    H168413   4.518   0.036   0.901 -1.6044 -0.7492  0.8005
15666TIP3    H268414   4.478   0.152   0.811  0.5941 -0.1679  0.5445
15667TIP3   OH268415   1.765   1.999  16.459  0.1828  0.0552  0.2533
15667TIP3    H168416   1.836   2.003  16.523  0.5412  1.4461 -0.2174
15667TIP3    H268417   1.718   2.082  16.470  1.2945  1.1026 -2.4607
15668TIP3   OH268418   6.390   0.272  14.228  0.3789  0.3110 -0.8500
15668TIP3    H168419   6.358   0.260  14.139  1.0509 -0.4461 -0.9972
15668TIP3    H268420   6.416   0.184  14.256  0.8108  0.6558 -0.1565
15669TIP3   OH268421   5.884   0.811  15.997  0.2601  0.1694 -0.5994
15669TIP3    H168422   5.810   0.833  16.053 -0.0995 -1.6799 -0.3440
15669TIP3    H268423   5.896   0.889  15.942 -1.4543  0.7324 -0.1986
15670TIP3   OH268424   0.926   3.313   1.092  0.0371 -0.0079  0.0718
15670TIP3    H168425   0.886   3.385   1.043 -1.0210 -1.1358 -0.7219
15670TIP3    H268426   0.856   3.281   1.149  0.6908 -0.0136  0.8840
15671TIP3   OH268427   6.266   1.421  12.611  0.1805  0.3436 -0.2439
15671TIP3    H168428   6.281   1.465  12.695 -2.3616 -0.4501  0.6575
15671TIP3    H268429   6.205   1.479  12.565 -0.0765 -0.2827 -0.6890
15672TIP3   OH268430   1.246   6.313   0.082  0.2786 -0.1885 -0.2716
15672TIP3    H168431   1.224   6.379   0.148  0.6074 -0.4182  0.0775
15672TIP3    H268432   1.185   6.328   0.010  0.6764  0.8219 -0.4093
15673TIP3   OH268433   5.225   5.229  16.828  0.3737 -0.2138  1.0521
15673TIP3    H168434   5.201   5.164  16.761 -0.3276  1.8934 -0.8104
15673TIP3    H268435   5.246   5.177  16.905 -2.3639 -2.5476  0.3117
15674TIP3   OH268436   1.804   5.648   1.571  0.2236  0.2310 -0.0587
15674TIP3    H168437   1.809   5.738   1.538  0.3767  0.4587  0.5808
15674TIP3    H268438   1.895   5.625   1.591  0.1574  0.0135 -0.0133
15675TIP3   OH268439   0.807   3.428   2.181  0.6451 -0.1337  0.1730
15675TIP3    H168440   0.902   3.437   2.178  0.6239 -0.2609 -1.0661
15675TIP3    H268441   0.781   3.409   2.091 -0.2084 -3.5245  1.0292
15676TIP3   OH268442   4.177   4.649  15.538  0.3960 -0.2023 -0.3543
15676TIP3    H168443   4.088   4.644  15.573 -0.1656  0.4584 -1.6876
15676TIP3    H268444   4.166   4.666  15.445  1.9260  0.1496 -0.4840
15677TIP3   OH268445   6.528   1.580  16.663 -0.3357 -0.0949 -0.4269
15677TIP3    H168446   6.548   1.596  16.570 -1.2342 -0.8204 -0.7547
15677TIP3    H268447   6.433   1.568  16.665 -0.5036  1.3510  0.8055
15678TIP3   OH268448   4.411   0.891  11.385  0.4295  0.0072 -0.5951
15678TIP3    H168449   4.350   0.859  11.451  0.4729  1.8755  0.3900
15678TIP3    H268450   4.497   0.882  11.425  0.5053  0.5451 -0.6272
15679TIP3   OH268451   3.818   6.033  16.178 -0.2578 -0.3209  0.2407
15679TIP3    H168452   3.835   6.127  16.167  2.0904 -0.7997 -0.3892
15679TIP3    H268453   3.796   6.023  16.271  1.5243  0.5555  0.7689
15680TIP3   OH268454   2.868   4.510   2.206  0.5824 -0.2563  0.1498
15680TIP3    H168455   2.827   4.485   2.123  2.1040 -0.5599 -0.5220
15680TIP3    H268456   2.934   4.574   2.182  0.0288  0.7810  1.3173
15681TIP3   OH268457   5.140   1.084   3.671 -0.2868  0.9365 -0.6133
15681TIP3    H168458   5.202   1.157   3.665  0.0551  0.6835 -0.1981
15681TIP3    H268459   5.096   1.097   3.755 -1.3071  1.5106 -1.2194
15682TIP3   OH268460   6.273   4.633   0.867 -0.0005 -0.1371  0.0898
15682TIP3    H168461   6.332   4.609   0.938  2.2594  1.6759 -1.1005
15682TIP3    H268462   6.310   4.590   0.790  0.5439  2.0087 -0.8942
15683TIP3   OH268463   5.341   6.675   4.838 -0.0652 -0.5036 -0.2954
15683TIP3    H168464   5.434   6.668   4.857 -0.4222 -2.0390  1.0573
15683TIP3    H268465   5.300   6.690   4.923 -1.1157 -0.5713 -0.7725
15684TIP3   OH268466   4.855   1.602   1.752  0.4461  0.7467 -0.2711
15684TIP3    H168467   4.764   1.581   1.729 -0.2482  2.3381  0.9309
15684TIP3    H268468   4.847   1.664   1.824  2.5173  0.0411  0.5853
15685TIP3   OH268469   2.066   4.800   0.765  0.3172  0.2198  0.0055
15685TIP3    H168470   1.986   4.747   0.752  1.3928 -1.6463  0.7351
15685TIP3    H268471   2.077   4.847   0.683  0.3535 -2.1607 -1.4018
15686TIP3   OH268472   1.897   4.334   1.383 -1.1713 -0.4902 -0.2012
15686TIP3    H168473   1.892   4.278   1.306  0.8874 -0.8393 -0.1020
15686TIP3    H268474   1.956   4.405   1.358 -1.4272  0.0400  0.6689
15687TIP3   OH268475   1.804   0.446  15.346 -0.4861  0.0326 -0.3497
15687TIP3    H168476   1.845   0.532  15.336  0.4197 -0.3813 -0.2510
15687TIP3    H268477   1.755   0.433  15.265  2.0241 -0.7670 -1.7920
15688TIP3   OH268478   5.410   3.717   1.914 -0.4136 -0.0546  0.0977
15688TIP3    H168479   5.394   3.631   1.877 -0.2398 -0.9632  2.0387
15688TIP3    H268480   5.337   3.771   1.884 -1.6193 -1.4363  0.5201
15689TIP3   OH268481   4.903   0.808  11.687  0.0418  0.1172  0.1782
15689TIP3    H168482   4.883   0.748  11.759 -0.7094 -2.0532 -1.7999
15689TIP3    H268483   4.834   0.875  11.691 -1.1296 -1.0871  0.2671
15690TIP3   OH268484   2.485   3.772   0.074 -0.1858  0.3732 -0.1899
15690TIP3    H168485   2.521   3.718   0.145 -1.1897 -0.0838 -0.0094
15690TIP3    H268486   2.392   3.780   0.095 -0.3338  0.9280 -1.0225
15691TIP3   OH268487   6.134   0.583  12.748  0.0660  0.5838  0.5021
15691TIP3    H168488   6.066   0.566  12.814 -0.4471 -0.2633 -0.2436
15691TIP3    H268489   6.094   0.560  12.665  0.8687  1.2249 -0.0707
15692TIP3   OH268490   2.613   0.563   1.311 -0.0639  0.3358  0.1645
15692TIP3    H168491   2.708   0.554   1.322 -0.2023  0.7938  1.9390
15692TIP3    H268492   2.583   0.476   1.284  0.9616  0.3985 -1.1937
15693TIP3   OH268493   6.002   4.338   5.630 -0.2060 -0.0805  0.1019
15693TIP3    H168494   6.096   4.330   5.640 -0.3746 -1.5267  0.5524
15693TIP3    H268495   5.969   4.248   5.628 -1.6309  0.4067  0.4609
15694TIP3   OH268496   3.376   2.113   5.381 -0.4550 -0.3002 -0.4992
15694TIP3    H168497   3.291   2.072   5.394  0.0423 -0.9957  0.5641
15694TIP3    H268498   3.374   2.189   5.439 -0.7162  0.2414 -1.2031
15695TIP3   OH268499   5.833   3.033   5.716  0.0220  0.2667 -0.2914
15695TIP3    H168500   5.740   3.031   5.693 -0.0510  1.5671 -0.1235
15695TIP3    H268501   5.860   3.123   5.700  0.8583  0.3001  1.2636
15696TIP3   OH268502   1.960   6.727  13.870  0.8975  0.1826 -0.1072
15696TIP3    H168503   1.926   6.812  13.841  1.6380  1.5498  2.7919
15696TIP3    H268504   1.927   6.718  13.960  0.5350 -2.7893 -0.5125
15697TIP3   OH268505   2.394   1.494   3.712  0.0765 -0.1330 -0.5718
15697TIP3    H168506   2.421   1.584   3.730  2.0381 -0.6676 -0.7903
15697TIP3    H268507   2.312   1.484   3.760  0.3537  1.4512  0.2751
15698TIP3   OH268508   4.706   5.836   3.148 -1.1125 -0.3930 -0.1059
15698TIP3    H168509   4.681   5.745   3.167  0.1505 -0.2639  2.4096
15698TIP3    H268510   4.775   5.829   3.083  0.4074 -1.3867  1.5733
15699TIP3   OH268511   4.957   2.731   2.856 -0.1136 -0.0277  0.5854
15699TIP3    H168512   4.977   2.671   2.784 -2.2113  0.5939 -0.5640
15699TIP3    H268513   5.029   2.795   2.854  0.1472 -0.3396 -0.6051
15700TIP3   OH268514   5.230   0.164  17.129 -0.0316 -0.2832 -0.2394
15700TIP3    H168515   5.197   0.180  17.217  1.8583  2.3108  0.0337
15700TIP3    H268516   5.301   0.101  17.141 -0.5312 -0.8217 -0.0739
15701TIP3   OH268517   3.251   4.072  14.536  0.1620  0.1074 -0.1903
15701TIP3    H168518   3.284   4.154  14.573  0.8491 -0.9607  1.6284
15701TIP3    H268519   3.328   4.030  14.499 -0.0895  0.0100 -0.6093
15702TIP3   OH268520   2.834   3.196   1.292  0.1087  0.4268  0.1938
15702TIP3    H168521   2.781   3.268   1.327  0.5344  0.7939  0.0821
15702TIP3    H268522   2.814   3.194   1.199  0.4658  0.7084  0.1135
15703TIP3   OH268523   0.267   4.780  14.405  0.2553 -0.9697 -0.1583
15703TIP3    H168524   0.194   4.718  14.397  0.1911 -1.0153  0.6824
15703TIP3    H268525   0.253   4.843  14.335 -0.1658 -1.4165 -0.4816
15704TIP3   OH268526   2.726   6.147   3.494 -0.2817 -0.7646  0.2672
15704TIP3    H168527   2.779   6.214   3.450  0.0192 -0.5362  0.9786
15704TIP3    H268528   2.702   6.186   3.578  1.6093 -2.3224  1.5723
15705TIP3   OH268529   4.898   5.548  15.503 -0.1469  0.4604 -0.1086
15705TIP3    H168530   4.812   5.510  15.521 -0.0848  0.0102 -0.7420
15705TIP3    H268531   4.925   5.586  15.586 -0.5622 -0.1945  0.3295
15706TIP3   OH268532   3.963   4.953  15.281 -0.1158  0.1371  0.2348
15706TIP3    H168533   3.878   4.921  15.251 -0.2363  1.7190 -1.1629
15706TIP3    H268534   3.951   4.967  15.375 -1.4304  0.4035  0.0466
15707TIP3   OH268535   6.735   5.078   4.604 -0.1514 -0.3706 -0.1694
15707TIP3    H168536   6.639   5.084   4.605 -0.3127 -2.2865  1.2358
15707TIP3    H268537   6.756   5.039   4.689  1.8564 -0.1753 -0.5649
15708TIP3   OH268538   4.828   2.465  11.676  0.7362  0.5367 -0.3164
15708TIP3    H168539   4.873   2.547  11.657 -1.0296  1.4559 -0.5587
15708TIP3    H268540   4.866   2.403  11.613  0.9368  1.5527 -1.2181
15709TIP3   OH268541   4.053   2.558   4.756  0.0835  0.4217  0.8085
15709TIP3    H168542   4.128   2.502   4.776  0.7516  0.9531 -0.1180
15709TIP3    H268543   3.990   2.541   4.825  0.7247 -0.6657  1.1309
15710TIP3   OH268544   0.447   5.376   4.555 -0.0926 -0.5968  0.0694
15710TIP3    H168545   0.453   5.286   4.522 -1.2344 -1.0964  1.1726
15710TIP3    H268546   0.463   5.368   4.649 -2.4365  0.0002  0.5680
15711TIP3   OH268547   3.869   2.618   4.344 -0.0722 -0.9167  0.3896
15711TIP3    H168548   3.948   2.584   4.387  0.4574  0.8821  0.8840
15711TIP3    H268549   3.898   2.642   4.256 -0.1225 -0.5387  0.4730
15712TIP3   OH268550   5.204   4.379  15.390  0.7386  0.0239 -0.3671
15712TIP3    H168551   5.120   4.332  15.395  0.2524  1.0615  1.8554
15712TIP3    H268552   5.191   4.443  15.320  0.1361 -0.6803 -0.9164
15713TIP3   OH268553   5.919   2.210  14.566  0.0792  0.2758  0.1062
15713TIP3    H168554   5.962   2.214  14.652 -0.0689 -0.1009  0.1983
15713TIP3    H268555   5.991   2.204  14.503  0.1549 -1.8595  0.3429
15714TIP3   OH268556   2.790   3.395   2.574  0.3055 -0.1588  0.1373
15714TIP3    H168557   2.855   3.339   2.616 -0.3566 -0.6089  0.5648
15714TIP3    H268558   2.841   3.454   2.519  1.1122 -0.1901  0.8485
15715TIP3   OH268559   2.512   0.796  15.284  0.1320  0.3399  0.5424
15715TIP3    H168560   2.561   0.877  15.272  1.7897 -0.6615  0.3165
15715TIP3    H268561   2.458   0.788  15.205 -0.5075  1.5316  0.8596
15716TIP3   OH268562   2.058   5.305   2.967 -0.4219  0.5574  0.2074
15716TIP3    H168563   2.102   5.354   2.897  1.9628  2.0948  2.7008
15716TIP3    H268564   2.001   5.370   3.008  1.1471  0.7345  2.1632
15717TIP3   OH268565   2.341   2.859   0.601  0.5455  0.1369 -0.4604
15717TIP3    H168566   2.327   2.849   0.507  0.3260  0.8585 -0.5130
15717TIP3    H268567   2.415   2.920   0.607 -1.0164  2.0673 -0.1743
15718TIP3   OH268568   0.630   0.605  13.613  0.2683  0.0308  0.4414
15718TIP3    H168569   0.595   0.565  13.533  0.3482 -0.2199  0.5356
15718TIP3    H268570   0.618   0.699  13.599  1.0376  0.0290 -0.2164
15719TIP3   OH268571   1.643   2.114  13.352 -0.2744  0.4797  0.2548
15719TIP3    H168572   1.624   2.021  13.342 -1.1278  0.7834 -1.0131
15719TIP3    H268573   1.657   2.146  13.263  3.2687  0.9076  0.8824
15720TIP3   OH268574   4.118   3.406  14.978  0.5552  0.6031  0.4799
15720TIP3    H168575   4.206   3.376  15.001 -0.0244 -0.0581  1.8927
15720TIP3    H268576   4.061   3.332  15.000 -0.5049  1.5264  0.8779
15721TIP3   OH268577   1.877   0.576   2.707  0.0136  0.0322 -0.0692
15721TIP3    H168578   1.939   0.504   2.713 -0.1846 -0.0633  0.8111
15721TIP3    H268579   1.928   0.654   2.727 -0.0421  0.0066  0.1718
15722TIP3   OH268580   3.557   1.100   5.324 -0.1529 -0.2435  0.7719
15722TIP3    H168581   3.468   1.066   5.319 -0.9925  1.5920  2.4623
15722TIP3    H268582   3.558   1.153   5.404  2.2117  0.4693  0.3197
15723TIP3   OH268583   5.525   0.470  15.190  0.4017  0.3864  0.2169
15723TIP3    H168584   5.430   0.473  15.186  0.4042 -0.6097 -1.0312
15723TIP3    H268585   5.545   0.454  15.282 -0.6720 -0.3406  0.3260
15724TIP3   OH268586   1.807   5.694   4.609 -0.1192 -0.1287 -0.1137
15724TIP3    H168587   1.880   5.647   4.568 -0.0086 -0.3489  0.3322
15724TIP3    H268588   1.728   5.649   4.577  0.0261 -1.3143  1.1674
15725TIP3   OH268589   5.668   6.063  14.904 -0.2100  0.0040 -0.0575
15725TIP3    H168590   5.691   6.131  14.841  0.0892 -0.3325 -0.3098
15725TIP3    H268591   5.729   6.077  14.977  0.7701 -0.8529 -0.7004
15726TIP3   OH268592   4.609   5.683   0.883 -0.4868  0.5999  0.2914
15726TIP3    H168593   4.689   5.686   0.831 -0.1266 -0.5049  0.7691
15726TIP3    H268594   4.547   5.633   0.830 -0.3058 -0.0228  0.6611
15727TIP3   OH268595   5.380   2.069  14.217  0.0159  0.1808  0.2525
15727TIP3    H168596   5.403   2.114  14.136  1.5298 -0.7274  0.1629
15727TIP3    H268597   5.307   2.012  14.193  0.3990 -0.0152 -0.4482
15728TIP3   OH268598   4.262   0.859  10.409 -0.1629 -0.2712  0.0982
15728TIP3    H168599   4.307   0.789  10.361  2.5316  0.4442  1.5194
15728TIP3    H268600   4.286   0.846  10.500 -0.5612  1.8317  0.5350
15729TIP3   OH268601   0.957   6.640   4.220  0.0190  0.6385 -0.1305
15729TIP3    H168602   0.914   6.574   4.165  0.9329  0.3339 -0.4831
15729TIP3    H268603   0.903   6.644   4.299  0.9167 -1.7773  0.6498
15730TIP3   OH268604   0.345   6.249  15.524  0.2834  0.2157  0.0420
15730TIP3    H168605   0.332   6.337  15.489 -2.5033  1.0066  2.8435
15730TIP3    H268606   0.418   6.258  15.585  0.3886  0.4162 -0.1111
15731TIP3   OH268607   4.701   6.355   5.092 -0.6401 -0.0741 -0.6944
15731TIP3    H168608   4.740   6.339   5.006  1.4741  0.3100  0.1739
15731TIP3    H268609   4.749   6.299   5.152 -2.7990 -1.1325  0.1107
15732TIP3   OH268610   5.759   2.774   4.133 -0.4955  0.6271 -0.6846
15732TIP3    H168611   5.751   2.747   4.225 -1.0521  0.0821 -0.8891
15732TIP3    H268612   5.760   2.691   4.085 -0.2088  0.9159 -1.1703
15733TIP3   OH268613   4.396   6.334   0.990 -0.3247 -0.2693 -0.4984
15733TIP3    H168614   4.473   6.333   1.047 -0.0211 -2.9127 -0.8982
15733TIP3    H268615   4.323   6.313   1.049 -0.5326  0.7479 -0.3931
15734TIP3   OH268616   5.212   3.699  10.686 -0.1311  0.7157 -0.0101
15734TIP3    H168617   5.201   3.649  10.606 -0.4179 -0.3379  0.6756
15734TIP3    H268618   5.214   3.790  10.658 -2.3731  0.4799 -1.0091
15735TIP3   OH268619   3.166   2.996  16.908  0.5160  0.5665  0.2755
15735TIP3    H168620   3.174   3.074  16.852  1.5261  0.7101  0.6218
15735TIP3    H268621   3.246   2.946  16.893  0.2314 -0.0144  0.6573
15736TIP3   OH268622   0.226   1.988   1.008  0.0530 -0.2452 -0.4426
15736TIP3    H168623   0.168   2.031   0.945  2.3053  0.9320 -1.8040
15736TIP3    H268624   0.260   2.060   1.061  1.0416 -0.7794 -0.3516
15737TIP3   OH268625   5.897   0.468   3.556 -0.9183 -0.1848  0.2559
15737TIP3    H168626   5.899   0.545   3.613 -5.0929  1.4099 -1.5046
15737TIP3    H268627   5.906   0.393   3.616  0.0430  1.5613  2.3528
15738TIP3   OH268628   1.010   4.253   4.552  0.2201  0.8603  0.2037
15738TIP3    H168629   1.017   4.229   4.459  2.0358  1.8452  0.0690
15738TIP3    H268630   0.962   4.180   4.591  2.0348 -1.0372 -0.9667
15739TIP3   OH268631   2.549   2.439  11.555  0.6641 -0.0985 -0.7141
15739TIP3    H168632   2.466   2.393  11.547 -0.1120  1.1563 -0.0012
15739TIP3    H268633   2.613   2.370  11.571 -0.5169 -0.9301  0.5102
15740TIP3   OH268634   3.076   0.105   3.763 -0.7889  0.2392 -0.0306
15740TIP3    H168635   3.107   0.016   3.743  3.2723  1.1357  1.8644
15740TIP3    H268636   3.091   0.154   3.682 -3.2597 -0.7814 -1.1584
15741TIP3   OH268637   1.670   0.415   4.937  0.2759 -0.1705 -0.2378
15741TIP3    H168638   1.583   0.379   4.920  0.3376 -0.2028 -0.4907
15741TIP3    H268639   1.682   0.406   5.032 -0.4215  0.8031 -0.0526
15742TIP3   OH268640   4.562   5.513  14.696 -0.0796 -0.4087 -0.2728
15742TIP3    H168641   4.531   5.452  14.763 -4.5195  1.5461 -0.4247
15742TIP3    H268642   4.602   5.585  14.745 -2.4188  0.5350  0.2940
15743TIP3   OH268643   3.521   0.145  13.222  0.4624  0.0958 -0.0654
15743TIP3    H168644   3.512   0.075  13.286  1.5915  0.6905  0.7662
15743TIP3    H268645   3.507   0.225  13.272  0.6750  0.5335 -0.6988
15744TIP3   OH268646   1.073   0.598  14.130 -0.0042 -0.1610 -0.3489
15744TIP3    H168647   1.051   0.685  14.095 -0.6109  0.4821  1.5827
15744TIP3    H268648   1.153   0.612  14.181  0.9920 -1.1356 -1.6030
15745TIP3   OH268649   4.736   3.412  16.849 -0.3908  0.2072 -0.0241
15745TIP3    H168650   4.813   3.458  16.815 -0.0639  1.1769  1.9283
15745TIP3    H268651   4.668   3.428  16.784  0.9389 -0.3266 -1.5810
15746TIP3   OH268652   6.118   5.299   3.019 -0.2336  0.3778 -0.5812
15746TIP3    H168653   6.151   5.296   2.929  0.0275 -0.9752 -0.4532
15746TIP3    H268654   6.164   5.227   3.064 -0.2734  1.1175  0.6604
15747TIP3   OH268655   6.677   6.670  13.661 -0.0885 -0.0841 -0.3738
15747TIP3    H168656   6.751   6.670  13.600 -0.2649  0.2371 -0.5895
15747TIP3    H268657   6.648   6.579  13.663  0.6351 -0.3112  0.1055
15748TIP3   OH268658   2.129   2.175  15.842 -0.1569 -0.3552  0.4902
15748TIP3    H168659   2.108   2.096  15.793 -0.2218 -0.3085  0.4425
15748TIP3    H268660   2.123   2.246  15.778  1.1932 -0.4643  0.2287
15749TIP3   OH268661   1.334   0.810   5.736  0.1279  0.1994 -0.4509
15749TIP3    H168662   1.248   0.775   5.710  0.5131  0.8120 -2.6723
15749TIP3    H268663   1.395   0.739   5.717  0.0527 -0.5259  1.8670
15750TIP3   OH268664   0.602   2.386  15.498 -0.0675  0.3594 -0.0906
15750TIP3    H168665   0.549   2.450  15.544  1.9233  0.5628  2.0280
15750TIP3    H268666   0.608   2.311  15.557  0.9940 -0.1253 -0.7751
15751TIP3   OH268667   2.565   4.618  11.685  0.3056  0.2750 -0.0554
15751TIP3    H168668   2.563   4.702  11.730  0.8897  0.6616 -0.7421
15751TIP3    H268669   2.657   4.593  11.686 -0.0238 -0.9106  1.1664
15752TIP3   OH268670   2.544   2.245  14.331  0.0423  0.2867  0.4623
15752TIP3    H168671   2.569   2.256  14.240 -2.3026 -0.4970 -0.2909
15752TIP3    H268672   2.626   2.219  14.375  1.4838  1.9799 -1.1282
15753TIP3   OH268673   5.785   0.345   0.353 -0.0623  0.0124  0.1825
15753TIP3    H168674   5.780   0.268   0.297 -0.3552 -0.0089  0.2356
15753TIP3    H268675   5.720   0.405   0.317  0.6362  0.5054 -0.2659
15754TIP3   OH268676   4.648   6.308   0.834 -0.2982  0.0158 -0.0597
15754TIP3    H168677   4.722   6.330   0.891  0.2712 -0.8422 -0.4558
15754TIP3    H268678   4.579   6.280   0.894 -0.1028  0.2460  0.2766
15755TIP3   OH268679   3.290   0.129  12.036 -0.1871  0.3144  0.1817
15755TIP3    H168680   3.323   0.120  11.946 -1.8627  1.2511 -0.5642
15755TIP3    H268681   3.364   0.105  12.091  0.5111 -1.5021 -1.4570
15756TIP3   OH268682   4.906   0.734  11.337  0.0050 -0.8262 -0.0398
15756TIP3    H168683   4.934   0.754  11.248 -0.7021 -1.6568 -0.4532
15756TIP3    H268684   4.973   0.773  11.392  0.2640 -0.0004 -0.9197
15757TIP3   OH268685   0.273   0.792   4.567  0.3659 -0.1433  0.2063
15757TIP3    H168686   0.267   0.851   4.642 -0.4171 -0.4836  0.4110
15757TIP3    H268687   0.194   0.811   4.515  0.3844 -0.6330 -0.0005
15758TIP3   OH268688   4.357   0.077   1.941 -0.0808  0.2111  0.5112
15758TIP3    H168689   4.275   0.037   1.911 -0.1781  0.8474 -0.0830
15758TIP3    H268690   4.425   0.021   1.905 -0.2593 -1.0149  2.0011
15759TIP3   OH268691   2.906   1.013   5.036 -0.0471  0.0036  0.4661
15759TIP3    H168692   2.847   1.077   5.076  0.5807  1.1118 -0.3618
15759TIP3    H268693   2.875   0.929   5.070 -1.6886  0.6159  0.5712
15760TIP3   OH268694   6.333   4.224   3.230 -0.4716 -0.2156 -0.5845
15760TIP3    H168695   6.246   4.249   3.201 -0.3138 -0.1311 -0.9846
15760TIP3    H268696   6.354   4.147   3.177 -0.0040  0.2011 -1.0072
15761TIP3   OH268697   0.634   2.430  13.159  0.3367 -0.1893 -0.0245
15761TIP3    H168698   0.579   2.445  13.083  0.5569  1.1556  0.0618
15761TIP3    H268699   0.593   2.356  13.205 -1.3899  0.7776  0.0345
15762TIP3   OH268700   1.124   5.189   3.553 -0.1942  0.6053 -0.1363
15762TIP3    H168701   1.036   5.179   3.517  0.1166 -1.1716 -0.4633
15762TIP3    H268702   1.121   5.141   3.636  0.3306  0.9524  0.0862
15763TIP3   OH268703   5.962   1.382  14.344  0.6538 -0.6062 -0.1496
15763TIP3    H168704   6.018   1.344  14.276  1.1045  0.5443 -0.4223
15763TIP3    H268705   5.911   1.449  14.299  0.8755  0.0860  0.6297
15764TIP3   OH268706   4.785   1.667   2.491  0.2501 -0.4896 -0.5537
15764TIP3    H168707   4.818   1.593   2.439 -0.3626 -1.1365 -0.0272
15764TIP3    H268708   4.863   1.702   2.534  0.8292  0.3009 -2.2054
15765TIP3   OH268709   5.240   2.098   0.796  0.2141 -0.1567  0.3922
15765TIP3    H168710   5.247   2.098   0.700  1.3359 -1.7492  0.4636
15765TIP3    H268711   5.146   2.092   0.813 -0.0537  0.9587 -0.6038
15766TIP3   OH268712   4.727   4.387   0.424 -0.1160 -0.2425 -0.7281
15766TIP3    H168713   4.783   4.411   0.350 -0.4430  2.6958 -0.0973
15766TIP3    H268714   4.762   4.437   0.498 -1.3828 -1.1286  0.5007
15767TIP3   OH268715   6.613   3.477   4.193 -0.8409 -0.0429 -0.4659
15767TIP3    H168716   6.592   3.499   4.284  0.5577 -0.4005 -0.0541
15767TIP3    H268717   6.658   3.554   4.159  1.7138 -1.1887  0.1950
15768TIP3   OH268718   0.080   5.252  14.767 -0.2642 -0.5085  0.5225
15768TIP3    H168719   0.102   5.256  14.674 -0.1529  2.3758  0.6370
15768TIP3    H268720   0.073   5.343  14.794 -3.3679 -1.2901  2.6323
15769TIP3   OH268721   0.542   0.789   3.977  0.1548 -0.2535 -0.2625
15769TIP3    H168722   0.548   0.850   4.051  1.7571  1.1311 -1.4943
15769TIP3    H268723   0.544   0.844   3.900  0.5457 -1.8046 -1.3932
15770TIP3   OH268724   2.440   5.428  11.385 -0.1501 -0.3554 -0.2802
15770TIP3    H168725   2.348   5.425  11.359 -0.5505 -0.9262  1.1398
15770TIP3    H268726   2.489   5.402  11.307 -1.2717 -1.4083 -0.6361
15771TIP3   OH268727   1.102   2.811  11.415  0.2423  0.2267  0.3282
15771TIP3    H168728   1.113   2.756  11.337 -1.9771 -1.9858  1.4959
15771TIP3    H268729   1.162   2.774  11.479 -0.6003 -0.2835  0.8294
15772TIP3   OH268730   4.257   3.310  16.095  0.5784 -0.6736 -0.6808
15772TIP3    H168731   4.257   3.405  16.112  0.9341 -0.6105 -1.0203
15772TIP3    H268732   4.282   3.302  16.003  2.1624 -1.1737 -0.2184
15773TIP3   OH268733   6.266   5.710   4.813 -0.7017  0.1544 -0.6735
15773TIP3    H168734   6.253   5.664   4.730 -2.5372 -1.7005  0.5799
15773TIP3    H268735   6.193   5.771   4.819 -1.3675 -0.6952  0.1655
15774TIP3   OH268736   5.142   3.366  12.195  1.0762 -0.1236 -0.3694
15774TIP3    H168737   5.111   3.277  12.213 -1.4945  0.8232  0.0678
15774TIP3    H268738   5.237   3.360  12.202  0.8952 -2.6767  0.4116
15775TIP3   OH268739   6.339   5.356   4.640 -0.5046  0.0070  0.3273
15775TIP3    H168740   6.278   5.355   4.714 -0.4958 -1.9983  0.3383
15775TIP3    H268741   6.282   5.351   4.563 -0.4011 -1.3882  0.3235
15776TIP3   OH268742   4.438   6.732   2.997 -0.4207 -0.3463 -0.2140
15776TIP3    H168743   4.504   6.698   2.937  0.4218 -0.5137  0.7982
15776TIP3    H268744   4.420   6.820   2.965  1.5119  0.3193  0.4626
15777TIP3   OH268745   3.682   1.774  11.215  0.0723  0.0394  0.1497
15777TIP3    H168746   3.649   1.685  11.217 -2.5276  0.9599  0.2286
15777TIP3    H268747   3.675   1.804  11.306 -0.2978  0.7343 -0.1033
15778TIP3   OH268748   4.417   4.646  12.754  0.1474 -1.0251 -0.3003
15778TIP3    H168749   4.485   4.688  12.807  0.3424  0.1742 -1.4866
15778TIP3    H268750   4.336   4.659  12.804  0.5785 -1.3417  0.4949
15779TIP3   OH268751   3.166   1.173   3.420 -0.6139  0.3152 -0.1838
15779TIP3    H168752   3.107   1.110   3.378  0.5503 -2.3180  1.9838
15779TIP3    H268753   3.110   1.224   3.478 -1.7474  2.1004 -2.7349
15780TIP3   OH268754   0.461   0.843  13.540  0.0282  0.6448  0.2164
15780TIP3    H168755   0.403   0.894  13.483 -2.8495 -3.0355 -0.3336
15780TIP3    H268756   0.414   0.837  13.622  0.3024 -1.1972  0.2418
15781TIP3   OH268757   5.230   3.528  16.942  0.1722  0.0263 -0.0360
15781TIP3    H168758   5.284   3.478  17.003 -1.4205 -2.0674 -0.2735
15781TIP3    H268759   5.168   3.574  16.998 -1.5697 -2.2365 -0.0405
15782TIP3   OH268760   2.164   2.816  15.534  0.0863 -0.4837  0.2207
15782TIP3    H168761   2.216   2.762  15.594 -0.0483  1.7305  2.3886
15782TIP3    H268762   2.085   2.837  15.583 -0.9192 -0.2041 -1.4679
15783TIP3   OH268763   3.329   3.371   6.046 -0.1828 -0.0646  0.1144
15783TIP3    H168764   3.345   3.280   6.071  0.5595  0.0282 -0.0323
15783TIP3    H268765   3.240   3.388   6.078 -0.7907 -1.2008 -0.8895
15784TIP3   OH268766   3.001   4.758  16.447 -0.4110 -0.1415 -0.1605
15784TIP3    H168767   3.005   4.758  16.352 -0.1321  0.3215 -0.1464
15784TIP3    H268768   3.010   4.665  16.471  0.6518 -0.1417 -0.5341
15785TIP3   OH268769   1.312   0.025  17.175  0.0016 -0.6029  0.4618
15785TIP3    H168770   1.232   0.077  17.183  0.4587  0.0891  0.5152
15785TIP3    H268771   1.298  -0.028  17.097 -0.0579  0.3019 -0.1499
15786TIP3   OH268772   1.873   3.519  10.569 -0.1097 -0.1166 -0.5117
15786TIP3    H168773   1.845   3.428  10.576 -0.8762  0.1989  0.5900
15786TIP3    H268774   1.844   3.546  10.482 -2.1358 -0.1786  0.1168
15787TIP3   OH268775   1.935   5.771   5.876 -0.0705  0.4298  0.3090
15787TIP3    H168776   1.976   5.697   5.831  0.9653  1.4588 -0.4297
15787TIP3    H268777   1.989   5.784   5.954  1.2339  2.0072 -0.8420
15788TIP3   OH268778   1.854   2.811   3.823  0.1363  0.1540  0.8097
15788TIP3    H168779   1.922   2.744   3.820 -0.9024 -0.9329  0.9392
15788TIP3    H268780   1.819   2.813   3.734  0.5419  0.9293  0.6653
15789TIP3   OH268781   0.947   6.142  11.536  0.2783 -0.1796  0.0974
15789TIP3    H168782   1.003   6.173  11.465 -0.1420 -0.8160 -0.5232
15789TIP3    H268783   0.917   6.056  11.506 -0.4916 -0.1300  0.7194
15790TIP3   OH268784   4.687   0.198  15.348 -0.2393  0.0440 -0.2154
15790TIP3    H168785   4.712   0.183  15.439  1.8388  0.8540 -0.6333
15790TIP3    H268786   4.717   0.120  15.301  0.4175  0.4681 -0.5114
15791TIP3   OH268787   6.652   6.351  17.120  0.1347  0.2874  0.3015
15791TIP3    H168788   6.614   6.357  17.208 -0.1425 -0.1576  0.2087
15791TIP3    H268789   6.688   6.263  17.116  0.2852  0.3631  0.0184
15792TIP3   OH268790   4.451   4.611  11.806 -0.3800  0.6295  0.4328
15792TIP3    H168791   4.449   4.666  11.728 -0.8458 -1.3250 -0.9885
15792TIP3    H268792   4.399   4.534  11.781  1.9492 -1.3739  1.6337
15793TIP3   OH268793   3.822   3.749  13.922 -0.0656  0.0698  0.4120
15793TIP3    H168794   3.878   3.827  13.916  0.7495 -0.4928  0.6746
15793TIP3    H268795   3.833   3.706  13.837 -0.1880  0.0154  0.4250
15794TIP3   OH268796   1.028   2.462  13.561  0.2586  0.1974  0.3422
15794TIP3    H168797   1.069   2.377  13.574  1.4398  0.6284 -0.4315
15794TIP3    H268798   0.944   2.443  13.521 -0.0512 -0.6774  1.4153
15795TIP3   OH268799   6.732   5.541   0.574  0.5820  0.2772  0.0345
15795TIP3    H168800   6.789   5.465   0.560  0.2946  0.0035  0.3600
15795TIP3    H268801   6.779   5.593   0.639  0.5298  0.1187  0.2008
15796TIP3   OH268802   1.623   1.310  16.587 -0.2759  0.5180  0.4233
15796TIP3    H168803   1.717   1.311  16.604 -0.0730  1.9725 -0.6973
15796TIP3    H268804   1.583   1.341  16.668  0.2974  1.2699  0.4202
15797TIP3   OH268805   6.514   3.166  16.882  0.0374  0.4776  0.7242
15797TIP3    H168806   6.437   3.223  16.884  0.5697  1.3089 -1.4656
15797TIP3    H268807   6.579   3.213  16.935 -0.3102  0.7395  0.9255
15798TIP3   OH268808   5.766   3.920  13.436 -0.0170  1.0772 -0.1302
15798TIP3    H168809   5.751   3.999  13.488  2.3808  1.3396  0.2135
15798TIP3    H268810   5.708   3.854  13.475  1.2369  1.4521  2.4464
15799TIP3   OH268811   2.257   6.118   4.079  0.2030 -0.3086  0.3986
15799TIP3    H168812   2.310   6.061   4.136  0.8981 -0.0768 -0.0135
15799TIP3    H268813   2.176   6.068   4.064  0.5502 -0.9240  0.5440
15800TIP3   OH268814   3.479   3.557  14.041 -0.4573 -0.7149  0.3829
15800TIP3    H168815   3.502   3.648  14.023  1.9725 -1.2422  0.6110
15800TIP3    H268816   3.417   3.561  14.114  0.9634  0.6903  1.5413
15801TIP3   OH268817   5.061   4.795   1.884 -0.3408 -0.1094 -0.1676
15801TIP3    H168818   5.102   4.710   1.868 -0.0628  0.6577 -3.9498
15801TIP3    H268819   4.967   4.776   1.887 -0.0935 -1.0513  2.8515
15802TIP3   OH268820   5.042   2.723   0.164 -0.5741  0.2112  0.1739
15802TIP3    H168821   5.054   2.675   0.246  0.6701  1.4206  0.7425
15802TIP3    H268822   4.953   2.757   0.169 -0.7908 -0.4108  0.6497
15803TIP3   OH268823   0.660   0.895  14.538 -0.1447 -0.5347 -0.1815
15803TIP3    H168824   0.612   0.977  14.533 -0.3537 -0.5830  0.9237
15803TIP3    H268825   0.645   0.853  14.454 -3.7273 -1.4924  0.8686
15804TIP3   OH268826   1.554   0.692  16.582  0.3442  0.4934 -0.2639
15804TIP3    H168827   1.643   0.668  16.557  0.8025  1.0275  0.8311
15804TIP3    H268828   1.510   0.609  16.600  1.1205  0.3057  0.8437
15805TIP3   OH268829   1.775   4.204  15.776 -0.0589 -0.2363 -0.6033
15805TIP3    H168830   1.702   4.251  15.736 -0.8081 -1.6064 -0.8841
15805TIP3    H268831   1.781   4.123  15.726  0.0871 -1.2118  0.9580
15806TIP3   OH268832   3.059   3.738   4.565 -0.0400  0.1164 -0.8871
15806TIP3    H168833   3.139   3.781   4.594 -0.1076 -1.2140  1.4716
15806TIP3    H268834   3.020   3.798   4.501  1.7797  1.7293 -0.5133
15807TIP3   OH268835   2.073   0.750  15.099 -0.2116  0.5935  0.7820
15807TIP3    H168836   2.150   0.695  15.115 -0.3144  0.3754  0.5257
15807TIP3    H268837   2.102   0.813  15.034 -0.5242 -0.0959 -0.0477
15808TIP3   OH268838   5.206   1.262   4.466  0.1028 -0.2524  0.1905
15808TIP3    H168839   5.115   1.290   4.455  0.2269  0.8639  1.7327
15808TIP3    H268840   5.230   1.292   4.554  2.7051  1.6299 -1.0804
15809TIP3   OH268841   1.561   4.890  15.926 -0.8440 -0.1373  0.6182
15809TIP3    H168842   1.639   4.896  15.870 -0.6105 -2.8637  0.5682
15809TIP3    H268843   1.489   4.919  15.870 -0.4364 -1.6874 -0.7658
15810TIP3   OH268844   1.382   1.656   3.082  0.3408 -0.2261  0.0701
15810TIP3    H168845   1.455   1.594   3.077  0.9684  0.4990  0.1894
15810TIP3    H268846   1.307   1.602   3.106  0.1473 -1.5218 -3.1068
15811TIP3   OH268847   0.400   3.541   3.538 -0.6027  0.1272 -0.1139
15811TIP3    H168848   0.343   3.554   3.614  1.5727 -0.0246  1.6194
15811TIP3    H268849   0.425   3.630   3.511  0.3391  0.1401  0.7459
15812TIP3   OH268850   0.659   0.570  11.818 -0.1862 -0.8574 -0.4561
15812TIP3    H168851   0.602   0.598  11.890  0.6381 -0.4441  0.0457
15812TIP3    H268852   0.724   0.640  11.810  0.1888 -1.2736 -1.0883
15813TIP3   OH268853   4.962   3.317  17.166 -0.2130  0.5210 -0.6502
15813TIP3    H168854   4.892   3.299  17.229  0.1108 -0.7801 -0.6481
15813TIP3    H268855   5.022   3.376  17.212  0.2424 -0.7547  0.4122
15814TIP3   OH268856   6.774   2.128   6.160 -0.5486  0.1788  0.4492
15814TIP3    H168857   6.709   2.058   6.152 -0.7528  0.4326 -0.1006
15814TIP3    H268858   6.855   2.082   6.185 -0.6060 -0.2850 -0.2195
15815TIP3   OH268859   0.702   6.590  16.100  0.9418 -0.0832  0.5276
15815TIP3    H168860   0.720   6.564  16.190 -2.3821 -1.4074  0.8977
15815TIP3    H268861   0.676   6.682  16.106 -1.4181 -0.7602  1.2927
15816TIP3   OH268862   1.098   5.373   0.364 -0.3908  0.2531 -0.4911
15816TIP3    H168863   1.036   5.394   0.294 -2.3625 -0.4653  0.9683
15816TIP3    H268864   1.042   5.346   0.437  1.7355 -3.4392 -0.1006
15817TIP3   OH268865   5.828   5.388  16.649 -0.1754 -0.0547 -0.5270
15817TIP3    H168866   5.917   5.363  16.676 -0.1875 -0.6412 -1.0219
15817TIP3    H268867   5.777   5.386  16.730  0.5547  1.6089 -0.0062
15818TIP3   OH268868   4.508   1.809  11.466 -0.2642 -0.4657  0.0840
15818TIP3    H168869   4.503   1.904  11.470 -1.9859 -0.5326  0.2585
15818TIP3    H268870   4.425   1.779  11.504 -0.0551 -2.0101 -0.6064
15819TIP3   OH268871   0.655   3.964   2.903 -0.1077 -0.1789  0.1858
15819TIP3    H168872   0.733   4.002   2.865  0.5164  1.1358  2.6873
15819TIP3    H268873   0.591   4.035   2.904 -0.3992 -0.4417  0.7599
15820TIP3   OH268874   5.808   3.188   4.964 -0.2910  0.6055 -0.1584
15820TIP3    H168875   5.728   3.171   5.014  0.3233 -0.3646  0.5210
15820TIP3    H268876   5.865   3.234   5.026  0.7249 -1.1886  0.2654
15821TIP3   OH268877   2.774   3.186   3.107  0.3488 -0.2248 -0.9354
15821TIP3    H168878   2.827   3.241   3.050  1.2856  1.0639  1.1057
15821TIP3    H268879   2.697   3.164   3.055  0.2703  2.4822 -2.0327
15822TIP3   OH268880   5.580   3.253   6.305  0.1943 -0.3872 -0.2125
15822TIP3    H168881   5.500   3.204   6.284  0.2092 -1.2473  1.6334
15822TIP3    H268882   5.606   3.221   6.392  1.5149  1.2208  0.0149
15823TIP3   OH268883   0.544   3.489  16.915  0.2429  0.1034  0.3460
15823TIP3    H168884   0.510   3.579  16.916 -1.0865 -0.3834  3.6352
15823TIP3    H268885   0.522   3.456  16.828  1.3933  3.1698 -1.1799
15824TIP3   OH268886   6.365   0.313   4.166  0.5601 -0.6063 -0.2100
15824TIP3    H168887   6.272   0.339   4.160  0.8546  0.5542  0.1082
15824TIP3    H268888   6.389   0.332   4.257  0.8788 -1.7138 -0.0656
15825TIP3   OH268889   3.443   1.020  16.381  0.4466  0.0914  0.1875
15825TIP3    H168890   3.355   1.025  16.418 -0.4424 -0.4950 -1.7737
15825TIP3    H268891   3.495   0.977  16.449 -1.6486 -3.0249 -0.0644
15826TIP3   OH268892   4.734   0.618  11.521  0.0679  0.2838  0.1527
15826TIP3    H168893   4.798   0.637  11.590  0.5160 -0.5414 -0.0263
15826TIP3    H268894   4.785   0.625  11.440 -0.7071  2.3742 -0.1901
15827TIP3   OH268895   5.712   6.359   2.941 -0.3082 -0.0044  0.5356
15827TIP3    H168896   5.629   6.312   2.932  0.0881 -0.3852 -1.3224
15827TIP3    H268897   5.686   6.448   2.963 -1.1559 -0.4713  1.4693
15828TIP3   OH268898   4.808   3.681  16.560 -0.3049 -0.2048 -0.0690
15828TIP3    H168899   4.768   3.722  16.637 -0.5542  0.9028 -0.7732
15828TIP3    H268900   4.860   3.751  16.520 -0.7980 -0.5431 -1.3331
15829TIP3   OH268901   3.547   4.812   4.485 -0.5351  0.3458 -0.1100
15829TIP3    H168902   3.533   4.802   4.579 -0.3420 -1.9556 -0.2970
15829TIP3    H268903   3.459   4.828   4.450 -0.6892  0.5806  0.3762
15830TIP3   OH268904   5.923   3.117  12.991 -0.6323 -0.4319  0.1035
15830TIP3    H168905   5.999   3.151  13.039  1.1283 -0.6822 -2.3955
15830TIP3    H268906   5.868   3.194  12.975  0.2700  0.1783 -0.1052
15831TIP3   OH268907   1.578   3.313   4.486  0.1134  0.0510 -0.3290
15831TIP3    H168908   1.542   3.317   4.575 -1.0069 -0.8034 -0.7465
15831TIP3    H268909   1.658   3.261   4.496  0.9977  1.5276  0.5003
15832TIP3   OH268910   6.685   0.775   0.241  0.1432  0.1213  0.5081
15832TIP3    H168911   6.692   0.870   0.254  0.3941  0.3006 -0.9435
15832TIP3    H268912   6.736   0.758   0.163  1.3005 -1.4246  1.5766
15833TIP3   OH268913   1.499   3.894  16.842  0.0028 -0.5888 -0.0034
15833TIP3    H168914   1.592   3.874  16.829  0.2778  0.0790  0.8543
15833TIP3    H268915   1.474   3.844  16.920 -0.2827 -0.5535 -0.0705
15834TIP3   OH268916   1.523   2.882  12.579 -0.1553  0.0224 -0.2417
15834TIP3    H168917   1.569   2.959  12.610 -0.4362 -0.5104  1.5372
15834TIP3    H268918   1.573   2.808  12.613  0.4038 -0.6118 -2.3497
15835TIP3   OH268919   1.260   5.193   4.002 -0.0686  0.4942 -0.4439
15835TIP3    H168920   1.333   5.181   3.941 -1.1264  0.6497 -1.7449
15835TIP3    H268921   1.197   5.246   3.954 -0.9844  0.4851  0.7380
15836TIP3   OH268922   1.551   1.357   6.686  0.2742 -0.1149 -0.0864
15836TIP3    H168923   1.577   1.298   6.757 -1.2857  0.5944  1.1090
15836TIP3    H268924   1.481   1.310   6.641 -0.0201  0.2248  0.0133
15837TIP3   OH268925   1.150   2.542   0.962  0.5419 -0.2171  0.3091
15837TIP3    H168926   1.204   2.611   1.001  0.2588 -0.2486  0.7546
15837TIP3    H268927   1.091   2.588   0.903  1.2326 -0.2064 -0.3916
15838TIP3   OH268928   2.296   4.975  15.511 -0.0727  0.0294 -0.0722
15838TIP3    H168929   2.309   5.057  15.465  1.2037 -0.1524 -0.0546
15838TIP3    H268930   2.363   4.975  15.580 -0.1649 -0.9458  0.0272
15839TIP3   OH268931   0.585   1.310   1.913 -0.1149  0.8377 -0.0219
15839TIP3    H168932   0.626   1.387   1.953  0.1071  0.7270 -0.0363
15839TIP3    H268933   0.540   1.267   1.986 -0.5064  1.1517 -0.0736
15840TIP3   OH268934   0.943   2.721   0.919  0.4653  0.4727 -0.0503
15840TIP3    H168935   0.931   2.811   0.889  1.5699  0.4564 -0.5724
15840TIP3    H268936   0.859   2.679   0.902 -0.1862  1.4998  0.5596
15841TIP3   OH268937   2.648   0.946   1.174  0.1168  0.5306 -0.2058
15841TIP3    H168938   2.608   1.033   1.184 -0.7083  0.3031 -1.5342
15841TIP3    H268939   2.575   0.888   1.155  0.4946 -0.7111  1.9461
15842TIP3   OH268940   6.367   3.283  11.370 -0.2523 -0.3193 -0.4591
15842TIP3    H168941   6.331   3.327  11.293  0.0872  1.0698  0.1480
15842TIP3    H268942   6.388   3.195  11.340 -0.4214  0.1031 -1.8700
15843TIP3   OH268943   0.249   0.718  11.802  0.0570 -0.0663  0.4817
15843TIP3    H168944   0.160   0.714  11.768  1.1448  0.0977 -2.4625
15843TIP3    H268945   0.295   0.646  11.759  1.1153 -0.8733  2.8272
15844TIP3   OH268946   2.892   3.210  12.496 -0.4201  0.7565 -0.0159
15844TIP3    H168947   2.845   3.231  12.577  0.6980  0.2757  0.7717
15844TIP3    H268948   2.933   3.293  12.469 -1.3259  1.0666 -0.4511
15845TIP3   OH268949   4.254   6.403   3.908 -0.5241  0.1856  0.3664
15845TIP3    H168950   4.206   6.337   3.959  0.4460 -0.8307 -0.0013
15845TIP3    H268951   4.343   6.400   3.943 -0.3857  1.0326  0.0861
15846TIP3   OH268952   1.354   5.509  16.316 -0.0944 -0.1781  0.0207
15846TIP3    H168953   1.270   5.547  16.340  0.4734  0.4713  1.0680
15846TIP3    H268954   1.386   5.564  16.245 -0.0700  0.2481  0.3588
15847TIP3   OH268955   4.431   1.831   4.978  0.0417  0.0756  0.2853
15847TIP3    H168956   4.459   1.866   5.063  1.4387  1.6613 -0.8001
15847TIP3    H268957   4.442   1.904   4.917 -2.0457 -0.6994 -1.0618
15848TIP3   OH268958   0.389   3.021   4.921 -0.4416 -0.0105 -0.4619
15848TIP3    H168959   0.425   2.940   4.885  0.0777  0.1784 -0.3713
15848TIP3    H268960   0.393   3.010   5.016 -0.7534 -0.0406 -0.4486
15849TIP3   OH268961   6.383   5.990  13.866  0.5035  0.3095  0.3891
15849TIP3    H168962   6.338   5.907  13.848 -0.3868  0.8693  0.0420
15849TIP3    H268963   6.314   6.050  13.893  1.0635  1.1382 -0.0114
15850TIP3   OH268964   2.807   0.460   5.511 -0.5827  0.0567  0.5481
15850TIP3    H168965   2.756   0.540   5.523  0.3137  0.6466  0.5001
15850TIP3    H268966   2.818   0.425   5.599  2.7888  2.3694  1.1505
15851TIP3   OH268967   5.492   4.561   2.354  0.2449 -0.3386  0.9745
15851TIP3    H168968   5.548   4.635   2.330 -1.2403  0.3720 -0.3559
15851TIP3    H268969   5.551   4.485   2.351  1.5173  0.6046  1.2550
15852TIP3   OH268970   4.690   3.714  13.794 -0.4723  0.0155 -0.2761
15852TIP3    H168971   4.678   3.803  13.760  0.4379  0.5434  0.7497
15852TIP3    H268972   4.621   3.704  13.860 -1.4011 -0.5291 -1.3073
15853TIP3   OH268973   4.035   1.428  11.379 -0.0974 -0.0918  0.8739
15853TIP3    H168974   4.104   1.469  11.432 -1.7099  2.9223  0.7481
15853TIP3    H268975   4.053   1.458  11.290 -1.3092  0.3505  0.7775
15854TIP3   OH268976   3.309   3.620   6.237 -0.3452  0.3696  0.3652
15854TIP3    H168977   3.240   3.582   6.182 -0.5419  0.6125  0.4411
15854TIP3    H268978   3.369   3.547   6.254  0.3187  0.5625 -1.0871
15855TIP3   OH268979   3.326   5.181   0.343 -0.1743 -0.5574 -0.1375
15855TIP3    H168980   3.321   5.086   0.356 -1.5187 -0.3824  0.7341
15855TIP3    H268981   3.250   5.201   0.287  0.6592 -0.1168 -1.1313
15856TIP3   OH268982   3.980   6.668   5.292 -0.5557 -0.0124  0.7059
15856TIP3    H168983   4.042   6.716   5.348  2.0125 -2.8824  0.4623
15856TIP3    H268984   3.971   6.583   5.335 -1.8763 -0.7462 -0.9931
15857TIP3   OH268985   2.503   4.741  15.634  0.1264 -0.4765  0.7106
15857TIP3    H168986   2.515   4.834  15.654 -1.3668 -0.0024 -0.5191
15857TIP3    H268987   2.568   4.722  15.566 -1.3908  0.3728 -1.0119
15858TIP3   OH268988   2.887   3.051   0.307  0.0496 -0.0554 -0.1303
15858TIP3    H168989   2.978   3.040   0.333  0.6571  0.4125 -1.9653
15858TIP3    H268990   2.888   3.043   0.211 -1.6984  0.8042 -0.2431
15859TIP3   OH268991   4.755   1.364  11.107  0.1407 -0.2746 -0.2524
15859TIP3    H168992   4.773   1.374  11.014  0.1245  0.4888 -0.1818
15859TIP3    H268993   4.839   1.338  11.145  0.5286  0.9085 -0.2699
15860TIP3   OH268994   2.578   5.988  13.482 -0.2408 -0.1441 -0.2774
15860TIP3    H168995   2.658   6.033  13.452 -0.2522 -0.1118 -0.2603
15860TIP3    H268996   2.553   6.034  13.562 -0.9759  0.6422 -0.9532
15861TIP3   OH268997   4.954   2.696  11.568 -0.1728 -0.5937 -0.4799
15861TIP3    H168998   5.001   2.769  11.530 -2.5961  1.8095  0.9573
15861TIP3    H268999   4.865   2.703  11.534 -1.2398 -1.0042  2.0462
15862TIP3   OH269000   4.971   5.979  11.494 -0.0864 -0.0339 -0.0709
15862TIP3    H169001   4.924   6.058  11.469  0.6410 -0.2678 -2.2260
15862TIP3    H269002   4.907   5.928  11.544 -0.4911  1.9744  1.5403
15863TIP3   OH269003   4.171   3.560   4.277 -0.5085  0.3640 -0.1666
15863TIP3    H169004   4.227   3.557   4.199 -0.8285  1.5646 -0.4489
15863TIP3    H269005   4.088   3.524   4.248 -1.1154  2.2004 -0.8176
15864TIP3   OH269006   4.390   4.062   0.126  0.7864 -0.2832 -0.7515
15864TIP3    H169007   4.330   4.120   0.079 -2.0440 -1.6764  1.0086
15864TIP3    H269008   4.421   4.114   0.200 -0.0304 -0.2986 -0.3998
15865TIP3   OH269009   5.081   2.912  15.484  0.0247 -0.1953 -0.2039
15865TIP3    H169010   5.152   2.948  15.431 -0.3798  1.2943  0.2316
15865TIP3    H269011   5.104   2.934  15.574 -0.4457 -0.6540  0.0294
15866TIP3   OH269012   6.517   4.886  11.008 -0.0120 -0.0112  0.5446
15866TIP3    H169013   6.527   4.962  11.065 -0.2234 -0.0925  0.6904
15866TIP3    H269014   6.596   4.885  10.954 -0.5149  0.9600 -0.2350
15867TIP3   OH269015   4.496   0.325   6.262 -0.2616 -0.2100 -0.4068
15867TIP3    H169016   4.529   0.294   6.346  0.8791  0.4030 -0.6207
15867TIP3    H269017   4.400   0.317   6.269 -0.1813 -0.0327  0.9931
15868TIP3   OH269018   1.532   1.673  16.819 -0.1335 -0.1340  0.3570
15868TIP3    H169019   1.599   1.698  16.755 -0.3408  0.8982  0.5260
15868TIP3    H269020   1.455   1.654  16.767  0.3004 -1.3852  0.1603
15869TIP3   OH269021   1.881   4.799   4.140 -0.3343  0.7250  0.8120
15869TIP3    H169022   1.837   4.812   4.056 -1.2008  0.8544  1.2818
15869TIP3    H269023   1.974   4.814   4.121 -0.3412 -0.6332 -0.4272
15870TIP3   OH269024   3.195   0.112  14.585  0.0145 -0.1153  0.5781
15870TIP3    H169025   3.278   0.106  14.537 -1.0167 -0.1823 -1.2250
15870TIP3    H269026   3.134   0.056  14.536 -1.1410  0.0648  1.7846
15871TIP3   OH269027   2.248   6.687  14.215  0.4301  0.7133 -0.5999
15871TIP3    H169028   2.242   6.595  14.191  0.0088  0.7175 -0.5086
15871TIP3    H269029   2.246   6.735  14.132 -0.4327  0.6964 -0.5946
15872TIP3   OH269030   3.255   2.985  12.078  0.7775  0.2714  0.7807
15872TIP3    H169031   3.187   2.920  12.094  1.9134 -1.7002 -2.0288
15872TIP3    H269032   3.210   3.053  12.027  1.1206 -1.5816 -2.0724
15873TIP3   OH269033   0.186   2.555  15.689 -0.1993 -0.2363  0.4823
15873TIP3    H169034   0.093   2.563  15.711 -0.6723  2.4541 -2.2721
15873TIP3    H269035   0.190   2.481  15.628 -0.1125 -2.0153  2.5762
15874TIP3   OH269036   2.135   4.893   4.143  0.1199  0.4860 -0.4494
15874TIP3    H169037   2.221   4.876   4.104  1.3583 -1.4151  2.9182
15874TIP3    H269038   2.154   4.945   4.221 -1.6121 -1.0320  1.0180
15875TIP3   OH269039   4.159   1.353  16.270  0.6713  0.1406 -0.3694
15875TIP3    H169040   4.160   1.264  16.306  1.7532 -0.1128 -1.0126
15875TIP3    H269041   4.185   1.408  16.344 -0.2844 -0.0398  0.1118
15876TIP3   OH269042   2.729   0.140   4.450  0.3724  0.1499  0.1411
15876TIP3    H169043   2.751   0.225   4.489  0.8260 -0.1608  0.5813
15876TIP3    H269044   2.799   0.123   4.387 -0.3397  0.6314 -0.7869
15877TIP3   OH269045   1.790   6.665  11.297 -0.4250  0.6934  0.0376
15877TIP3    H169046   1.734   6.680  11.221 -1.1424  0.7502  0.5753
15877TIP3    H269047   1.842   6.744  11.304 -2.4689  1.9629  1.3942
15878TIP3   OH269048   1.343   2.444  14.439  0.0947 -0.2910  0.5160
15878TIP3    H169049   1.384   2.407  14.361 -0.2769  1.7168 -0.6517
15878TIP3    H269050   1.254   2.408  14.439 -0.6188  1.4404 -1.2155
15879TIP3   OH269051   0.544   4.644  11.907 -0.1762  0.3065 -0.8087
15879TIP3    H169052   0.590   4.710  11.855 -0.1464  2.1076  1.4422
15879TIP3    H269053   0.452   4.669  11.902 -0.1963  0.3696 -0.1539
15880TIP3   OH269054   4.723   1.212  17.033  0.0796 -0.4315 -0.3416
15880TIP3    H169055   4.727   1.185  17.125  0.3535  2.6007  0.5785
15880TIP3    H269056   4.635   1.188  17.005 -0.4410 -0.2347  1.0927
15881TIP3   OH269057   1.044   1.886  13.165 -0.5352  0.2019  0.9458
15881TIP3    H169058   1.012   1.841  13.243  0.8076 -0.4757  1.1062
15881TIP3    H269059   0.979   1.867  13.098 -0.0572 -1.8463  1.0498
15882TIP3   OH269060   2.871   1.000  12.970  0.6995  0.1327 -0.0155
15882TIP3    H169061   2.820   1.001  13.051 -0.8865 -0.6051 -0.9888
15882TIP3    H269062   2.848   1.083  12.927  0.4843 -0.0995 -0.3495
15883TIP3   OH269063   0.232   2.933  11.388  0.3778  0.2159  0.2087
15883TIP3    H169064   0.265   3.015  11.351 -1.0047  0.7947  0.2131
15883TIP3    H269065   0.249   2.868  11.320  0.7792  0.6518 -0.1146
15884TIP3   OH269066   5.799   0.574  15.734 -0.1132 -0.2423 -0.2671
15884TIP3    H169067   5.751   0.629  15.795  1.8287 -0.0313  1.1274
15884TIP3    H269068   5.884   0.616  15.726 -0.3171 -0.3065 -3.1103
15885TIP3   OH269069   6.120   5.807  13.403 -0.0187  0.5235  0.5886
15885TIP3    H169070   6.034   5.846  13.389  0.4187  1.6203  0.8615
15885TIP3    H269071   6.103   5.729  13.457 -0.7745  1.0856  1.1706
15886TIP3   OH269072   5.417   5.974  13.874  0.5468  0.1477  0.1995
15886TIP3    H169073   5.387   5.988  13.784 -0.9056 -0.5528  0.5448
15886TIP3    H269074   5.413   5.879  13.885  1.2833  0.1914  0.8107
15887TIP3   OH269075   0.875   5.172   1.790 -0.5358  0.0042  0.1702
15887TIP3    H169076   0.803   5.197   1.732 -0.6780  0.9291  0.7394
15887TIP3    H269077   0.847   5.090   1.829 -0.5381 -0.5131 -0.8972
15888TIP3   OH269078   0.811   2.423  16.243  0.4584 -0.6702 -0.4577
15888TIP3    H169079   0.855   2.343  16.218  0.6518 -1.0616  1.0769
15888TIP3    H269080   0.877   2.472  16.292 -0.1640 -0.3100  0.0240
15889TIP3   OH269081   5.313   5.168  14.317 -0.3074  0.6719 -0.4492
15889TIP3    H169082   5.303   5.190  14.224 -0.5539 -0.6829 -0.7593
15889TIP3    H269083   5.377   5.097  14.317  0.6288  1.4937  0.5374
15890TIP3   OH269084   1.850   2.235   5.200 -0.1890  0.2878 -0.0886
15890TIP3    H169085   1.832   2.274   5.114  0.1508 -0.1266 -0.3494
15890TIP3    H269086   1.882   2.147   5.180 -1.2301 -0.2391  0.5108
15891TIP3   OH269087   2.069   6.326  14.365  0.0391  0.0263 -0.4755
15891TIP3    H169088   1.982   6.366  14.361 -0.3119 -0.4901  1.4745
15891TIP3    H269089   2.124   6.381  14.310 -1.4200  0.6479 -1.3208
15892TIP3   OH269090   3.932   1.990   2.874  0.4991 -0.3435 -0.6254
15892TIP3    H169091   3.915   2.051   2.803 -0.4260 -0.3757 -0.4330
15892TIP3    H269092   3.972   2.044   2.943  3.6387 -0.7297 -2.0280
15893TIP3   OH269093   0.497   4.080  17.191  0.4684 -0.2233  0.0132
15893TIP3    H169094   0.526   4.152  17.135  0.4926  0.0334  0.3542
15893TIP3    H269095   0.479   4.008  17.130 -1.0166  0.5486 -0.4700
15894TIP3   OH269096   2.876   4.805  12.790 -0.1831  0.1420  0.1115
15894TIP3    H169097   2.819   4.843  12.723 -2.1161 -0.4531  1.3680
15894TIP3    H269098   2.852   4.851  12.870  0.0301 -1.1996  0.9620
15895TIP3   OH269099   1.151   2.533   2.339 -0.0734  0.5385  0.2440
15895TIP3    H169100   1.208   2.553   2.265  0.8254  0.5166  0.9259
15895TIP3    H269101   1.065   2.519   2.299  0.3111  0.9317 -0.7512
15896TIP3   OH269102   0.597   4.579  16.526  0.3060 -0.1867  0.6702
15896TIP3    H169103   0.523   4.595  16.468  0.9969 -1.0191 -0.4502
15896TIP3    H269104   0.582   4.637  16.600 -0.1676  1.4902 -0.7132
15897TIP3   OH269105   5.734   3.702  13.891  0.2119  0.1167 -0.1718
15897TIP3    H169106   5.658   3.757  13.875  0.8544  2.1226  3.2130
15897TIP3    H269107   5.697   3.619  13.923 -0.6109  0.8840  0.9171
15898TIP3   OH269108   0.354   2.561   2.802 -0.0990 -0.3869  0.5280
15898TIP3    H169109   0.347   2.466   2.794  1.6591 -0.5981  1.2566
15898TIP3    H269110   0.417   2.575   2.873  0.9419  1.2968 -0.6752
15899TIP3   OH269111   0.677   4.254   5.636 -0.4461 -0.0634  0.2683
15899TIP3    H169112   0.693   4.326   5.576 -0.5446  1.0443  1.5483
15899TIP3    H269113   0.583   4.238   5.631 -0.6057  0.7026  0.8955
15900TIP3   OH269114   4.837   0.184  13.753 -0.0669  0.2226 -0.5004
15900TIP3    H169115   4.925   0.208  13.726  0.5871 -0.0362  1.3231
15900TIP3    H269116   4.840   0.088  13.761  0.0881  0.3731  1.5210
15901TIP3   OH269117   4.312   3.129  14.356 -0.3590  0.0142  0.4040
15901TIP3    H169118   4.277   3.076  14.428 -0.6889 -1.1385 -0.6035
15901TIP3    H269119   4.240   3.135  14.293 -0.1994  1.3363  0.3237
15902TIP3   OH269120   5.251   4.690  12.898  0.6715 -0.0049 -0.4701
15902TIP3    H169121   5.189   4.631  12.939  0.4354  0.1588 -0.5884
15902TIP3    H269122   5.325   4.693  12.958  0.6886 -0.4267 -0.4697
15903TIP3   OH269123   1.881   0.475  15.605  0.8170 -0.1315  0.3816
15903TIP3    H169124   1.947   0.543  15.593  0.6668 -0.0678 -0.1082
15903TIP3    H269125   1.850   0.456  15.516  0.7337 -0.7133  0.5334
15904TIP3   OH269126   5.475   4.420  11.508  0.4433  0.7293 -0.6123
15904TIP3    H169127   5.570   4.421  11.519  0.3488  1.7411  0.1858
15904TIP3    H269128   5.450   4.513  11.504 -0.6532  0.5116  0.6115
15905TIP3   OH269129   2.915   5.788  15.722  0.1093  0.7401 -0.0026
15905TIP3    H169130   2.888   5.836  15.800  0.1334  0.5701  0.1106
15905TIP3    H269131   2.936   5.700  15.753 -1.0662  0.3139 -0.3863
15906TIP3   OH269132   2.138   5.414   2.721  0.0229  0.5242  0.2235
15906TIP3    H169133   2.224   5.453   2.707  0.0456  1.0530  1.6695
15906TIP3    H269134   2.076   5.483   2.696  0.0575  1.0710  1.5558
15907TIP3   OH269135   4.702   4.924  16.143  0.0825  0.5303 -0.2085
15907TIP3    H169136   4.662   5.010  16.157 -1.3713 -0.2720  0.7573
15907TIP3    H269137   4.631   4.871  16.106  0.7913 -0.4184 -0.2271
15908TIP3   OH269138   0.472   2.687   5.131  0.1497  0.0248  0.5032
15908TIP3    H169139   0.521   2.665   5.052  0.5502  0.6462  0.5716
15908TIP3    H269140   0.460   2.782   5.126 -3.6885 -0.4492 -1.0171
15909TIP3   OH269141   3.385   2.251   5.143  0.0098 -0.4165  0.1877
15909TIP3    H169142   3.397   2.184   5.209  1.4673 -0.2270  0.1353
15909TIP3    H269143   3.456   2.237   5.080 -0.4988  0.2931 -0.5728
15910TIP3   OH269144   4.783   3.940   1.960  0.4538  0.2031 -0.1029
15910TIP3    H169145   4.865   3.898   1.986 -0.0199 -0.4198  0.4123
15910TIP3    H269146   4.726   3.867   1.937 -0.1477  0.6045  0.1184
15911TIP3   OH269147   6.252   6.635  15.932  0.3985 -0.0666 -0.1493
15911TIP3    H169148   6.285   6.673  15.851  0.0665 -1.7296 -1.0759
15911TIP3    H269149   6.194   6.703  15.968  0.9028  0.8548 -1.0580
15912TIP3   OH269150   4.864   3.925  12.420 -0.6663 -0.1540  0.3011
15912TIP3    H169151   4.776   3.922  12.456 -0.6866  0.0648  0.2715
15912TIP3    H269152   4.875   3.841  12.377 -1.1075  0.0717 -0.2617
15913TIP3   OH269153   5.978   2.891  12.224 -0.2876 -0.4100 -0.3589
15913TIP3    H169154   6.010   2.968  12.272  0.3395  0.8300 -2.7196
15913TIP3    H269155   6.043   2.877  12.155 -1.5018 -1.7813 -1.2465
15914TIP3   OH269156   1.629   2.388   1.080  0.1068 -0.0780 -0.2619
15914TIP3    H169157   1.666   2.323   1.021 -1.9546 -1.7818  0.2475
15914TIP3    H269158   1.570   2.338   1.137 -0.8591  2.0925  0.7136
15915TIP3   OH269159   2.585   5.890   3.967  0.1086  0.2069 -0.2438
15915TIP3    H169160   2.650   5.953   3.996  0.4033 -1.0502  1.9439
15915TIP3    H269161   2.636   5.814   3.937 -0.3094 -0.0266 -0.3776
15916TIP3   OH269162   5.392   3.908   1.002  0.1022 -0.2200 -0.0974
15916TIP3    H169163   5.311   3.937   0.960  0.1188 -2.1654 -1.5415
15916TIP3    H269164   5.372   3.820   1.035  0.9696  0.1571  1.4664
15917TIP3   OH269165   2.158   1.425   3.814  0.2846 -0.1240 -0.5047
15917TIP3    H169166   2.083   1.400   3.868  0.6170 -0.2291 -0.0863
15917TIP3    H269167   2.156   1.364   3.741 -1.1316  1.0773 -1.4791
15918TIP3   OH269168   0.005   2.377   3.441  0.1748  0.4188  0.3941
15918TIP3    H169169   0.090   2.415   3.463  0.4784 -0.4620  0.7894
15918TIP3    H269170  -0.032   2.350   3.525  0.6500 -1.5516 -0.0017
15919TIP3   OH269171   4.780   5.810  15.420 -0.3995  0.4207  0.1673
15919TIP3    H169172   4.824   5.868  15.482 -0.6881  0.6503  0.1603
15919TIP3    H269173   4.810   5.722  15.443  2.3708  0.8022 -1.7240
15920TIP3   OH269174   5.592   2.396  11.876  0.3980  0.2291  0.4266
15920TIP3    H169175   5.541   2.315  11.871 -1.1180  1.1695  0.2420
15920TIP3    H269176   5.616   2.413  11.785  2.8576 -1.3013  0.7318
15921TIP3   OH269177   3.854   5.077   4.902 -0.4024  0.1705  0.8212
15921TIP3    H169178   3.934   5.119   4.934  0.1502 -0.9895  0.9796
15921TIP3    H269179   3.791   5.149   4.893  0.7980  1.1612  0.2280
15922TIP3   OH269180   2.561   1.723  13.240 -0.0796  0.1311 -0.0381
15922TIP3    H169181   2.514   1.784  13.183 -1.5360 -1.2942 -0.4125
15922TIP3    H269182   2.541   1.753  13.329  1.6931  1.9877 -0.2383
15923TIP3   OH269183   2.118   3.019   3.691  0.0829 -0.2225 -0.0053
15923TIP3    H169184   2.158   3.013   3.778  0.1926 -1.0445 -0.1136
15923TIP3    H269185   2.045   3.080   3.702  1.0730  0.9198  0.3014
15924TIP3   OH269186   5.887   2.575  11.031  0.5599  0.6150 -0.1070
15924TIP3    H169187   5.935   2.653  11.003 -1.3577  1.6890 -0.4690
15924TIP3    H269188   5.918   2.558  11.120  0.2357  2.4137  0.3632
15925TIP3   OH269189   2.028   3.433  16.736  0.4403 -0.3762  0.1013
15925TIP3    H169190   2.005   3.370  16.803 -0.1456  0.5436  0.7865
15925TIP3    H269191   1.986   3.514  16.764  0.7710  0.1966 -1.0116
15926TIP3   OH269192   6.306   3.227  15.108  0.5773  0.2080  0.2552
15926TIP3    H169193   6.400   3.227  15.087  0.7463 -1.4359  0.9968
15926TIP3    H269194   6.278   3.136  15.096 -0.8819  0.6472  0.2391
15927TIP3   OH269195   0.434   3.792   2.729 -0.3378 -0.2200  0.0613
15927TIP3    H169196   0.529   3.786   2.738 -0.4864 -0.7633  1.3164
15927TIP3    H269197   0.412   3.726   2.663  0.2268  0.4590 -0.8275
15928TIP3   OH269198   5.965   5.068   4.872  1.0373 -0.0251 -0.0634
15928TIP3    H169199   5.888   5.103   4.827  0.6149  0.1826  0.8084
15928TIP3    H269200   6.036   5.128   4.850  1.2068 -0.8002 -1.7326
15929TIP3   OH269201   0.763   3.490  10.480  0.0186  0.2270 -0.0112
15929TIP3    H169202   0.812   3.510  10.400  0.8088  0.0767  0.4323
15929TIP3    H269203   0.725   3.573  10.507 -0.5101  0.2199 -0.7155
15930TIP3   OH269204   3.188   4.584  14.576  0.5629  0.7759  0.4060
15930TIP3    H169205   3.250   4.525  14.532  0.7766  0.4216  1.1740
15930TIP3    H269206   3.184   4.661  14.519 -0.6753 -0.4806 -1.2631
15931TIP3   OH269207   2.728   2.522   5.261 -0.4430  0.3153 -0.5412
15931TIP3    H169208   2.694   2.432   5.259 -1.4963  0.6662  0.5002
15931TIP3    H269209   2.731   2.549   5.170 -0.9803 -0.4781 -0.8008
15932TIP3   OH269210   6.396   1.657   0.759  0.7295 -0.1759 -0.0165
15932TIP3    H169211   6.376   1.724   0.825  0.0099  1.4667 -1.8534
15932TIP3    H269212   6.487   1.675   0.734  1.2055 -1.1858  0.9390
15933TIP3   OH269213   4.146   1.010  13.559 -0.7296 -0.1049  0.7796
15933TIP3    H169214   4.217   1.051  13.510 -0.4755  1.0157  2.0472
15933TIP3    H269215   4.190   0.945  13.614 -0.5140  1.2782  2.3078
15934TIP3   OH269216   4.041   4.600   6.443 -0.6946 -0.1674  0.1933
15934TIP3    H169217   4.123   4.626   6.401 -1.2758 -0.3468 -1.0701
15934TIP3    H269218   4.069   4.552   6.521  0.3893  1.3290  0.7520
15935TIP3   OH269219   1.952   2.428   0.586  0.5588  0.3188 -0.4737
15935TIP3    H169220   1.881   2.463   0.639  0.7733 -1.0574  0.7592
15935TIP3    H269221   2.002   2.505   0.558  0.6432  1.0328  1.6116
15936TIP3   OH269222   3.043   0.100   3.093 -0.0459 -0.1329 -0.7581
15936TIP3    H169223   2.956   0.069   3.119 -0.0252  0.0483 -0.4678
15936TIP3    H269224   3.092   0.104   3.174 -0.2463  1.2671 -0.6977
15937TIP3   OH269225   2.970   0.340   2.038  0.3106 -0.0649 -0.1650
15937TIP3    H169226   3.043   0.298   1.993  0.9045  1.2861 -0.4937
15937TIP3    H269227   2.976   0.310   2.128 -0.2729 -1.9898 -0.7439
15938TIP3   OH269228   3.238   0.532   3.946 -0.5733  0.5526 -0.3048
15938TIP3    H169229   3.332   0.549   3.938 -0.5120  0.6984  0.6421
15938TIP3    H269230   3.207   0.598   4.007 -1.0979 -0.1482  0.1998
15939TIP3   OH269231   1.585   1.734  11.066 -0.3727  0.3144  0.3264
15939TIP3    H169232   1.586   1.807  11.005 -2.1316  0.2032  0.1361
15939TIP3    H269233   1.554   1.660  11.015 -0.9064 -0.0036  1.0966
15940TIP3   OH269234   2.827   1.003  17.192  0.3993  0.2402 -0.2977
15940TIP3    H169235   2.734   0.987  17.181 -0.0578  2.7465 -0.4456
15940TIP3    H269236   2.867   0.975  17.110  0.2239 -3.6579  0.8703
15941TIP3   OH269237   0.317   5.256   5.212 -0.3744  0.6057  0.0640
15941TIP3    H169238   0.260   5.317   5.166 -0.8010  1.7611  2.0522
15941TIP3    H269239   0.281   5.169   5.193 -1.1943  1.1385 -0.8397
15942TIP3   OH269240   3.017   5.344  15.029  0.7272  0.5531 -0.0908
15942TIP3    H169241   3.087   5.385  15.079  0.4938  0.8117  0.0301
15942TIP3    H269242   2.978   5.416  14.978  0.4278  0.4501 -0.0105
15943TIP3   OH269243   6.172   5.017   5.474 -0.1142  0.2546  0.2275
15943TIP3    H169244   6.233   5.072   5.424 -0.2129  0.5632  0.4483
15943TIP3    H269245   6.087   5.031   5.431 -0.1221  0.2099  0.2297
15944TIP3   OH269246   6.592   5.517   0.116  0.2459  0.4990  0.2895
15944TIP3    H169247   6.500   5.506   0.093 -0.0107 -0.4375  1.6937
15944TIP3    H269248   6.628   5.428   0.116  1.2838  0.9016 -0.7249
15945TIP3   OH269249   2.170   0.760  13.784  0.4878 -0.2665  0.0345
15945TIP3    H169250   2.156   0.819  13.858  1.0311 -1.9922  1.5678
15945TIP3    H269251   2.258   0.779  13.753  0.5003  0.0212  0.2486
15946TIP3   OH269252   2.253   6.771  13.937 -0.4594  1.1214  0.1344
15946TIP3    H169253   2.336   6.806  13.904 -0.3839 -0.1150 -1.0036
15946TIP3    H269254   2.198   6.759  13.860 -1.1496  0.4913  0.7094
15947TIP3   OH269255   2.644   4.197  11.832 -0.3596 -0.1111  0.1200
15947TIP3    H169256   2.612   4.252  11.761 -0.0559  0.1992  0.2225
15947TIP3    H269257   2.651   4.110  11.792 -0.4505  0.0036 -0.1547
15948TIP3   OH269258   3.943   2.796   2.627 -0.2009 -0.0584 -0.3780
15948TIP3    H169259   3.954   2.890   2.640 -1.3399 -0.0397  0.5551
15948TIP3    H269260   3.851   2.780   2.648  0.3529 -1.6106  0.9325
15949TIP3   OH269261   4.187   3.723  14.142  0.3317 -0.0162 -0.1214
15949TIP3    H169262   4.180   3.733  14.047 -2.8173 -0.3442  0.0325
15949TIP3    H269263   4.213   3.632  14.154 -0.4143 -0.3093 -0.6488
15950TIP3   OH269264   2.360   2.914   3.844  0.7047  0.3134 -0.1504
15950TIP3    H169265   2.297   2.985   3.856  1.4658  1.0463 -0.4560
15950TIP3    H269266   2.385   2.919   3.752  0.3019 -0.7493 -0.3299
15951TIP3   OH269267   5.122   5.661  11.701  0.1642 -0.7352  0.4687
15951TIP3    H169268   5.116   5.647  11.606  0.3001 -1.1403  0.5190
15951TIP3    H269269   5.043   5.620  11.736 -0.6621  0.7545  0.3872
15952TIP3   OH269270   0.397   2.061  14.090  0.2203  0.0788 -0.1305
15952TIP3    H169271   0.349   1.979  14.098  1.0435 -0.3347  0.7374
15952TIP3    H269272   0.421   2.067  13.998  0.7440 -0.9984 -0.0659
15953TIP3   OH269273   4.040   1.325   0.898  0.7573 -0.2196 -0.2274
15953TIP3    H169274   4.005   1.318   0.987  0.8937  0.6840 -0.0896
15953TIP3    H269275   4.058   1.235   0.871  0.6332 -0.5027  0.6286
15954TIP3   OH269276   0.982   0.182  15.600 -0.2535 -0.0894  0.0122
15954TIP3    H169277   1.059   0.184  15.656 -0.2304 -0.8105  0.0205
15954TIP3    H269278   0.912   0.148  15.656 -0.0394 -1.5973 -0.5884
15955TIP3   OH269279   0.003   1.065  14.914  0.3138 -0.2262 -0.1859
15955TIP3    H169280  -0.020   1.024  14.997 -0.9812  0.0567 -0.3970
15955TIP3    H269281  -0.051   1.144  14.910  0.7252  0.0208 -1.0717
15956TIP3   OH269282   0.420   3.833  15.634  0.1548  0.4249 -0.8758
15956TIP3    H169283   0.513   3.856  15.643 -0.0623  0.3990  1.9754
15956TIP3    H269284   0.376   3.918  15.626  0.1887  0.5972  0.5962
15957TIP3   OH269285   1.660   0.723  11.114 -0.6497  0.7118 -0.2487
15957TIP3    H169286   1.607   0.788  11.161  0.6207  1.1150  0.6345
15957TIP3    H269287   1.726   0.775  11.068 -0.8730  0.1898 -1.1832
15958TIP3   OH269288   5.362   0.251   3.116  0.3863  0.0927  0.7761
15958TIP3    H169289   5.320   0.318   3.061 -0.1837 -1.5681 -0.8490
15958TIP3    H269290   5.295   0.226   3.179  0.5868  0.9822  1.3660
15959TIP3   OH269291   5.946   3.847  15.231 -0.3889 -0.3377  0.4401
15959TIP3    H169292   5.961   3.911  15.162  3.2512 -1.3978  0.1052
15959TIP3    H269293   5.937   3.898  15.311  1.7587  0.6639  0.0670
15960TIP3   OH269294   5.038   3.408  13.165 -0.0640  0.7430  0.0649
15960TIP3    H169295   5.122   3.452  13.177 -0.4919  1.4854  0.3806
15960TIP3    H269296   5.006   3.392  13.254  0.1161 -0.2603 -0.0471
15961TIP3   OH269297   2.957   6.593   0.284  0.5027  0.2986  0.1371
15961TIP3    H169298   2.941   6.519   0.225 -1.3012  0.3403  0.5291
15961TIP3    H269299   3.044   6.577   0.319  0.2373 -1.5275  0.0245
15962TIP3   OH269300   4.755   3.847  13.454 -0.1781  0.1966  0.2614
15962TIP3    H169301   4.752   3.757  13.488  1.6668  0.7439  1.9612
15962TIP3    H269302   4.788   3.838  13.365 -0.0500 -0.8196  0.4025
15963TIP3   OH269303   3.109   5.347  12.213 -0.3987  0.3549 -0.4458
15963TIP3    H169304   3.083   5.293  12.138 -1.5199 -0.8438  0.7682
15963TIP3    H269305   3.072   5.302  12.289  1.1404  1.2796  0.8918
15964TIP3   OH269306   2.779   3.620  16.418 -0.0583  0.4246 -0.3707
15964TIP3    H169307   2.863   3.575  16.417 -0.3112 -0.1259  2.0054
15964TIP3    H269308   2.714   3.550  16.414 -0.4265  0.7003  0.6887
15965TIP3   OH269309   0.707   6.585   1.817 -0.3471 -0.0367  0.7300
15965TIP3    H169310   0.768   6.655   1.795 -0.8873  0.2102 -0.0310
15965TIP3    H269311   0.756   6.504   1.803  0.7744  0.2002  3.1110
15966TIP3   OH269312   1.567   4.283   6.104  0.2895  0.6538  0.4481
15966TIP3    H169313   1.640   4.311   6.159 -0.5966 -0.1604  2.0710
15966TIP3    H269314   1.532   4.205   6.148 -2.0085  1.4523  0.0999
15967TIP3   OH269315   6.071   1.394   2.932 -0.2963  0.3507  0.3208
15967TIP3    H169316   6.020   1.314   2.941 -0.3992  0.5251  1.3458
15967TIP3    H269317   6.030   1.441   2.859 -3.1202  1.5914  2.6187
15968TIP3   OH269318   1.941   5.613  12.263  0.5889  0.7002  0.5929
15968TIP3    H169319   2.025   5.635  12.223  0.7133  0.5433  0.7643
15968TIP3    H269320   1.901   5.697  12.284  1.6153  0.7599  2.4146
15969TIP3   OH269321   5.118   4.097  15.965 -0.2001 -0.0060 -0.1164
15969TIP3    H169322   5.112   4.083  15.870 -0.4195 -0.6957 -0.0028
15969TIP3    H269323   5.072   4.022  16.003  1.2379 -0.5499  0.5725
15970TIP3   OH269324   4.668   4.531   4.245  0.2359  0.4660 -0.3194
15970TIP3    H169325   4.711   4.511   4.162 -0.9999 -1.8460 -0.4359
15970TIP3    H269326   4.737   4.526   4.311  0.7102 -0.3227 -0.8738
15971TIP3   OH269327   2.743   2.256  11.647  0.1304  1.3141 -0.5697
15971TIP3    H169328   2.811   2.289  11.705 -0.6419 -0.8186  1.6616
15971TIP3    H269329   2.786   2.189  11.594 -0.7857 -2.3245  3.0419
15972TIP3   OH269330   4.014   4.837  11.356  0.0504  0.4363 -0.1335
15972TIP3    H169331   4.009   4.755  11.405 -2.7019  1.3696  1.2272
15972TIP3    H269332   3.985   4.815  11.268 -0.1959 -0.1447  0.0971
15973TIP3   OH269333   1.224   0.961   5.122  0.0470  0.3127  0.3866
15973TIP3    H169334   1.130   0.946   5.135  0.0400  1.4819  1.8103
15973TIP3    H269335   1.267   0.889   5.168 -0.1397 -0.5263 -0.7183
15974TIP3   OH269336   4.733   1.243  14.424  0.8130  0.2766  0.0662
15974TIP3    H169337   4.764   1.281  14.506  1.1161 -0.8653  0.5033
15974TIP3    H269338   4.811   1.203  14.385  0.4280 -0.2679 -0.1586
15975TIP3   OH269339   0.503   1.069   4.461 -0.3591  0.0499 -0.0360
15975TIP3    H169340   0.493   1.046   4.554 -0.2641 -1.2857 -0.3436
15975TIP3    H269341   0.415   1.097   4.434  0.0610  2.4066  0.9596
15976TIP3   OH269342   4.541   2.965   5.529  0.3019 -0.1611  0.2883
15976TIP3    H169343   4.505   3.001   5.610  3.3653  1.9678  0.7919
15976TIP3    H269344   4.612   2.907   5.558  2.0170  1.3184 -0.8505
15977TIP3   OH269345   0.874   2.584  12.132  0.0395 -0.3513 -0.4584
15977TIP3    H169346   0.891   2.529  12.209 -0.5476  0.2501  0.1041
15977TIP3    H269347   0.949   2.642  12.126 -0.1905 -0.0097 -0.0024
15978TIP3   OH269348   2.332   1.375   2.851  0.6068 -0.3828 -0.5049
15978TIP3    H169349   2.402   1.414   2.798  1.2075  0.4341  0.8585
15978TIP3    H269350   2.262   1.440   2.849  0.1606 -0.8818 -1.2733
15979TIP3   OH269351   0.677   5.682  11.221 -0.2567  0.3269  0.1709
15979TIP3    H169352   0.768   5.709  11.212  0.2165 -1.2219  0.1966
15979TIP3    H269353   0.663   5.618  11.151 -0.7075 -1.0044  1.4409
15980TIP3   OH269354   4.196   5.435   2.337  0.2825 -0.1174 -0.3579
15980TIP3    H169355   4.234   5.523   2.331  0.3014 -0.1273 -0.3807
15980TIP3    H269356   4.107   5.445   2.303  0.1211 -0.0077  0.0915
15981TIP3   OH269357   1.396   2.438   6.525 -0.3522  0.3051 -0.2775
15981TIP3    H169358   1.329   2.376   6.552  0.9892 -1.0580  0.0235
15981TIP3    H269359   1.462   2.434   6.595  0.8793  0.2743 -1.4121
15982TIP3   OH269360   6.766   1.294  14.125  0.1583  0.5089 -0.1657
15982TIP3    H169361   6.689   1.253  14.085  0.0278  0.6132 -0.0222
15982TIP3    H269362   6.789   1.365  14.065  1.1536 -0.5573 -1.0793
15983TIP3   OH269363   1.080   2.133   0.186 -0.2938 -0.2121 -0.5936
15983TIP3    H169364   1.170   2.111   0.211 -0.0286 -1.0443 -2.2239
15983TIP3    H269365   1.040   2.049   0.164 -2.0233 -0.0703  1.7989
15984TIP3   OH269366   1.443   0.713  13.117 -0.4623  0.2776 -0.8669
15984TIP3    H169367   1.360   0.671  13.139  0.4247 -0.5516  0.9593
15984TIP3    H269368   1.502   0.640  13.097  0.7011  0.6901  0.9713
15985TIP3   OH269369   3.297   0.683   4.513 -0.0496  0.3138 -0.6088
15985TIP3    H169370   3.344   0.738   4.575  1.8551 -0.7647 -1.0632
15985TIP3    H269371   3.263   0.611   4.566 -1.5447  1.2875 -0.2164
15986TIP3   OH269372   5.447   5.925   5.385 -0.2727  0.1571 -0.2168
15986TIP3    H169373   5.475   5.855   5.444 -0.1550 -0.7123 -1.2855
15986TIP3    H269374   5.353   5.933   5.399 -0.2769 -0.1830 -0.0581
15987TIP3   OH269375   3.041   3.063  11.380  0.1325  0.3535  0.0104
15987TIP3    H169376   3.046   2.990  11.441 -0.2133  1.5020  1.4285
15987TIP3    H269377   3.071   3.027  11.296 -0.0855 -1.4084  0.6888
15988TIP3   OH269378   4.481   0.973  15.083 -0.1381 -0.3444 -0.3325
15988TIP3    H169379   4.449   1.052  15.126  0.7353 -2.0581  3.7978
15988TIP3    H269380   4.422   0.959  15.010 -1.3852  3.1163 -0.0817
15989TIP3   OH269381   0.676   4.930  16.546  0.0536 -0.0957  0.3779
15989TIP3    H169382   0.659   4.931  16.451  0.6331 -1.3429  0.2446
15989TIP3    H269383   0.592   4.906  16.585 -0.5374  1.7486  0.2793
15990TIP3   OH269384   0.991   6.431  17.143  0.1790  0.3549 -0.0407
15990TIP3    H169385   0.906   6.387  17.135  0.0345  0.2812  1.6856
15990TIP3    H269386   0.969   6.518  17.177  0.6782  0.8460 -0.9771
15991TIP3   OH269387   0.705   2.500   3.183  0.0383 -0.7656  0.0840
15991TIP3    H169388   0.792   2.534   3.162  0.0312 -0.8362 -0.0589
15991TIP3    H269389   0.712   2.406   3.172  0.1152 -0.8355  0.6872
15992TIP3   OH269390   1.311   4.994   5.356  0.0170 -0.8464 -0.3229
15992TIP3    H169391   1.250   5.037   5.296  1.5853  0.7583 -0.8500
15992TIP3    H269392   1.313   5.052   5.433  1.7015 -0.2690 -0.7847
15993TIP3   OH269393   3.364   1.339   5.191  0.0097  0.0119 -0.7285
15993TIP3    H169394   3.332   1.252   5.217 -2.4554  0.2675 -2.7536
15993TIP3    H269395   3.292   1.398   5.213  1.4044  1.4699 -0.0196
15994TIP3   OH269396   0.396   2.292  14.246  0.2418  0.6688 -0.0691
15994TIP3    H169397   0.490   2.312  14.248  0.5656 -0.8642  0.6858
15994TIP3    H269398   0.391   2.199  14.224 -0.8789 -0.4343  4.2927
15995TIP3   OH269399   3.663   1.885  15.752 -0.4170  0.3099  0.3215
15995TIP3    H169400   3.690   1.796  15.773  0.7620  0.7905  0.9013
15995TIP3    H269401   3.584   1.900  15.805 -0.3832 -0.2441  0.5253
15996TIP3   OH269402   1.796   2.367  16.933 -0.1863  0.6886 -0.0940
15996TIP3    H169403   1.724   2.360  16.995 -0.4557 -1.8232 -0.6559
15996TIP3    H269404   1.809   2.278  16.900  5.0915  0.3921  2.1761
15997TIP3   OH269405   3.736   0.538   3.737 -0.3368 -0.1449  0.2946
15997TIP3    H169406   3.831   0.525   3.745 -0.4754 -1.0093  0.6194
15997TIP3    H269407   3.726   0.595   3.661  0.5495  1.4355  1.3209
15998TIP3   OH269408   2.760   3.493  12.445 -0.5066  0.4075 -0.1034
15998TIP3    H169409   2.797   3.573  12.407  0.3917  0.5830  1.1232
15998TIP3    H269410   2.668   3.514  12.461  0.0640  1.7348  1.6290
15999TIP3   OH269411   2.754   0.442   1.612  0.2801  0.0936 -0.2922
15999TIP3    H169412   2.694   0.508   1.647 -0.4811 -0.1723 -1.0844
15999TIP3    H269413   2.711   0.358   1.629 -0.3169 -0.0200 -2.2353
16000TIP3   OH269414   1.180   4.028  12.064 -0.1908 -0.0119 -0.2088
16000TIP3    H169415   1.201   4.120  12.081  2.0816 -0.8757  1.9241
16000TIP3    H269416   1.211   3.982  12.141 -1.0939 -2.6360 -1.3659
16001TIP3   OH269417   1.466   2.764   3.557  0.0754  0.3041 -0.2250
16001TIP3    H169418   1.501   2.707   3.626 -0.1998  1.5003  0.9235
16001TIP3    H269419   1.533   2.831   3.545 -0.0155  0.2731 -0.9212
16002TIP3   OH269420   2.821   5.447   0.664  0.2112 -0.1982 -0.1807
16002TIP3    H169421   2.841   5.533   0.701  0.0286  0.4853 -1.6238
16002TIP3    H269422   2.747   5.463   0.606 -0.6220 -1.5823  0.5050
16003TIP3   OH269423   5.765   0.505   2.650 -0.2590 -0.2934 -0.3588
16003TIP3    H169424   5.705   0.431   2.641  0.2650 -0.4329 -3.3416
16003TIP3    H269425   5.721   0.577   2.604 -0.3647  1.0434  1.7474
16004TIP3   OH269426   5.011   2.133   2.581 -0.4399 -0.6605 -0.2965
16004TIP3    H169427   5.056   2.217   2.568  0.4712 -1.1698 -0.4789
16004TIP3    H269428   4.967   2.117   2.497  1.0119 -1.3254 -0.9348
16005TIP3   OH269429   1.889   1.833   6.056 -0.0223 -1.0294 -0.0552
16005TIP3    H169430   1.881   1.837   6.151 -2.4091 -0.4946 -0.2702
16005TIP3    H269431   1.955   1.899   6.035 -0.2335 -0.4296  1.1289
16006TIP3   OH269432   0.197   2.608  11.402 -0.4366  0.3513 -0.2036
16006TIP3    H169433   0.262   2.665  11.441 -1.5035  1.3091  0.2027
16006TIP3    H269434   0.231   2.588  11.315  0.6109  0.4695  0.1792
16007TIP3   OH269435   0.258   2.055   0.045 -0.0264  0.2805  0.2226
16007TIP3    H169436   0.247   1.993  -0.027 -0.7251 -1.0402  1.4311
16007TIP3    H269437   0.169   2.080   0.070  0.2625  2.2732 -0.6516
16008TIP3   OH269438   4.794   4.031   3.789  0.0665 -0.3231  0.6224
16008TIP3    H169439   4.732   4.095   3.825 -0.3430 -0.3085 -0.1133
16008TIP3    H269440   4.739   3.961   3.754  0.4932 -0.6891  0.6799
16009TIP3   OH269441   0.298   0.826  15.164  0.0094  0.1630 -0.6740
16009TIP3    H169442   0.254   0.797  15.083  2.5302  1.5201 -2.5934
16009TIP3    H269443   0.257   0.910  15.184  0.5968  0.6522 -1.5252
16010TIP3   OH269444   1.110   1.709   6.064 -0.6597  0.1697  0.5744
16010TIP3    H169445   1.049   1.660   6.120 -1.2024 -1.3617 -1.3071
16010TIP3    H269446   1.089   1.801   6.081 -3.2750 -0.3150  0.2245
16011TIP3   OH269447   3.140   1.132  15.844 -0.1614 -0.2462  0.4051
16011TIP3    H169448   3.049   1.144  15.815  0.4678 -0.4544 -1.7192
16011TIP3    H269449   3.181   1.080  15.775  1.9478  1.0588  0.6224
16012TIP3   OH269450   3.493   0.734  12.904 -0.3784  0.1613  0.1036
16012TIP3    H169451   3.568   0.685  12.937 -0.8164 -1.6906 -1.5605
16012TIP3    H269452   3.512   0.749  12.811 -2.2415 -0.7098 -0.4512
16013TIP3   OH269453   0.143   2.690  15.323  0.3863  0.1539  0.1969
16013TIP3    H169454   0.059   2.727  15.296 -0.1109 -1.3687 -0.3955
16013TIP3    H269455   0.135   2.677  15.417 -0.6017 -1.3569 -0.0841
16014TIP3   OH269456   5.991   2.258   2.024 -0.0289  0.1737 -0.3463
16014TIP3    H169457   6.037   2.339   2.005  0.6947 -0.2065 -0.2486
16014TIP3    H269458   6.060   2.193   2.035 -0.4904 -0.0577  1.4650
16015TIP3   OH269459   6.569   2.524  14.289  0.3732  0.1149  0.2183
16015TIP3    H169460   6.662   2.518  14.269  0.1760 -1.1495 -0.3422
16015TIP3    H269461   6.556   2.468  14.365 -0.1341 -0.6573 -0.4272
16016TIP3   OH269462   0.917   4.068  16.754 -0.7872 -0.0760  0.2678
16016TIP3    H169463   0.995   4.122  16.764 -0.7649  0.2667 -1.5853
16016TIP3    H269464   0.902   4.031  16.841  0.0289  1.7728  1.2301
16017TIP3   OH269465   3.658   0.686  16.736 -0.2840  0.5401 -0.3734
16017TIP3    H169466   3.691   0.713  16.822 -2.9939  0.0901  0.8937
16017TIP3    H269467   3.628   0.596  16.750  0.2464  0.0966 -2.0813
16018TIP3   OH269468   4.823   5.262  12.865 -0.1857  0.4000  0.6565
16018TIP3    H169469   4.745   5.229  12.908 -0.1646 -1.0214 -0.3403
16018TIP3    H269470   4.855   5.188  12.813  2.8981  0.3173  2.5233
16019TIP3   OH269471   1.581   2.206   2.459  0.6408  0.5181 -0.2002
16019TIP3    H169472   1.545   2.130   2.505  0.5654 -0.5604 -1.9718
16019TIP3    H269473   1.530   2.280   2.490 -2.7718 -0.8819 -2.2372
16020TIP3   OH269474   5.087   3.311   5.925  0.7714  0.3201 -0.2018
16020TIP3    H169475   5.012   3.285   5.872  0.7000  0.9047 -0.3862
16020TIP3    H269476   5.133   3.228   5.943  0.3654  0.0248 -0.5096
16021TIP3   OH269477   1.893   5.181   2.762  0.1941  0.0132  0.6307
16021TIP3    H169478   1.946   5.222   2.831 -1.6859  0.1434  2.0438
16021TIP3    H269479   1.916   5.228   2.682  1.0271  1.1230  1.5096
16022TIP3   OH269480   3.345   5.627  14.193 -0.3614  0.1868 -0.4816
16022TIP3    H169481   3.429   5.589  14.220 -0.5350  0.5082  0.5155
16022TIP3    H269482   3.339   5.606  14.099  0.4400 -0.5628 -0.3778
16023TIP3   OH269483   6.125   2.969  13.911 -0.9594  0.5803  0.5649
16023TIP3    H169484   6.094   2.903  13.973  1.4563 -0.8269  0.3257
16023TIP3    H269485   6.158   3.040  13.965 -0.0679 -0.0779  0.8993
16024TIP3   OH269486   6.314   4.986   0.719 -0.2879 -0.1130 -0.1163
16024TIP3    H169487   6.231   5.013   0.681 -0.4548  0.1768  0.4433
16024TIP3    H269488   6.323   4.894   0.695 -2.4515 -1.1503  2.7218
16025TIP3   OH269489   5.391   4.681   1.831 -0.8924  0.3313  0.0044
16025TIP3    H169490   5.430   4.737   1.765  0.3671 -1.1581 -0.5588
16025TIP3    H269491   5.454   4.682   1.904 -0.0548 -1.5782 -0.6494
16026TIP3   OH269492   3.103   0.563   5.230  0.7642  0.3579 -0.0860
16026TIP3    H169493   3.039   0.633   5.236 -0.7900 -0.9319 -0.9974
16026TIP3    H269494   3.053   0.483   5.250  1.9109 -0.7507 -1.5144
16027TIP3   OH269495   2.986   1.856   3.517  0.3182 -0.1211  0.7991
16027TIP3    H169496   3.033   1.937   3.496  1.4188 -0.9916 -0.2365
16027TIP3    H269497   3.054   1.797   3.550 -0.4783 -0.6133  1.5816
16028TIP3   OH269498   3.945   6.038  15.671 -0.4592 -0.0352 -0.1482
16028TIP3    H169499   3.999   5.977  15.622 -2.3459 -0.1806 -2.1427
16028TIP3    H269500   4.003   6.074  15.738  1.4655 -1.8032 -0.8234
16029TIP3   OH269501   0.403   6.223   4.366  0.1158 -0.0199  0.1986
16029TIP3    H169502   0.433   6.294   4.310 -0.2832  0.1151  0.1589
16029TIP3    H269503   0.309   6.217   4.351  0.1360 -0.5190  0.2431
16030TIP3   OH269504   0.654   1.615   2.267  0.0768  0.3623 -0.6007
16030TIP3    H169505   0.594   1.545   2.293  0.9548 -0.1431  0.0959
16030TIP3    H269506   0.599   1.693   2.261 -0.8325 -0.3062 -0.9818
16031TIP3   OH269507   4.914   6.569  12.463 -0.1998 -0.5875 -0.0709
16031TIP3    H169508   4.834   6.528  12.429 -1.3064  0.8161  0.7591
16031TIP3    H269509   4.905   6.563  12.558  1.4348 -1.7935  0.0168
16032TIP3   OH269510   1.832   1.234   1.943 -0.1827  0.2396  0.3830
16032TIP3    H169511   1.927   1.239   1.953 -0.0646  0.5437 -0.8458
16032TIP3    H269512   1.800   1.318   1.977  0.1488  0.9213 -0.9478
16033TIP3   OH269513   3.942   3.136  11.632 -0.1415  0.6947  0.1842
16033TIP3    H169514   4.025   3.161  11.673 -1.1786  2.4711  1.2843
16033TIP3    H269515   3.928   3.203  11.564 -0.9152  0.6833  0.3303
16034TIP3   OH269516   5.898   1.835   4.259  0.6830 -0.2757  0.3225
16034TIP3    H169517   5.869   1.892   4.331 -2.1088 -1.1529 -0.0560
16034TIP3    H269518   5.905   1.894   4.184  0.7684  0.1237  0.6377
16035TIP3   OH269519   5.368   1.036   4.800 -0.1345 -0.0035 -0.1823
16035TIP3    H169520   5.361   0.985   4.719  0.7883  0.3443 -0.4938
16035TIP3    H269521   5.283   1.025   4.842 -0.6510 -0.1401 -1.2264
16036TIP3   OH269522   1.303   4.194   5.919  0.3039  0.2458 -0.3406
16036TIP3    H169523   1.381   4.138   5.926  1.6181  1.9850 -0.5881
16036TIP3    H269524   1.338   4.283   5.923 -1.7601  1.0485  0.1830
16037TIP3   OH269525   1.938   6.583   5.079  0.6195  0.0852  0.2209
16037TIP3    H169526   2.018   6.593   5.131  0.0220  1.8710  0.8556
16037TIP3    H269527   1.869   6.567   5.144 -0.1578  2.4795  0.0244
16038TIP3   OH269528   5.053   5.071  14.323  0.0983 -0.0013  0.5046
16038TIP3    H169529   5.147   5.086  14.328 -0.0871  1.1398  0.7175
16038TIP3    H269530   5.016   5.132  14.387 -0.9102  0.8078 -0.8314
16039TIP3   OH269531   6.211   5.842   0.569 -0.1851 -0.4266 -0.0532
16039TIP3    H169532   6.260   5.818   0.648  2.3989 -0.8989 -1.7651
16039TIP3    H269533   6.121   5.854   0.600  0.3854 -2.5470  2.6138
16040TIP3   OH269534   2.684   5.103  11.299  0.5443 -0.4318  0.0802
16040TIP3    H169535   2.664   5.173  11.237  3.0538  1.1911  0.9967
16040TIP3    H269536   2.735   5.039  11.249 -0.9859 -1.1664 -0.5427
16041TIP3   OH269537   5.493   1.186  10.932 -0.9669  0.4804  0.2134
16041TIP3    H169538   5.518   1.276  10.911 -1.9460  0.6680 -0.2084
16041TIP3    H269539   5.530   1.170  11.019  0.2058  0.8822 -0.2023
16042TIP3   OH269540   5.836   2.685   5.278 -0.0886 -0.1207  0.4340
16042TIP3    H169541   5.896   2.709   5.208  0.8848 -1.6590  0.7219
16042TIP3    H269542   5.754   2.729   5.255  0.6268  0.5710 -0.8845
16043TIP3   OH269543   6.213   4.292   1.351 -0.9044  0.4618  0.3487
16043TIP3    H169544   6.175   4.345   1.282 -1.1356  1.3285  1.1289
16043TIP3    H269545   6.175   4.205   1.339 -4.4607  1.7009  2.1335
16044TIP3   OH269546   4.308   2.073  15.134 -0.8476  0.0274 -0.4495
16044TIP3    H169547   4.222   2.083  15.176 -1.0477 -0.7179 -0.6699
16044TIP3    H269548   4.349   2.001  15.181  0.6765  1.9626  1.3014
16045TIP3   OH269549   4.398   1.521   5.114 -0.2266  0.2434 -0.2915
16045TIP3    H169550   4.485   1.499   5.080 -1.0533  0.4103 -2.5900
16045TIP3    H269551   4.350   1.439   5.112  0.0771 -0.0244  1.7499
16046TIP3   OH269552   0.877   6.085  12.439 -0.0033  0.2068 -0.5651
16046TIP3    H169553   0.885   6.007  12.384  1.0517  0.6437 -1.0396
16046TIP3    H269554   0.885   6.158  12.378 -1.1958  0.6998 -0.1537
16047TIP3   OH269555   6.576   4.668  11.420  0.0336 -0.3056  0.3346
16047TIP3    H169556   6.553   4.579  11.394  0.5435 -0.3310 -0.0390
16047TIP3    H269557   6.510   4.692  11.485 -0.0944 -0.9623  0.4492
16048TIP3   OH269558   1.352   1.983  15.700  0.1452  0.2702 -0.2448
16048TIP3    H169559   1.316   1.986  15.611  0.3838  0.8154 -0.3280
16048TIP3    H269560   1.275   1.973  15.757  0.1576 -2.4191 -0.6343
16049TIP3   OH269561   3.905   6.677  14.250  0.3075  0.1085 -0.1585
16049TIP3    H169562   3.885   6.742  14.317  3.0000 -1.2466  2.0677
16049TIP3    H269563   3.893   6.593  14.294  0.2246 -0.8598 -1.9889
16050TIP3   OH269564   6.586   0.609  11.818  0.3591 -0.6951  0.2109
16050TIP3    H169565   6.658   0.655  11.861  0.6727 -0.8403 -0.1562
16050TIP3    H269566   6.525   0.588  11.889  0.7897 -0.7788  0.5543
16051TIP3   OH269567   6.548   0.437  12.631 -0.1987  0.4519  0.1602
16051TIP3    H169568   6.502   0.357  12.654  0.0952  0.1609 -0.2537
16051TIP3    H269569   6.504   0.506  12.681  0.7788 -0.2297  1.9781
16052TIP3   OH269570   3.224   6.147  12.864 -0.1394 -0.0321  0.2317
16052TIP3    H169571   3.297   6.109  12.816 -0.5375  0.9610 -1.2022
16052TIP3    H269572   3.266   6.207  12.927  0.2676  2.1498 -2.0078
16053TIP3   OH269573   2.736   3.919  16.418 -0.3674 -0.0088 -0.2294
16053TIP3    H169574   2.754   3.828  16.440  0.1747  0.0934 -0.2480
16053TIP3    H269575   2.675   3.949  16.485  0.4803  0.0050  0.5411
16054TIP3   OH269576   5.461   5.625  14.429  0.3383  0.3206 -0.1612
16054TIP3    H169577   5.517   5.678  14.485 -1.1271  1.2567  0.4685
16054TIP3    H269578   5.426   5.558  14.487  1.1514 -0.5421 -0.6548
16055TIP3   OH269579   2.354   5.288   3.268  0.3509  0.3689 -0.3371
16055TIP3    H169580   2.365   5.350   3.341  0.2287 -0.1578  0.1362
16055TIP3    H269581   2.373   5.339   3.190  1.7000  0.6307  0.1515
16056TIP3   OH269582   3.081   2.203  11.506  0.4828 -0.4175 -0.2032
16056TIP3    H169583   3.170   2.228  11.530  0.5102 -0.6904 -0.0179
16056TIP3    H269584   3.026   2.245  11.572  0.6925 -2.7719  1.5429
16057TIP3   OH269585   6.137   6.716   4.506 -0.0928 -0.2281 -0.0015
16057TIP3    H169586   6.091   6.687   4.428  2.9302 -0.5167 -1.7449
16057TIP3    H269587   6.199   6.646   4.525  0.0629  0.4066  1.9651
16058TIP3   OH269588   3.909   3.217   6.415  0.4515 -0.0252 -0.4425
16058TIP3    H169589   3.848   3.188   6.348 -0.4094  0.8304 -0.0486
16058TIP3    H269590   3.969   3.144   6.427 -0.6540 -0.9730 -0.6517
16059TIP3   OH269591   6.574   5.593  11.978  0.1554  0.7655 -0.1153
16059TIP3    H169592   6.550   5.583  12.070 -0.7897  0.1217 -0.4268
16059TIP3    H269593   6.492   5.615  11.934 -0.1870 -2.7984 -1.4125
16060TIP3   OH269594   4.262   1.670   4.864 -0.7572 -0.2371 -0.1370
16060TIP3    H169595   4.293   1.580   4.869 -0.8193 -0.4106 -2.3398
16060TIP3    H269596   4.323   1.719   4.919  0.5115 -1.3329 -0.5232
16061TIP3   OH269597   2.994   5.054  14.756  0.2127  0.6537  0.0974
16061TIP3    H169598   3.065   5.058  14.820  1.8363 -2.4859 -1.3828
16061TIP3    H269599   3.018   5.118  14.689  0.6146  1.0085  0.5737
16062TIP3   OH269600   2.558   1.183   6.358  0.1619  0.0790  0.8196
16062TIP3    H169601   2.477   1.178   6.308  1.1605 -0.4312 -0.7614
16062TIP3    H269602   2.571   1.276   6.374  0.9049  0.4144 -1.6321
16063TIP3   OH269603   4.612   4.810  12.860  0.0673  0.4793 -0.5767
16063TIP3    H169604   4.545   4.860  12.908  1.0336 -0.6003  2.0128
16063TIP3    H269605   4.656   4.759  12.928  3.2129  0.7906 -2.3047
16064TIP3   OH269606   5.760   3.746   0.396 -0.2429 -0.0148  0.0350
16064TIP3    H169607   5.810   3.822   0.425  0.0706  0.4144 -1.5967
16064TIP3    H269608   5.722   3.711   0.476 -1.1806  2.4180  0.7023
16065TIP3   OH269609   5.896   6.663   3.230 -0.0239 -0.0277 -0.2690
16065TIP3    H169610   5.938   6.617   3.157  1.0362 -1.1673  1.0266
16065TIP3    H269611   5.903   6.756   3.207 -0.6790 -0.4105 -2.1161
16066TIP3   OH269612   1.674   2.375   3.405  0.1246  0.7672  0.2667
16066TIP3    H169613   1.634   2.391   3.320 -1.5537  0.6009  1.0005
16066TIP3    H269614   1.721   2.292   3.394  0.4871  1.0909 -0.6819
16067TIP3   OH269615   0.842   1.698   1.102  0.3277  0.1855 -0.0160
16067TIP3    H169616   0.778   1.641   1.145  0.2642  0.3856  0.1528
16067TIP3    H269617   0.927   1.659   1.123  0.4081  1.2851  1.7840
16068TIP3   OH269618   4.860   4.334  13.533  0.3346  0.1495 -0.3938
16068TIP3    H169619   4.875   4.416  13.579  1.6033 -0.8735  1.0335
16068TIP3    H269620   4.886   4.352  13.442  0.3557  1.3888 -0.1459
16069TIP3   OH269621   0.694   5.938  15.684  0.5100 -0.6394 -0.5833
16069TIP3    H169622   0.770   5.968  15.633  1.2671  0.1643  0.9957
16069TIP3    H269623   0.628   6.007  15.671  1.5758  0.8424  1.4841
16070TIP3   OH269624   5.359   6.662  16.447  0.0681  0.2617  0.5159
16070TIP3    H169625   5.415   6.739  16.457  2.8683 -1.6857  0.1827
16070TIP3    H269626   5.270   6.698  16.445  1.3239  3.5146 -0.0315
16071TIP3   OH269627   6.296   2.498  14.249  0.4925  0.2962 -0.5343
16071TIP3    H169628   6.233   2.527  14.315 -0.0427 -1.1014 -0.4188
16071TIP3    H269629   6.378   2.488  14.298  0.7139  1.6797 -0.5976
16072TIP3   OH269630   3.895   2.623   5.910  0.4425 -0.2850  0.3605
16072TIP3    H169631   3.882   2.538   5.952 -1.4362 -0.7518 -1.0687
16072TIP3    H269632   3.825   2.678   5.946 -0.8941 -0.5574 -1.7193
16073TIP3   OH269633   4.491   2.339  16.302  0.4020  0.7597 -0.1317
16073TIP3    H169634   4.438   2.370  16.376  0.6358  1.4078 -0.2287
16073TIP3    H269635   4.466   2.397  16.230  0.4699  0.3846 -0.4571
16074TIP3   OH269636   1.699   2.107   2.933  0.2477 -0.5330  0.3718
16074TIP3    H169637   1.679   2.037   2.996  0.4283 -2.6694 -1.8705
16074TIP3    H269638   1.613   2.131   2.897  0.3316 -0.6080  0.1208
16075TIP3   OH269639   5.901   4.703  10.345 -0.1081  0.4304  0.5452
16075TIP3    H169640   5.909   4.759  10.267  2.6725 -0.8375 -0.1610
16075TIP3    H269641   5.928   4.759  10.418  1.1189  0.4943  0.0528
16076TIP3   OH269642   2.197   5.234   4.890  0.1744  0.1227 -0.1394
16076TIP3    H169643   2.115   5.238   4.840 -0.2741  1.2260  0.6564
16076TIP3    H269644   2.187   5.156   4.945  0.2534 -0.5377 -1.0608
16077TIP3   OH269645   1.521   6.504  16.562 -0.7182  0.4790  0.2333
16077TIP3    H169646   1.572   6.566  16.613 -2.6355  1.5937  0.8566
16077TIP3    H269647   1.562   6.419  16.579  0.1530  1.1753  1.6940
16078TIP3   OH269648   2.370   6.713  13.128 -0.0001  0.0417  0.2477
16078TIP3    H169649   2.409   6.776  13.068 -0.7384 -1.1009 -1.4922
16078TIP3    H269650   2.442   6.686  13.185  1.2163 -0.3308 -1.4207
16079TIP3   OH269651   0.138   4.811   2.413 -0.2420  0.3960  0.6159
16079TIP3    H169652   0.225   4.770   2.414 -0.1438  0.5505 -0.4429
16079TIP3    H269653   0.088   4.759   2.350 -1.0912 -0.0339  1.6434
16080TIP3   OH269654   1.057   5.532   4.127  0.1555  0.4710 -0.0094
16080TIP3    H169655   1.090   5.575   4.205 -0.4282  1.4136 -0.2747
16080TIP3    H269656   0.980   5.483   4.158  1.9145 -1.9412  0.6564
16081TIP3   OH269657   1.732   3.227   2.929 -0.2576 -0.0656 -0.1545
16081TIP3    H169658   1.737   3.291   3.000 -0.4441  0.1004 -0.2916
16081TIP3    H269659   1.823   3.216   2.901  0.1590 -2.0151  1.7692
16082TIP3   OH269660   5.263   3.668   0.958 -0.1976  0.2585 -0.2940
16082TIP3    H169661   5.248   3.607   0.886 -0.2787 -0.6964  0.5272
16082TIP3    H269662   5.176   3.691   0.989 -0.1241 -0.5131  0.4866
16083TIP3   OH269663   2.988   1.423  11.349 -0.1077 -0.7418  0.4108
16083TIP3    H169664   3.039   1.346  11.375 -2.1101 -2.0441  0.5842
16083TIP3    H269665   3.036   1.460  11.275  2.1814 -0.7490  1.8613
16084TIP3   OH269666   5.256   6.152   5.533  0.0348 -0.5647 -0.0456
16084TIP3    H169667   5.326   6.168   5.470  0.1444  0.7303  0.4036
16084TIP3    H269668   5.180   6.131   5.479 -0.0434  1.2024 -0.6379
16085TIP3   OH269669   5.458   6.225  15.354 -0.0219  0.5095  0.0629
16085TIP3    H169670   5.418   6.307  15.385  0.8959  1.0503 -0.1552
16085TIP3    H269671   5.450   6.230  15.259 -1.4474 -0.4314  0.1214
16086TIP3   OH269672   4.417   6.714   1.218  0.2115 -0.2610  0.2957
16086TIP3    H169673   4.477   6.691   1.289  0.3445  0.7063  0.5062
16086TIP3    H269674   4.365   6.635   1.205  0.9149 -0.8060  0.7324
16087TIP3   OH269675   3.318   6.582  13.500  0.0217  0.0288 -0.4073
16087TIP3    H169676   3.253   6.538  13.446  1.2155 -2.6229  0.2013
16087TIP3    H269677   3.269   6.616  13.575 -1.1444  1.0190 -1.5939
16088TIP3   OH269678   6.247   2.479   2.105 -0.6626  0.3276 -0.0565
16088TIP3    H169679   6.251   2.416   2.177  1.0485 -0.2162 -0.5934
16088TIP3    H269680   6.299   2.553   2.135  1.4948 -0.6125 -1.3695
16089TIP3   OH269681   4.521   0.879  11.657 -0.0649  0.3061 -0.0820
16089TIP3    H169682   4.503   0.937  11.731  0.4565 -0.2434  0.4937
16089TIP3    H269683   4.539   0.794  11.698  2.6928  0.5698 -0.6488
16090TIP3   OH269684   3.492   5.803   5.501 -0.0319 -0.6293 -0.3907
16090TIP3    H169685   3.422   5.810   5.436  0.7425 -0.7510 -1.2466
16090TIP3    H269686   3.549   5.733   5.468  0.1176 -1.0211  0.6591
16091TIP3   OH269687   1.622   4.999   0.542 -0.0478 -0.6530 -0.3860
16091TIP3    H169688   1.535   4.994   0.582 -0.2838 -0.4473 -0.8699
16091TIP3    H269689   1.666   5.069   0.590 -0.1914 -0.6753 -0.2219
16092TIP3   OH269690   6.769   5.441   1.360  1.0602  0.1096 -0.1387
16092TIP3    H169691   6.847   5.496   1.357  2.1209 -1.3805 -0.2025
16092TIP3    H269692   6.795   5.365   1.412 -0.5097 -0.1530  0.2821
16093TIP3   OH269693   5.460   3.676  11.746 -0.0115  0.2261  0.0051
16093TIP3    H169694   5.491   3.617  11.678 -0.0019  0.8144 -0.5052
16093TIP3    H269695   5.470   3.627  11.828 -0.7906 -0.7777 -0.5030
16094TIP3   OH269696   6.344   3.024  11.912 -0.3585 -0.5828 -0.1797
16094TIP3    H169697   6.306   3.110  11.928 -1.9005 -1.2272 -0.3112
16094TIP3    H269698   6.431   3.029  11.952 -1.4827  0.1278  2.3380
16095TIP3   OH269699   0.004   0.259   2.029  0.2238 -0.4474  0.7231
16095TIP3    H169700   0.020   0.165   2.021 -2.3823 -1.2811  4.0900
16095TIP3    H269701   0.046   0.284   2.112 -3.0240  0.3372  2.1982
16096TIP3   OH269702   2.475   0.738   5.129  0.3461 -0.1266  0.3888
16096TIP3    H169703   2.439   0.819   5.093  0.2253  0.1981  1.2258
16096TIP3    H269704   2.400   0.692   5.165 -0.0908 -2.1064 -2.8345
16097TIP3   OH269705   4.032   0.819   1.880  0.1578 -0.9113 -0.2487
16097TIP3    H169706   4.037   0.725   1.895 -2.7272 -1.4962 -2.4384
16097TIP3    H269707   4.105   0.839   1.822 -0.1742 -2.1204 -1.0957
16098TIP3   OH269708   2.000   4.621   3.842  0.2399  0.0590  0.4229
16098TIP3    H169709   2.029   4.712   3.850  1.2197 -0.3211  1.3116
16098TIP3    H269710   2.079   4.572   3.821 -0.4135 -0.4978 -0.8192
16099TIP3   OH269711   0.690   2.663  15.766  0.0957 -0.3595  0.4539
16099TIP3    H169712   0.697   2.576  15.805  2.9064 -1.5301 -2.3723
16099TIP3    H269713   0.781   2.689  15.750 -0.7568  2.5068 -0.0552
16100TIP3   OH269714   0.037   5.447   3.310  0.2516 -0.2013  0.3505
16100TIP3    H169715   0.123   5.442   3.267  0.0307  2.3938 -0.5147
16100TIP3    H269716  -0.018   5.494   3.247 -1.0934  0.4738  1.9930
16101TIP3   OH269717   1.189   2.791  16.143  0.0215  0.3230  0.3969
16101TIP3    H169718   1.111   2.773  16.195  0.2491  0.5481  0.8176
16101TIP3    H269719   1.262   2.768  16.201  0.2605 -1.5800 -0.5961
16102TIP3   OH269720   5.439   2.578  13.724 -0.4053 -0.5907  0.2408
16102TIP3    H169721   5.487   2.495  13.723  0.7007  0.0204  1.2412
16102TIP3    H269722   5.506   2.644  13.742 -0.6840  0.9263 -3.8262
16103TIP3   OH269723   6.780   4.910  16.154 -0.4462 -0.2685 -0.6119
16103TIP3    H169724   6.811   4.910  16.064  0.9505  2.7308 -0.2035
16103TIP3    H269725   6.693   4.948  16.150 -0.7091 -0.8867 -0.7866
16104TIP3   OH269726   6.270   2.940  16.076 -0.1741  0.2575 -0.3045
16104TIP3    H169727   6.273   3.020  16.025  1.8476  0.3181 -0.1399
16104TIP3    H269728   6.362   2.916  16.088 -0.6126  0.0116  2.9382
16105TIP3   OH269729   2.381   6.776   3.356  0.2093  0.8832  0.3337
16105TIP3    H169730   2.468   6.800   3.324  0.4910  0.1508  0.5427
16105TIP3    H269731   2.392   6.770   3.451  0.1204  0.0301  0.2918
16106TIP3   OH269732   3.024   2.274  15.630 -0.6017 -0.2798 -0.3365
16106TIP3    H169733   2.971   2.206  15.589  0.2155 -1.5781  0.7061
16106TIP3    H269734   2.994   2.275  15.721  0.4891 -0.3649  0.0344
16107TIP3   OH269735   6.321   2.542  16.225 -0.3565 -0.1109 -0.2805
16107TIP3    H169736   6.226   2.545  16.217 -0.5753 -0.5466  1.9638
16107TIP3    H269737   6.343   2.449  16.218 -0.2658 -0.1846  0.9618
16108TIP3   OH269738   5.694   5.680  13.587  0.4127 -0.3584 -0.8264
16108TIP3    H169739   5.641   5.612  13.544 -0.0187 -2.1101  2.3440
16108TIP3    H269740   5.783   5.665  13.554  0.2311 -2.1663 -0.5830
16109TIP3   OH269741   6.015   5.208  16.793 -0.0392 -0.1763  0.3179
16109TIP3    H169742   5.988   5.119  16.771  1.2456 -0.6244  0.5087
16109TIP3    H269743   6.109   5.210  16.774  0.2479  0.6851  1.7752
16110TIP3   OH269744   4.762   0.177  11.710 -0.0153  0.6068  0.7925
16110TIP3    H169745   4.839   0.168  11.655 -1.3157 -1.8425 -0.6987
16110TIP3    H269746   4.796   0.213  11.792  2.4836  0.8823 -0.3126
16111TIP3   OH269747   6.743   1.468  14.804  0.2935  0.2810 -0.7463
16111TIP3    H169748   6.760   1.442  14.895 -0.3529  2.3286 -0.0043
16111TIP3    H269749   6.648   1.458  14.793  0.1271  1.6611 -0.6434
16112TIP3   OH269750   6.209   0.934   0.220 -0.2518  0.3379  0.0964
16112TIP3    H169751   6.298   0.954   0.246 -0.1200 -0.8569  0.5799
16112TIP3    H269752   6.171   0.889   0.296 -1.0777  0.3152 -0.3224
16113TIP3   OH269753   2.854   4.991   3.058  0.4285  0.4497 -0.4368
16113TIP3    H169754   2.853   5.066   2.998 -0.3855  1.9874  1.4777
16113TIP3    H269755   2.788   5.011   3.124  2.3759 -0.5047  1.8785
16114TIP3   OH269756   1.173   3.701   1.998  0.4336  0.2801  0.4005
16114TIP3    H169757   1.210   3.756   1.929 -0.8061 -0.6443 -1.0314
16114TIP3    H269758   1.121   3.762   2.051  1.4078  0.9990  0.5573
16115TIP3   OH269759   4.397   1.118  11.559  0.3821 -0.4265 -0.0460
16115TIP3    H169760   4.354   1.129  11.474 -2.8036 -0.8231  1.4680
16115TIP3    H269761   4.400   1.023  11.572 -1.7741 -0.2981  1.5576
16116TIP3   OH269762   4.069   2.969   2.014 -0.0082 -0.2356  0.6971
16116TIP3    H169763   4.100   3.006   1.931  1.8362  0.5610  1.7001
16116TIP3    H269764   4.027   2.887   1.990  0.5071 -0.0198 -1.0288
16117TIP3   OH269765   4.168   1.646   5.170  0.1706  0.0928 -0.2470
16117TIP3    H169766   4.252   1.600   5.168 -0.8059 -1.7243 -0.9879
16117TIP3    H269767   4.106   1.582   5.136 -1.3718  1.7233 -0.5260
16118TIP3   OH269768   4.192   6.226   2.475  0.1928 -0.1119  0.0136
16118TIP3    H169769   4.101   6.215   2.446  1.2898 -1.7614 -3.0973
16118TIP3    H269770   4.229   6.137   2.471  2.3647  0.7758 -0.4297
16119TIP3   OH269771   3.539   0.629   5.108 -0.0731  0.4775  0.5890
16119TIP3    H169772   3.600   0.593   5.172  1.2499  0.5990 -0.5882
16119TIP3    H269773   3.571   0.718   5.091 -0.4717  0.4827 -0.1626
16120TIP3   OH269774   3.419   4.870   4.006 -0.3519  0.3491 -0.2433
16120TIP3    H169775   3.449   4.960   4.018 -3.9454  1.8764 -1.8581
16120TIP3    H269776   3.384   4.844   4.092  0.3957  0.6066  0.1376
16121TIP3   OH269777   3.675   4.229   3.372  0.0209  0.4639  0.0473
16121TIP3    H169778   3.663   4.165   3.443 -0.3998  0.0543 -0.3905
16121TIP3    H269779   3.671   4.177   3.292  0.7283  0.8967 -0.2729
16122TIP3   OH269780   5.598   1.280  14.891 -0.1628 -0.6209 -0.3425
16122TIP3    H169781   5.683   1.301  14.930  0.1653 -0.8709 -0.9113
16122TIP3    H269782   5.603   1.316  14.802 -0.6822 -0.5710 -0.3524
16123TIP3   OH269783   2.807   1.620  13.943 -0.0179  0.1432 -0.1336
16123TIP3    H169784   2.729   1.675  13.954  0.4031  0.5241  1.1283
16123TIP3    H269785   2.879   1.682  13.932  0.1551 -0.2002 -0.9325
16124TIP3   OH269786   2.549   6.420   1.431  0.7273  0.3854  0.6093
16124TIP3    H169787   2.629   6.451   1.474  1.7064 -0.3668 -0.6344
16124TIP3    H269788   2.550   6.463   1.345 -0.2460  0.4395  0.6237
16125TIP3   OH269789   5.046   0.843   3.924 -0.8216 -0.5942 -0.3113
16125TIP3    H169790   5.022   0.935   3.917  1.7878  0.0762 -0.9867
16125TIP3    H269791   4.994   0.800   3.856  0.6556  0.9915 -2.5389
16126TIP3   OH269792   3.904   1.035  10.881  0.4090 -0.1578 -0.1656
16126TIP3    H169793   3.831   1.037  10.818  0.3282 -0.4831 -0.0852
16126TIP3    H269794   3.920   0.942  10.895  2.3776 -0.1202 -1.9458
16127TIP3   OH269795   2.955   5.521   3.713  0.1683  0.0470 -0.3415
16127TIP3    H169796   3.036   5.495   3.670 -0.4265  1.7732 -2.5529
16127TIP3    H269797   2.970   5.610   3.742 -1.3578  0.8668 -1.9527
16128TIP3   OH269798   6.499   1.608   5.114 -0.3461 -0.1409 -0.2530
16128TIP3    H169799   6.410   1.575   5.127  0.5978 -2.0496  1.6345
16128TIP3    H269800   6.510   1.676   5.180 -0.5168  0.3668 -0.7406
16129TIP3   OH269801   3.191   0.176  14.958 -0.7249 -0.5526  0.2219
16129TIP3    H169802   3.246   0.163  15.036  1.9203 -2.6263 -1.9082
16129TIP3    H269803   3.250   0.163  14.884 -3.1729  1.4563 -2.1785
16130TIP3   OH269804   5.004   2.258  16.561  0.1382  0.1864  0.0131
16130TIP3    H169805   5.030   2.303  16.641  0.4399  0.9926 -0.5231
16130TIP3    H269806   5.003   2.327  16.494 -1.4219 -0.1982 -0.3989
16131TIP3   OH269807   3.225   0.503   2.026 -0.1388  0.3823 -0.2621
16131TIP3    H169808   3.252   0.452   2.102 -0.6546 -0.4002 -0.6070
16131TIP3    H269809   3.147   0.459   1.993  0.7524  0.0351 -1.9573
16132TIP3   OH269810   5.438   0.232  12.637 -0.7129  0.0828  0.5805
16132TIP3    H169811   5.475   0.225  12.549  1.1967  0.3574  1.3265
16132TIP3    H269812   5.443   0.142  12.671 -0.3118  0.2011  0.8373
16133TIP3   OH269813   3.771   2.194   5.761  0.2973  0.3925 -0.2894
16133TIP3    H169814   3.795   2.173   5.670  2.5437  1.6125 -0.0202
16133TIP3    H269815   3.812   2.124   5.812 -0.1569  0.2436 -0.1240
16134TIP3   OH269816   6.053   6.511  13.352  0.8908 -0.2588 -0.0390
16134TIP3    H169817   6.110   6.443  13.388  1.0604  0.4011  0.9373
16134TIP3    H269818   6.112   6.583  13.331  0.2551  1.0214  2.3927
16135TIP3   OH269819   1.634   1.141   6.832  0.3235 -0.1806  0.0351
16135TIP3    H169820   1.698   1.089   6.880  0.9130  0.5265  0.0225
16135TIP3    H269821   1.671   1.150   6.744  0.4694  0.6628  0.1713
16136TIP3   OH269822   2.082   3.749   0.626  0.1361  0.4325 -0.3705
16136TIP3    H169823   2.163   3.787   0.592  2.0126 -0.8785  2.3737
16136TIP3    H269824   2.060   3.803   0.702 -2.4145  1.6510 -1.9259
16137TIP3   OH269825   1.634   1.016  15.055 -0.0401 -0.4290 -0.6297
16137TIP3    H169826   1.722   0.985  15.033 -0.7055 -1.7563 -1.4954
16137TIP3    H269827   1.617   0.980  15.142 -0.3394 -1.5396 -1.1332
16138TIP3   OH269828   3.461   4.656  16.207 -0.0483  0.3564  0.3572
16138TIP3    H169829   3.402   4.702  16.266 -1.2323 -1.6624  0.7986
16138TIP3    H269830   3.410   4.644  16.127 -0.3731 -1.6585  0.8411
16139TIP3   OH269831   3.383   5.894   2.677  0.0337 -0.7020 -0.3646
16139TIP3    H169832   3.467   5.892   2.722 -0.9846 -1.9574  1.5558
16139TIP3    H269833   3.391   5.966   2.613  2.2791 -0.3417  0.2908
16140TIP3   OH269834   0.580   3.482   4.732  0.8073 -0.7641  0.4156
16140TIP3    H169835   0.532   3.478   4.814 -1.7708  1.0359 -0.9471
16140TIP3    H269836   0.513   3.473   4.664  2.6849 -0.6466 -1.5282
16141TIP3   OH269837   5.564   4.127  14.013 -0.1162 -0.1081  0.5058
16141TIP3    H169838   5.479   4.171  14.016  0.2544  0.5917  1.0154
16141TIP3    H269839   5.627   4.197  14.004  0.3054 -0.7617 -1.8555
16142TIP3   OH269840   2.193   5.785  15.364 -0.5209 -0.6065 -0.2942
16142TIP3    H169841   2.199   5.874  15.398 -0.4020 -1.5925  2.3725
16142TIP3    H269842   2.229   5.730  15.433 -0.0872 -2.6986 -2.1223
16143TIP3   OH269843   0.393   5.175   0.836  0.1281  0.7866 -1.2504
16143TIP3    H169844   0.467   5.153   0.891 -1.3266  0.7262  0.7619
16143TIP3    H269845   0.380   5.269   0.849 -2.1377  0.2305  1.0543
16144TIP3   OH269846   6.681   1.980   4.907  0.0424 -0.6976  0.5035
16144TIP3    H169847   6.693   1.934   4.990  0.4757  0.0409  0.8440
16144TIP3    H269848   6.758   1.957   4.855  0.7066  0.3644  1.0067
16145TIP3   OH269849   3.953   4.085   4.173  0.5599 -0.2379  0.0873
16145TIP3    H169850   3.881   4.147   4.184 -1.5031 -2.5435  0.1505
16145TIP3    H269851   4.000   4.089   4.256 -1.7784 -1.4025  1.5383
16146TIP3   OH269852   5.513   2.512   1.311 -0.3903  0.1672  0.2543
16146TIP3    H169853   5.420   2.537   1.315 -0.3555  0.5782 -1.2015
16146TIP3    H269854   5.542   2.541   1.225  0.8651 -0.7786  0.3411
16147TIP3   OH269855   5.219   2.892  15.734  0.2619 -0.1660  0.0465
16147TIP3    H169856   5.255   2.954  15.797 -0.4694  1.7754 -1.3913
16147TIP3    H269857   5.164   2.833  15.786  0.1472  1.0345  1.2891
16148TIP3   OH269858   3.182   2.614  16.611 -0.9635 -0.1797 -0.5698
16148TIP3    H169859   3.152   2.662  16.534  1.5739  0.7437 -1.0530
16148TIP3    H269860   3.236   2.678  16.658 -1.0395 -1.2797  1.0418
16149TIP3   OH269861   4.817   6.443   0.570 -0.2356 -0.6245  0.4681
16149TIP3    H169862   4.809   6.498   0.648 -0.9542  0.2024 -0.1712
16149TIP3    H269863   4.733   6.399   0.563 -0.7730  0.5410 -0.7337
16150TIP3   OH269864   0.548   0.117   2.485 -0.5147 -0.0925  0.0203
16150TIP3    H169865   0.575   0.101   2.394 -2.0516  0.4012 -0.5579
16150TIP3    H269866   0.526   0.031   2.519  0.2189 -0.3002 -0.0336
16151TIP3   OH269867   2.087   0.801  11.631  0.2599  0.0727 -0.2355
16151TIP3    H169868   2.147   0.783  11.558  0.7751 -0.3140  0.2792
16151TIP3    H269869   2.060   0.715  11.661 -0.7387  0.2525 -0.6099
16152TIP3   OH269870   3.135   1.969   5.400  0.0656  0.0293 -0.0275
16152TIP3    H169871   3.138   1.880   5.435  1.3554  0.5392  1.2012
16152TIP3    H269872   3.075   1.964   5.326  0.7940 -2.0497 -0.4964
16153TIP3   OH269873   4.166   5.566   5.803 -0.8275 -0.2036 -0.1984
16153TIP3    H169874   4.114   5.574   5.883 -3.1029  1.7687 -1.8183
16153TIP3    H269875   4.115   5.509   5.746 -0.0188 -0.2646 -0.8692
16154TIP3   OH269876   1.667   3.210  13.942  0.0299 -0.1284 -0.8334
16154TIP3    H169877   1.613   3.134  13.921 -1.3941  0.2588  1.2554
16154TIP3    H269878   1.606   3.272  13.983  1.3336  1.7953 -1.7075
16155TIP3   OH269879   0.834   5.323  12.838 -0.2826  0.3394  0.4272
16155TIP3    H169880   0.805   5.317  12.747 -2.7988  0.9298  1.1586
16155TIP3    H269881   0.875   5.409  12.844 -0.9109  0.6698  0.0575
16156TIP3   OH269882   0.776   3.002   1.947 -0.2869  0.6265 -0.0333
16156TIP3    H169883   0.730   2.987   2.029  0.0896 -1.5544 -0.1979
16156TIP3    H269884   0.831   2.925   1.936 -0.1929  0.9815 -2.2517
16157TIP3   OH269885   6.338   2.248  14.181 -0.0132  0.0013  0.0021
16157TIP3    H169886   6.266   2.206  14.134  1.2286 -0.1633 -1.7975
16157TIP3    H269887   6.316   2.341  14.178 -0.3097 -0.0737 -0.2674
16158TIP3   OH269888   4.544   5.921  12.774  0.3594 -0.7077 -0.1248
16158TIP3    H169889   4.553   6.015  12.788  0.9597 -0.5218 -1.7509
16158TIP3    H269890   4.542   5.885  12.863 -0.0580  0.8448  0.5192
16159TIP3   OH269891   4.302   0.397   6.491  0.0844  0.3157 -0.1563
16159TIP3    H169892   4.265   0.313   6.518  0.4771 -0.7886 -2.9296
16159TIP3    H269893   4.381   0.407   6.545  0.2422 -1.2825 -0.0822
16160TIP3   OH269894   2.153   0.190  15.311 -0.2399 -0.5095  0.4121
16160TIP3    H169895   2.215   0.196  15.238 -0.1410  0.3778  0.5603
16160TIP3    H269896   2.118   0.101  15.306  0.7555 -0.8879  0.0915
16161TIP3   OH269897   3.924   3.844   5.084  0.6470  0.0253  0.0870
16161TIP3    H169898   3.851   3.875   5.031 -0.0166 -0.4841  0.6866
16161TIP3    H269899   3.883   3.812   5.164  1.5042 -0.5024  0.3199
16162TIP3   OH269900   0.755   5.899  16.678 -0.4581 -0.5315  0.0115
16162TIP3    H169901   0.831   5.956  16.666 -0.0736 -0.8150  1.0625
16162TIP3    H269902   0.775   5.821  16.627 -0.2296 -0.4408 -0.0390
16163TIP3   OH269903   0.225   4.276   0.622  0.1777 -0.3538 -0.0718
16163TIP3    H169904   0.216   4.258   0.528 -1.5885  0.4284 -0.0620
16163TIP3    H269905   0.148   4.236   0.662 -1.5661  3.3281  0.4707
16164TIP3   OH269906   3.229   0.612  11.818  0.0927 -0.5442  0.1176
16164TIP3    H169907   3.252   0.705  11.822  0.7056 -0.7605  1.8873
16164TIP3    H269908   3.171   0.598  11.893  1.0158 -1.8543  0.6080
16165TIP3   OH269909   2.788   1.006  16.020 -0.2649  0.4329  0.2389
16165TIP3    H169910   2.845   0.936  16.052  0.5169  1.8026  1.9432
16165TIP3    H269911   2.701   0.967  16.017  0.1738 -0.6312  1.1141
16166TIP3   OH269912   0.865   4.789   2.162  0.1778  0.2754 -0.1259
16166TIP3    H169913   0.935   4.805   2.226 -0.9374 -0.5044  1.3259
16166TIP3    H269914   0.910   4.753   2.085  1.5059  0.9199  0.3406
16167TIP3   OH269915   5.200   2.847  16.062  0.1157 -0.6909  0.3135
16167TIP3    H169916   5.157   2.922  16.102 -0.8645 -1.9130  1.5998
16167TIP3    H269917   5.291   2.875  16.049  0.5906 -0.4159  3.8766
16168TIP3   OH269918   3.665   1.936   2.921  0.2141  0.6050 -0.2679
16168TIP3    H169919   3.602   1.965   2.855  1.2939  1.2619 -1.0107
16168TIP3    H269920   3.751   1.959   2.886  0.8522  0.3057  1.0336
16169TIP3   OH269921   0.245   2.793   3.238  0.0340  0.1231  0.3259
16169TIP3    H169922   0.224   2.856   3.170 -0.3802 -1.3137 -0.9130
16169TIP3    H269923   0.328   2.755   3.211  0.2651  0.1084  1.0440
16170TIP3   OH269924   4.045   4.400  11.804 -0.3734  0.7136  0.1077
16170TIP3    H169925   3.994   4.370  11.880 -0.7444  0.1924 -0.3464
16170TIP3    H269926   3.981   4.411  11.734  0.3315 -1.5131 -0.9284
16171TIP3   OH269927   2.891   4.917  12.469  0.0526  0.4566 -0.3708
16171TIP3    H169928   2.962   4.899  12.408 -1.0477  1.3560 -1.9533
16171TIP3    H269929   2.927   4.980  12.530  0.4394  1.3862 -1.5421
16172TIP3   OH269930   4.595   5.872  16.444  0.5224 -0.5929 -0.1231
16172TIP3    H169931   4.509   5.873  16.484  0.8743 -1.8293  0.6954
16172TIP3    H269932   4.602   5.957  16.400  0.1878  0.8642  2.5291
16173TIP3   OH269933   2.805   3.281  15.489 -0.1536  0.8081  0.1748
16173TIP3    H169934   2.756   3.354  15.528 -1.0917 -0.3546  1.1858
16173TIP3    H269935   2.896   3.300  15.511 -0.1376  2.7477 -1.3348
16174TIP3   OH269936   5.080   3.595  15.625 -0.5476 -0.0173  0.6306
16174TIP3    H169937   5.174   3.575  15.629 -0.4065  0.3148 -0.8635
16174TIP3    H269938   5.040   3.535  15.688  0.7032  0.0998  1.5630
16175TIP3   OH269939   1.349   2.663   2.190 -0.0232 -0.3720 -0.5547
16175TIP3    H169940   1.334   2.758   2.194 -0.6863 -0.5374  1.3001
16175TIP3    H269941   1.378   2.647   2.100 -0.7396  1.4747 -1.1360
16176TIP3   OH269942   3.007   3.180  10.647  0.3962  0.1136 -0.3697
16176TIP3    H169943   3.082   3.128  10.677 -0.9405 -2.1109 -0.7307
16176TIP3    H269944   2.979   3.136  10.566 -1.4861  0.7261 -0.0649
16177TIP3   OH269945   3.651   3.271  15.191  0.3046 -0.3673  0.0356
16177TIP3    H169946   3.556   3.280  15.182  0.2152 -1.1369  0.2320
16177TIP3    H269947   3.666   3.261  15.285  0.4613 -1.5609 -0.1095
16178TIP3   OH269948   4.887   0.230   1.426 -0.2628 -0.1864 -0.2674
16178TIP3    H169949   4.808   0.246   1.374  0.5404 -3.4330 -2.6309
16178TIP3    H269950   4.941   0.308   1.411 -2.9019  2.0012  1.2846
16179TIP3   OH269951   4.562   3.752   1.989 -0.1113  0.1789 -0.1872
16179TIP3    H169952   4.530   3.734   2.077 -0.4538  2.1032  0.1107
16179TIP3    H269953   4.483   3.762   1.936  0.0838 -0.3202 -0.5734
16180TIP3   OH269954   4.111   5.599  16.503 -0.7904  0.2962 -0.2689
16180TIP3    H169955   4.187   5.618  16.558 -0.4390 -1.7844 -0.0142
16180TIP3    H269956   4.038   5.590  16.564 -0.9908  0.9583 -0.4054
16181TIP3   OH269957   1.996   0.421   0.488  0.2271 -0.2576 -0.4247
16181TIP3    H169958   2.089   0.422   0.511  0.4297 -0.7277 -1.2045
16181TIP3    H269959   1.971   0.513   0.483  0.1565 -0.1420  1.7140
16182TIP3   OH269960   6.060   1.895   5.159  0.4973  0.0561  0.5753
16182TIP3    H169961   5.998   1.828   5.130  0.6951  0.9996 -2.1567
16182TIP3    H269962   6.011   1.947   5.223 -0.4095 -1.2288  0.9500
16183TIP3   OH269963   4.072   6.350  12.490 -0.5651  0.3707 -0.0456
16183TIP3    H169964   4.150   6.323  12.539 -0.7769 -0.9228 -0.3920
16183TIP3    H269965   4.072   6.445  12.496  1.4080  0.4379 -0.6033
16184TIP3   OH269966   0.226   5.166  16.085 -0.5779 -0.3691 -0.2424
16184TIP3    H169967   0.131   5.172  16.077 -0.7169 -2.2664 -0.2662
16184TIP3    H269968   0.241   5.139  16.175 -0.0713 -0.5474 -0.3765
16185TIP3   OH269969   0.718   3.518   6.635  0.1676  0.0230 -0.6062
16185TIP3    H169970   0.748   3.579   6.702 -1.4808  1.5863 -1.2558
16185TIP3    H269971   0.743   3.558   6.552 -0.0495 -0.6562 -1.0094
16186TIP3   OH269972   3.920   6.031   2.873  0.3998  0.3850 -0.0452
16186TIP3    H169973   3.905   6.041   2.779  0.6466  0.5975 -0.0613
16186TIP3    H269974   3.999   6.083   2.891  1.7253 -1.5533 -0.1463
16187TIP3   OH269975   0.045   0.170   1.562 -0.5854 -0.0588 -0.6412
16187TIP3    H169976   0.017   0.246   1.510 -0.0669  1.2608  0.9839
16187TIP3    H269977  -0.036   0.136   1.599 -0.6685  0.5890 -0.2093
16188TIP3   OH269978   3.354   2.892  11.590  0.7868  0.3338  0.8511
16188TIP3    H169979   3.317   2.891  11.678  0.7702 -0.2315  0.8414
16188TIP3    H269980   3.282   2.863  11.534  1.5207 -1.7337  0.9434
16189TIP3   OH269981   2.716   4.727   3.032  0.1751 -0.2263 -0.3447
16189TIP3    H169982   2.707   4.694   3.121 -0.2147 -0.1704 -0.3641
16189TIP3    H269983   2.781   4.797   3.039 -0.3053  0.1929  0.0042
16190TIP3   OH269984   4.088   6.521  14.783 -0.3221  0.1421 -0.4020
16190TIP3    H169985   4.077   6.508  14.689 -1.6980  2.3222 -0.5848
16190TIP3    H269986   4.165   6.578  14.790 -0.0101 -0.3026 -0.1779
16191TIP3   OH269987   1.793   6.613  10.503  0.4091 -0.7034  0.1072
16191TIP3    H169988   1.782   6.691  10.448  2.4144  0.3824  1.2089
16191TIP3    H269989   1.821   6.545  10.442  0.2459 -0.1404 -0.6037
16192TIP3   OH269990   2.155   1.897  15.436 -0.3344 -0.2010  0.8349
16192TIP3    H169991   2.197   1.909  15.521  2.7417  1.8977 -0.8770
16192TIP3    H269992   2.198   1.820  15.399  0.5193  0.6509 -0.0027
16193TIP3   OH269993   5.500   2.557   4.772 -0.2773 -0.0116 -0.5090
16193TIP3    H169994   5.571   2.579   4.712 -0.0621 -1.7025 -0.8959
16193TIP3    H269995   5.531   2.587   4.858 -0.2870  1.7651 -1.0969
16194TIP3   OH269996   1.186   3.006   1.000  0.3062  0.4455  0.1307
16194TIP3    H169997   1.175   2.924   0.952  1.7288  1.4718 -1.9922
16194TIP3    H269998   1.098   3.044   1.003 -0.1605 -0.6021  0.1534
16195TIP3   OH269999   1.527   2.680  17.228 -0.1152  0.8073 -0.1642
16195TIP3    H170000   1.559   2.723  17.149  1.8362 -0.7745 -0.2507
16195TIP3    H270001   1.435   2.706  17.233  0.2918  2.6955 -1.7453
16196TIP3   OH270002   6.296   0.589  12.299 -0.1050 -0.0245 -0.3825
16196TIP3    H170003   6.241   0.655  12.340 -2.0118 -1.3492 -0.7270
16196TIP3    H270004   6.258   0.506  12.327  0.9556 -0.9557 -1.6587
16197TIP3   OH270005   2.224   0.630   5.716 -0.0701 -0.4415 -0.1551
16197TIP3    H170006   2.191   0.718   5.700 -0.6293 -0.7488 -0.7536
16197TIP3    H270007   2.195   0.579   5.640  0.5165 -1.0686  0.0267
16198TIP3   OH270008   0.776   0.494  14.396 -0.1716 -0.0120  0.4592
16198TIP3    H170009   0.847   0.539  14.443  0.0610  0.0156  0.0775
16198TIP3    H270010   0.737   0.562  14.341  1.3269 -0.6810 -1.4784
16199TIP3   OH270011   6.150   6.674  12.279  0.6429  0.2432 -0.0544
16199TIP3    H170012   6.169   6.677  12.373 -0.9531  0.0143  0.2998
16199TIP3    H270013   6.193   6.595  12.247 -1.4107 -1.4162  1.1301
16200TIP3   OH270014   3.107   3.906   2.641 -0.2658  0.0413  0.1770
16200TIP3    H170015   3.051   3.864   2.706 -2.3558  2.1725 -0.1985
16200TIP3    H270016   3.069   3.993   2.629  1.1946  0.3428 -2.5366
16201TIP3   OH270017   1.390   4.934  16.773  0.8120  0.2505  0.3299
16201TIP3    H170018   1.456   5.003  16.765  0.0840  0.7217 -1.8834
16201TIP3    H270019   1.336   4.962  16.847  2.5491  0.3242  1.5820
16202TIP3   OH270020   6.424   3.580  12.592  0.3349  0.1345 -0.4611
16202TIP3    H170021   6.500   3.556  12.538  1.0221  0.1207  0.5123
16202TIP3    H270022   6.408   3.503  12.646 -1.3295 -0.4385 -1.7188
16203TIP3   OH270023   6.646   4.961   5.239  0.2486 -0.7031 -0.0825
16203TIP3    H170024   6.619   4.869   5.239  1.6128 -1.1198 -0.8075
16203TIP3    H270025   6.680   4.977   5.327 -1.9509 -0.2764  0.7234
16204TIP3   OH270026   0.338   5.317  14.310  0.7094 -0.2736  0.1738
16204TIP3    H170027   0.304   5.348  14.226 -1.2793 -0.0265  1.0396
16204TIP3    H270028   0.430   5.344  14.310  0.1527  1.7476 -0.9617
16205TIP3   OH270029   4.053   3.056  16.675 -0.0453  0.3178  0.6101
16205TIP3    H170030   4.085   3.040  16.764  0.7818  0.3846  0.3342
16205TIP3    H270031   4.086   3.143  16.654 -1.0286  0.6827  0.5812
16206TIP3   OH270032   1.570   3.590   3.023 -0.2728  0.2365  0.4221
16206TIP3    H170033   1.491   3.643   3.011  2.1943  3.4392 -2.5291
16206TIP3    H270034   1.560   3.552   3.111 -3.0582  4.0668  1.8870
16207TIP3   OH270035   0.403   0.731  14.193  0.2486 -0.2002 -0.5154
16207TIP3    H170036   0.364   0.815  14.169 -0.3763 -0.1301  0.7138
16207TIP3    H270037   0.446   0.701  14.113 -1.0514  0.4347 -1.4663
16208TIP3   OH270038   3.353   5.044   6.290  0.2211 -0.5039 -0.4234
16208TIP3    H170039   3.352   4.956   6.328  0.1197 -0.2901  0.0730
16208TIP3    H270040   3.342   5.102   6.365  0.6681 -0.0543 -0.7059
16209TIP3   OH270041   4.028   5.170  13.823  0.0768  0.2998 -0.0238
16209TIP3    H170042   3.977   5.237  13.778 -0.0773 -0.7007 -1.3492
16209TIP3    H270043   3.967   5.096  13.832  0.7512 -0.2612 -0.0359
16210TIP3   OH270044   2.520   4.007  13.615 -0.5721 -0.1684  0.1520
16210TIP3    H170045   2.560   3.920  13.615  2.5099  1.1681  0.8260
16210TIP3    H270046   2.497   4.023  13.524  0.1078 -1.1358 -0.2018
16211TIP3   OH270047   0.843   3.280  16.624 -0.6387  0.4980  0.2058
16211TIP3    H170048   0.818   3.327  16.703 -5.1432 -1.5432  0.1679
16211TIP3    H270049   0.889   3.345  16.571 -1.6967  3.2162  2.4974
16212TIP3   OH270050   1.431   6.038  11.340 -0.5139 -0.6675  0.3922
16212TIP3    H170051   1.452   6.092  11.263  0.2704  0.0124  1.0840
16212TIP3    H270052   1.361   5.981  11.309  0.4711 -1.1059 -1.1490
16213TIP3   OH270053   6.745   1.436   4.696 -0.1872 -0.5455 -0.7468
16213TIP3    H170054   6.748   1.396   4.609 -1.5278 -0.6205 -0.7654
16213TIP3    H270055   6.711   1.524   4.681  3.6304  0.9959 -0.8274
16214TIP3   OH270056   6.712   2.104  14.894 -0.0148 -0.3191  0.1306
16214TIP3    H170057   6.627   2.107  14.849 -0.3191  0.8191  0.7682
16214TIP3    H270058   6.690   2.111  14.987  0.8309  0.9859  0.2493
16215TIP3   OH270059   3.731   1.144   2.146  0.5717  0.0439 -0.2839
16215TIP3    H170060   3.742   1.145   2.241 -1.9493  0.3552  0.0583
16215TIP3    H270061   3.805   1.094   2.113 -0.4677 -3.3048  2.1497
16216TIP3   OH270062   3.514   1.703   2.962 -0.5191 -0.5197  0.4929
16216TIP3    H170063   3.587   1.764   2.955  2.1706 -3.6430 -0.0778
16216TIP3    H270064   3.519   1.670   3.052 -0.4033 -1.6857  0.0690
16217TIP3   OH270065   5.672   3.478   3.508  0.2417  0.1566  0.6288
16217TIP3    H170066   5.605   3.531   3.465  0.0897 -0.2491  0.3602
16217TIP3    H270067   5.623   3.411   3.554  0.3679  0.9934  2.0015
16218TIP3   OH270068   1.120   5.161   6.454 -0.2783  0.5055 -0.5434
16218TIP3    H170069   1.095   5.142   6.545  0.6894 -0.1069 -0.3977
16218TIP3    H270070   1.184   5.094   6.432 -1.5762 -0.2206 -2.1753
16219TIP3   OH270071   2.242   0.530  15.104  0.0616  0.4882  0.4080
16219TIP3    H170072   2.249   0.435  15.113 -0.1111  0.4344 -0.0264
16219TIP3    H270073   2.298   0.551  15.030 -2.9446  0.2630 -2.0266
16220TIP3   OH270074   2.198   1.408  16.496 -0.0729  0.8120 -0.0979
16220TIP3    H170075   2.147   1.329  16.513  1.3097 -0.3078 -0.9997
16220TIP3    H270076   2.188   1.424  16.402 -1.0033  2.1805  0.2288
16221TIP3   OH270077   4.865   2.873   5.237  0.0999 -0.5911  0.6855
16221TIP3    H170078   4.831   2.788   5.210  1.7526 -0.5764 -1.5941
16221TIP3    H270079   4.797   2.935   5.210  0.0322 -0.9575  0.0019
16222TIP3   OH270080   5.194   1.839   3.315  0.3020 -0.3330  0.1436
16222TIP3    H170081   5.231   1.866   3.399 -0.3812 -1.6759  0.9011
16222TIP3    H270082   5.268   1.839   3.254  1.0349 -0.5080  1.0398
16223TIP3   OH270083   2.474   6.005   3.723  0.4280 -0.3929 -0.6636
16223TIP3    H170084   2.452   6.094   3.750  2.8061  0.5721 -1.7159
16223TIP3    H270085   2.502   5.962   3.804 -0.9698 -0.2774 -0.1108
16224TIP3   OH270086   4.386   1.733  13.168 -0.2180  0.0752  0.2550
16224TIP3    H170087   4.339   1.813  13.190 -0.3796 -0.6300  2.5687
16224TIP3    H270088   4.317   1.671  13.143 -0.2041  0.2365 -0.1840
16225TIP3   OH270089   3.236   1.267   1.435  0.2348 -0.4298  0.9641
16225TIP3    H170090   3.218   1.344   1.381 -0.4349  1.1720  3.3599
16225TIP3    H270091   3.294   1.213   1.382 -0.9879  0.7056 -1.6261
16226TIP3   OH270092   4.515   3.009   1.955  0.4215  0.1131  0.3873
16226TIP3    H170093   4.594   3.037   2.001  1.5487 -0.3998 -1.1781
16226TIP3    H270094   4.548   2.963   1.877 -1.3895 -3.5613  1.6859
16227TIP3   OH270095   4.250   5.756  14.732 -0.0191  0.4051  0.2780
16227TIP3    H170096   4.173   5.708  14.762  0.0222  1.0258  1.4209
16227TIP3    H270097   4.324   5.701  14.758 -0.0891 -1.0840 -2.4320
16228TIP3   OH270098   6.033   1.105  16.625 -0.6588 -0.2562  0.1865
16228TIP3    H170099   5.984   1.028  16.597  0.7079 -1.2513  0.4463
16228TIP3    H270100   6.119   1.096  16.582 -0.3972  1.0008  0.4063
16229TIP3   OH270101   4.910   1.318  12.401  0.0469  0.3413  0.0922
16229TIP3    H170102   4.884   1.250  12.339 -2.9829  0.6680  0.9298
16229TIP3    H270103   4.898   1.400  12.354  0.7018  0.4587  0.1193
16230TIP3   OH270104   4.251   2.245   3.660 -0.4149 -0.1078 -0.0564
16230TIP3    H170105   4.321   2.267   3.597 -0.5079  0.1906 -0.0580
16230TIP3    H270106   4.285   2.170   3.708  0.1119  0.3220  0.2573
16231TIP3   OH270107   5.017   5.896   0.538 -0.2613 -0.0756 -0.2874
16231TIP3    H170108   5.091   5.925   0.593 -0.5950  0.2655 -0.0165
16231TIP3    H270109   4.971   5.977   0.517 -0.8924 -0.3555  0.0218
16232TIP3   OH270110   1.484   3.781   2.759  0.0099 -0.0338  0.4572
16232TIP3    H170111   1.410   3.783   2.698  0.2803 -3.0914 -0.0701
16232TIP3    H270112   1.452   3.827   2.836 -1.7754  0.3982 -0.4942
16233TIP3   OH270113   5.905   1.913  12.934  0.3504 -0.0277  0.5482
16233TIP3    H170114   5.926   1.985  12.994 -1.5190  1.2544 -0.2825
16233TIP3    H270115   5.900   1.955  12.848  0.0131 -1.2919 -0.0572
16234TIP3   OH270116   0.218   1.291   1.690 -0.0672  0.3134  0.8171
16234TIP3    H170117   0.145   1.261   1.744 -1.2414 -0.9683 -1.4288
16234TIP3    H270118   0.261   1.358   1.744 -2.2714  0.3726  2.5929
16235TIP3   OH270119   5.825   2.085   5.845  0.1420  0.3996 -0.1077
16235TIP3    H170120   5.869   2.053   5.924  1.3847  2.1536 -0.0370
16235TIP3    H270121   5.759   2.146   5.879 -1.2779 -1.0073 -0.2983
16236TIP3   OH270122   3.196   2.315  11.084 -0.4018 -0.1733 -0.5176
16236TIP3    H170123   3.226   2.387  11.138 -3.5767  0.7178  0.1704
16236TIP3    H270124   3.240   2.238  11.119  0.1309  0.8880  1.1993
16237TIP3   OH270125   5.069   6.181  11.322 -0.3618 -0.3948 -0.3182
16237TIP3    H170126   5.035   6.183  11.232 -1.5326 -1.1555  0.0957
16237TIP3    H270127   5.052   6.092  11.352  2.4244 -0.9595 -0.2358
16238TIP3   OH270128   4.026   4.273   5.401  0.1585  0.0309  0.1547
16238TIP3    H170129   4.117   4.300   5.390  0.6715 -1.5600  0.4297
16238TIP3    H270130   4.012   4.207   5.333 -0.6250 -0.1440  0.4813
16239TIP3   OH270131   4.004   2.222  16.626 -0.3976  0.1795  0.3695
16239TIP3    H170132   3.950   2.170  16.567 -0.3602  0.0259  0.4677
16239TIP3    H270133   4.024   2.301  16.577  1.7759 -1.0585 -0.8235
16240TIP3   OH270134   3.359   3.250  14.696  0.1127  0.2687  0.8555
16240TIP3    H170135   3.284   3.240  14.754 -0.1362  0.0775  0.5027
16240TIP3    H270136   3.399   3.163  14.695 -1.1571 -0.3222 -0.9962
16241TIP3   OH270137   5.526   5.731   0.468 -0.0038 -0.2771  0.2469
16241TIP3    H170138   5.557   5.801   0.411 -0.4317  1.0195  1.5805
16241TIP3    H270139   5.438   5.711   0.435  0.5170 -0.9097 -0.7786
16242TIP3   OH270140   1.348   5.730  16.979  0.2115  0.9378  0.0236
16242TIP3    H170141   1.323   5.742  16.887  2.6062 -0.0019 -0.8118
16242TIP3    H270142   1.394   5.646  16.980 -2.8499 -0.7746  2.7958
16243TIP3   OH270143   2.947   4.361  11.294 -0.4140 -0.4499 -0.0464
16243TIP3    H170144   2.934   4.417  11.218 -0.4249 -1.8443 -1.1017
16243TIP3    H270145   3.037   4.329  11.284 -1.2723 -2.6795 -0.8912
16244TIP3   OH270146   5.085   5.206  16.474  0.0545 -0.7230  0.1157
16244TIP3    H170147   5.073   5.194  16.569  1.4946  2.9123  0.8420
16244TIP3    H270148   5.006   5.252  16.446  0.8034  0.5692  0.0863
16245TIP3   OH270149   0.581   3.720   5.892  0.0003  0.2585 -0.3248
16245TIP3    H170150   0.496   3.678   5.880  0.2316 -0.4894  0.5731
16245TIP3    H270151   0.591   3.727   5.987  1.6527 -1.1607 -0.3641
16246TIP3   OH270152   5.440   1.098  12.609  0.7065  0.3624  0.4411
16246TIP3    H170153   5.420   1.185  12.576  2.5364  0.3817 -0.7070
16246TIP3    H270154   5.427   1.105  12.704 -0.2417  1.5603  0.2395
16247TIP3   OH270155   4.051   2.202   1.900  0.2358 -0.3400  0.0497
16247TIP3    H170156   4.127   2.242   1.858  0.5005 -0.7124  0.1757
16247TIP3    H270157   4.002   2.161   1.829  1.2433 -1.8951  0.2351
16248TIP3   OH270158   0.409   4.709  13.108  0.4204  0.0330  0.3043
16248TIP3    H170159   0.461   4.773  13.061 -0.4192  0.8338  0.4485
16248TIP3    H270160   0.436   4.624  13.071  1.6652  0.4459  0.2502
16249TIP3   OH270161   6.584   0.129   5.340  0.1935 -0.5185  0.1738
16249TIP3    H170162   6.538   0.059   5.386 -0.3531 -0.8692 -0.8837
16249TIP3    H270163   6.658   0.086   5.298  1.0114 -0.1007  1.1888
16250TIP3   OH270164   6.288   2.882  16.373 -0.4253 -0.3259 -0.1534
16250TIP3    H170165   6.267   2.882  16.280 -0.5405 -1.2680 -0.1354
16250TIP3    H270166   6.216   2.834  16.414 -0.0299 -0.5163  0.3364
16251TIP3   OH270167   2.937   4.472  16.438 -0.4544  0.0172  0.0846
16251TIP3    H170168   2.865   4.493  16.498 -0.1105  1.1681  0.0991
16251TIP3    H270169   2.894   4.428  16.365 -1.2982  1.4047 -0.2775
16252TIP3   OH270170   6.186   1.333   3.272 -0.0371 -0.4306  0.4403
16252TIP3    H170171   6.160   1.353   3.183  2.9194 -1.7620 -0.7824
16252TIP3    H270172   6.279   1.311   3.266  0.3102 -0.2583  3.8817
16253TIP3   OH270173   4.514   4.174  15.539 -0.1258  0.3053 -0.0956
16253TIP3    H170174   4.543   4.242  15.600  0.0246  0.7310 -0.6389
16253TIP3    H270175   4.443   4.129  15.585  0.7884 -0.1636  0.8907
16254TIP3   OH270176   1.109   5.913   1.373  0.1074 -0.2468  0.2885
16254TIP3    H170177   1.081   5.973   1.303  1.0981 -0.2099 -0.0879
16254TIP3    H270178   1.141   5.836   1.326 -1.0498 -1.0355  0.7694
16255TIP3   OH270179   0.925   5.601  13.297 -0.2304 -0.6488  0.1630
16255TIP3    H170180   1.002   5.606  13.354  0.0277 -1.1915 -0.1379
16255TIP3    H270181   0.942   5.526  13.240 -1.2266 -1.1019  0.4548
16256TIP3   OH270182   5.926   2.132  11.746 -0.2796 -0.0887 -0.1645
16256TIP3    H170183   5.997   2.125  11.810 -1.5696  0.0854  1.3213
16256TIP3    H270184   5.958   2.195  11.682  0.7591  0.2839  0.6941
16257TIP3   OH270185   3.665   0.574   5.360 -0.1240 -0.0614  0.1510
16257TIP3    H170186   3.605   0.514   5.404 -1.1505 -0.4278 -1.6894
16257TIP3    H270187   3.645   0.660   5.398 -0.9491 -0.3820  0.4538
16258TIP3   OH270188   4.511   0.703   4.548  0.0501 -0.0942  0.0233
16258TIP3    H170189   4.548   0.615   4.547  0.9416  0.2648  0.8943
16258TIP3    H270190   4.472   0.713   4.460  0.9556 -0.9189 -0.4837
16259TIP3   OH270191   4.536   3.691  12.430  0.1900  0.0786 -0.7081
16259TIP3    H170192   4.492   3.762  12.382  0.8362  0.6670 -0.4411
16259TIP3    H270193   4.468   3.652  12.483  0.0784  1.2796  0.0455
16260TIP3   OH270194   2.737   0.022   2.465 -0.4133  0.1980  0.3291
16260TIP3    H170195   2.690   0.102   2.488 -0.0632  1.3953 -2.8681
16260TIP3    H270196   2.671  -0.047   2.472 -2.3434  1.6376 -2.6108
16261TIP3   OH270197   3.816   3.677  13.311 -0.3397 -0.2840  0.3142
16261TIP3    H170198   3.841   3.729  13.235  1.2512 -2.4358 -0.6975
16261TIP3    H270199   3.827   3.736  13.386 -0.8796  1.5254 -1.0107
16262TIP3   OH270200   1.238   5.816  13.201  0.0955 -0.9333  0.4535
16262TIP3    H170201   1.271   5.861  13.123  0.3588 -0.3909  0.8729
16262TIP3    H270202   1.143   5.815  13.190  0.0290  0.4536  0.8221
16263TIP3   OH270203   1.324   0.433  13.841 -0.1233 -0.3510  0.4267
16263TIP3    H170204   1.313   0.389  13.757 -1.8475  0.3824  0.2393
16263TIP3    H270205   1.245   0.410  13.891  0.7398 -0.5445  1.7441
16264TIP3   OH270206   5.599   6.607  12.186 -0.4561 -0.7939  0.7080
16264TIP3    H170207   5.528   6.671  12.186 -1.1009 -1.4866 -0.1340
16264TIP3    H270208   5.678   6.658  12.200 -1.0574  0.0697  0.9888
16265TIP3   OH270209   1.784   5.468   5.052 -0.4538 -0.2647 -0.6580
16265TIP3    H170210   1.833   5.545   5.082 -0.0586 -0.3030 -1.1957
16265TIP3    H270211   1.713   5.459   5.115  0.0888 -0.0587 -0.0016
16266TIP3   OH270212   6.319   3.605   5.690  0.1435  0.3269  0.0233
16266TIP3    H170213   6.410   3.608   5.718  0.5310 -1.5308 -0.9385
16266TIP3    H270214   6.270   3.581   5.769  0.4652  1.4459  0.5679
16267TIP3   OH270215   4.832   3.667   3.835  0.0866 -0.0620  0.3218
16267TIP3    H170216   4.763   3.718   3.792  0.7516  2.0262  1.6665
16267TIP3    H270217   4.786   3.620   3.905  0.0056  1.3455  1.2346
16268TIP3   OH270218   1.158   2.513  11.968  0.6851  0.0643 -0.1119
16268TIP3    H170219   1.253   2.510  11.958  0.8873  0.2815  1.6360
16268TIP3    H270220   1.143   2.574  12.040 -0.7820  0.0339 -0.3723
16269TIP3   OH270221   4.003   0.494  16.575 -0.1270 -0.4961  0.0468
16269TIP3    H170222   3.977   0.472  16.665 -1.2253 -0.2580 -0.2100
16269TIP3    H270223   3.948   0.568  16.552 -0.1583 -0.8363 -0.9851
16270TIP3   OH270224   5.167   2.751  10.921 -0.0002  0.1811 -0.3022
16270TIP3    H170225   5.247   2.802  10.910  0.0559  0.5316  1.6413
16270TIP3    H270226   5.187   2.689  10.990 -0.7717 -1.0869 -1.1926
16271TIP3   OH270227   2.833   1.356   5.596  0.5920 -0.0292  0.8431
16271TIP3    H170228   2.862   1.283   5.541 -1.2254 -0.3992  0.3547
16271TIP3    H270229   2.842   1.323   5.685 -0.2435 -0.8806  0.6238
16272TIP3   OH270230   2.088   5.467   5.115 -0.2228 -0.3105 -0.1883
16272TIP3    H170231   2.028   5.422   5.174 -2.4775  3.1805  0.3209
16272TIP3    H270232   2.170   5.473   5.165 -0.6037 -1.7670  0.6364
16273TIP3   OH270233   3.317   0.388   5.696 -0.2590 -0.1710  0.0975
16273TIP3    H170234   3.234   0.399   5.649 -0.5432 -0.7722  0.4580
16273TIP3    H270235   3.311   0.301   5.735  0.8612 -0.5277 -0.5123
16274TIP3   OH270236   0.037   4.091  12.720 -0.1351  0.0675  0.6426
16274TIP3    H170237  -0.051   4.118  12.746 -0.0332 -1.8695  3.1095
16274TIP3    H270238   0.032   3.996  12.714  1.7111 -0.0297  0.4711
16275TIP3   OH270239   6.042   2.526  16.892  0.3523 -0.6773 -0.1534
16275TIP3    H170240   5.950   2.553  16.895 -0.0598 -2.1543  2.3293
16275TIP3    H270241   6.040   2.441  16.849  0.2265 -1.7310  1.8492
16276TIP3   OH270242   0.522   4.141  10.498 -0.3764 -0.6335 -0.0489
16276TIP3    H170243   0.511   4.158  10.591 -1.5462 -2.6910  0.2279
16276TIP3    H270244   0.599   4.084  10.492  1.5715  2.0049 -0.6521
16277TIP3   OH270245   5.882   1.487   0.242 -0.1378  0.0934  0.3421
16277TIP3    H170246   5.944   1.414   0.246  1.6331  1.5372 -0.4097
16277TIP3    H270247   5.797   1.445   0.224  0.7739 -1.8113  0.3813
16278TIP3   OH270248   5.392   0.725  13.179 -0.0464 -0.5489 -0.0298
16278TIP3    H170249   5.451   0.717  13.105 -0.5463 -1.0447 -0.3754
16278TIP3    H270250   5.450   0.733  13.255  0.4718 -2.0379 -0.2539
16279TIP3   OH270251   1.518   2.637  12.375  0.6815  0.0623 -0.2646
16279TIP3    H170252   1.592   2.697  12.377  1.2664 -0.7037  1.5485
16279TIP3    H270253   1.543   2.570  12.311 -0.1154  1.8779 -2.5544
16280TIP3   OH270254   6.730   6.493   3.257  0.9942  0.1133 -0.4230
16280TIP3    H170255   6.723   6.526   3.346 -1.0742  0.3259 -0.6341
16280TIP3    H270256   6.678   6.554   3.205  0.0324 -1.4901 -1.3631
16281TIP3   OH270257   5.191   3.749  11.877 -0.7739  0.4698 -1.1110
16281TIP3    H170258   5.135   3.683  11.920 -0.5814  0.3282 -1.0746
16281TIP3    H270259   5.280   3.715  11.888 -0.7288  0.3976 -1.6856
16282TIP3   OH270260   1.694   4.525  15.819 -0.4004 -0.1160  0.1535
16282TIP3    H170261   1.669   4.499  15.730  1.8494  0.2894 -0.6267
16282TIP3    H270262   1.624   4.491  15.875 -1.9788 -0.1340 -1.7946
16283TIP3   OH270263   0.656   0.855   1.939 -0.6518  0.1475 -0.4839
16283TIP3    H170264   0.713   0.877   1.865  0.5925 -0.2037  0.3470
16283TIP3    H270265   0.667   0.760   1.950  1.3275  0.5970  1.8533
16284TIP3   OH270266   0.901   0.777   2.281  0.0337 -0.2913 -0.2110
16284TIP3    H170267   0.935   0.775   2.371 -1.5906  0.2253  0.4349
16284TIP3    H270268   0.850   0.697   2.273 -0.3015 -0.0527 -0.4772
16285TIP3   OH270269   2.313   0.671   4.139 -0.3301  0.0411  0.2081
16285TIP3    H170270   2.281   0.743   4.084 -0.3432  0.4992  0.8138
16285TIP3    H270271   2.347   0.714   4.218 -0.1585 -0.6038  0.4872
16286TIP3   OH270272   6.639   2.704   5.693  0.2010 -0.1061 -0.1720
16286TIP3    H170273   6.629   2.749   5.777  2.5114 -0.4089  0.3002
16286TIP3    H270274   6.573   2.635   5.696  2.0961 -1.9267  2.6783
16287TIP3   OH270275   3.836   4.663   3.137 -0.3803  0.4461 -0.6330
16287TIP3    H170276   3.908   4.685   3.078 -0.0981  0.6912 -0.2076
16287TIP3    H270277   3.879   4.646   3.221 -0.9908  2.7816  0.2108
16288TIP3   OH270278   6.186   1.335   4.152 -0.1776  0.2575 -0.1330
16288TIP3    H170279   6.166   1.350   4.244 -0.5104  1.3573 -0.3701
16288TIP3    H270280   6.133   1.259   4.128 -0.7249  0.4789  0.3679
16289TIP3   OH270281   2.467   5.622   1.930  0.2125  0.0019  0.4432
16289TIP3    H170282   2.406   5.585   1.867 -0.1154  0.2077  0.6364
16289TIP3    H270283   2.469   5.557   2.001 -0.3959  0.3724  0.8019
16290TIP3   OH270284   4.855   0.584  16.015 -0.0619  0.2758  0.2393
16290TIP3    H170285   4.772   0.593  16.060  0.0119 -1.0402  0.6539
16290TIP3    H270286   4.885   0.674  16.002 -0.2482  0.7040  2.5101
16291TIP3   OH270287   5.100   4.106  14.754 -0.3792  0.0010  0.1802
16291TIP3    H170288   5.023   4.085  14.701  1.0127 -2.6778 -0.8595
16291TIP3    H270289   5.163   4.142  14.692  0.3357 -0.7778  0.4448
16292TIP3   OH270290   2.041   0.942   1.438 -0.3488 -0.4139 -0.2269
16292TIP3    H170291   2.132   0.961   1.457 -0.0064 -1.0212 -1.2268
16292TIP3    H270292   2.033   0.950   1.343 -1.7572  1.3915  0.0249
16293TIP3   OH270293   0.373   2.390  15.956 -0.4355  0.8666 -0.0442
16293TIP3    H170294   0.396   2.363  16.045  1.1320  1.1987 -0.3243
16293TIP3    H270295   0.336   2.478  15.966 -1.0708  0.5532  0.3690
16294TIP3   OH270296   6.653   2.134  12.635 -0.3555  0.2546  0.0273
16294TIP3    H170297   6.596   2.178  12.574  1.1665  0.4465 -1.2970
16294TIP3    H270298   6.611   2.050  12.652 -1.7086  0.9578  0.1693
16295TIP3   OH270299   0.235   1.083   2.104 -0.1929  0.7033  0.9629
16295TIP3    H170300   0.283   1.135   2.168 -1.2163  1.0250  1.4842
16295TIP3    H270301   0.302   1.050   2.044  0.5296  2.2152  0.9117
16296TIP3   OH270302   3.388   3.968  14.160  0.0592  0.2978 -0.0843
16296TIP3    H170303   3.451   3.945  14.229  0.9220 -0.0086 -0.9613
16296TIP3    H270304   3.358   4.056  14.183  1.7332  0.9517 -0.3189
16297TIP3   OH270305   3.733   1.454   2.165  0.0240 -0.4361  0.5325
16297TIP3    H170306   3.814   1.489   2.127 -1.0561 -0.0395 -1.4717
16297TIP3    H270307   3.722   1.369   2.123 -0.5782 -0.5075  0.8366
16298TIP3   OH270308   4.485   4.927  11.807  1.2091  0.3678  0.0374
16298TIP3    H170309   4.510   4.920  11.715  2.8858 -1.1522  0.5768
16298TIP3    H270310   4.485   5.021  11.824 -0.8337  0.7600 -1.9405
16299TIP3   OH270311   4.258   1.559   2.161  0.0582  0.1389 -0.0039
16299TIP3    H170312   4.279   1.559   2.254 -2.6675  1.0318  0.6578
16299TIP3    H270313   4.227   1.471   2.143  0.4034  0.0226 -0.0442
16300TIP3   OH270314   1.382   2.571   3.377 -0.3924 -0.0739 -0.1266
16300TIP3    H170315   1.405   2.660   3.405  0.5030 -0.3559  0.0534
16300TIP3    H270316   1.321   2.540   3.444  1.4071 -0.5833  1.3303
16301TIP3   OH270317   0.032   6.767   4.302 -0.2535 -0.6578  0.5536
16301TIP3    H170318   0.009   6.686   4.346 -2.7148 -1.1348 -1.5237
16301TIP3    H270319  -0.047   6.821   4.306  0.1242  0.1046 -1.3930
16302TIP3   OH270320   0.235   2.469  13.054  0.2861  0.6987 -0.2393
16302TIP3    H170321   0.276   2.462  13.140  1.6244  1.0948 -0.8245
16302TIP3    H270322   0.268   2.552  13.019  0.2225  0.2545 -1.3666
16303TIP3   OH270323   3.673   1.849  10.955 -0.0441  0.3443  1.1277
16303TIP3    H170324   3.662   1.816  11.044  0.1780  1.4022  1.5556
16303TIP3    H270325   3.686   1.943  10.965 -0.6714  0.5804 -0.0729
16304TIP3   OH270326   2.277   3.331   0.752  0.5300 -0.4636 -0.3484
16304TIP3    H170327   2.202   3.383   0.725 -0.0722 -1.0896  0.0749
16304TIP3    H270328   2.247   3.240   0.742 -0.8452 -0.7905  5.2400
16305TIP3   OH270329   1.661   5.521   1.794  0.3004 -0.0806 -0.3616
16305TIP3    H170330   1.692   5.563   1.713 -1.9881 -0.3398 -1.4231
16305TIP3    H270331   1.706   5.568   1.864  2.5883 -0.0556 -1.7843
16306TIP3   OH270332   1.189   4.369  10.598 -0.1152 -0.3051  0.5025
16306TIP3    H170333   1.283   4.371  10.615 -0.2163  2.1576  0.8306
16306TIP3    H270334   1.155   4.451  10.633 -1.9707  0.0881 -2.0465
16307TIP3   OH270335   3.345   0.297  13.916  0.6840  0.3631  0.2479
16307TIP3    H170336   3.352   0.388  13.946 -0.2927  0.7462 -0.6202
16307TIP3    H270337   3.380   0.299  13.827  0.2889 -0.0167  0.0825
16308TIP3   OH270338   0.338   2.672  12.442 -0.2104  0.6101  0.9087
16308TIP3    H170339   0.292   2.651  12.361 -0.5004 -0.1098  1.2581
16308TIP3    H270340   0.281   2.735  12.486  0.1625  1.3432  0.3448
16309TIP3   OH270341   2.265   1.193   4.905  0.0261 -0.1839 -0.1215
16309TIP3    H170342   2.336   1.223   4.847  1.4249  1.6661  2.4518
16309TIP3    H270343   2.207   1.268   4.912 -0.2741 -0.4933  0.6886
16310TIP3   OH270344   2.915   1.383  13.819  0.5790 -0.5381 -0.1119
16310TIP3    H170345   2.935   1.311  13.879 -1.4103 -0.3586  0.8352
16310TIP3    H270346   2.882   1.453  13.876  1.3365  0.6905 -1.1467
16311TIP3   OH270347   4.471   0.360   0.751  0.1521 -0.4771 -0.0523
16311TIP3    H170348   4.544   0.344   0.810 -0.0906  1.6437  0.8624
16311TIP3    H270349   4.505   0.422   0.687 -0.6444  0.0034 -0.0132
16312TIP3   OH270350   0.498   3.423   6.388  0.1486 -0.4523  0.3043
16312TIP3    H170351   0.415   3.435   6.341 -0.3184 -0.2497  1.1743
16312TIP3    H270352   0.541   3.509   6.382 -0.7336  0.1151  1.8053
16313TIP3   OH270353   1.844   6.361   5.307  0.1377  0.5806  0.3852
16313TIP3    H170354   1.778   6.326   5.246  0.4804  0.9359 -0.1926
16313TIP3    H270355   1.855   6.291   5.372 -0.5857  0.3922  0.3169
16314TIP3   OH270356   0.363   2.490  13.296 -0.3880  0.4228  0.5510
16314TIP3    H170357   0.433   2.442  13.341 -0.7672 -0.1870  0.5021
16314TIP3    H270358   0.292   2.494  13.360 -0.6147  0.3010  0.3082
16315TIP3   OH270359   5.656   5.757   2.621  0.0624  0.2767 -0.0523
16315TIP3    H170360   5.692   5.669   2.611 -1.6214 -0.3197 -0.9472
16315TIP3    H270361   5.642   5.788   2.531 -0.8880  0.8181  0.2742
16316TIP3   OH270362   6.543   2.871  16.122 -0.0582  0.3198  0.1469
16316TIP3    H170363   6.590   2.813  16.063  2.5702  0.3437  2.1072
16316TIP3    H270364   6.546   2.826  16.207 -0.2424  2.1157  1.1293
16317TIP3   OH270365   6.075   1.956  17.105 -0.1619  0.1733  0.2766
16317TIP3    H170366   6.062   1.894  17.176  1.9390 -2.4438 -1.5234
16317TIP3    H270367   6.169   1.974  17.107 -0.2796  0.9728 -1.1038
16318TIP3   OH270368   4.608   4.287  16.738 -0.1943  1.0125 -0.1314
16318TIP3    H170369   4.559   4.262  16.816 -0.7455 -0.7503 -1.0232
16318TIP3    H270370   4.624   4.381  16.748 -0.2898  0.8049  2.0731
16319TIP3   OH270371   4.465   2.607  15.280 -0.0623  0.2492 -0.0095
16319TIP3    H170372   4.391   2.667  15.279  0.9882  1.5429 -1.6740
16319TIP3    H270373   4.428   2.523  15.254 -1.3675  0.3541  1.4486
16320TIP3   OH270374   0.393   2.272   2.751  0.1061  0.2595 -0.0485
16320TIP3    H170375   0.352   2.234   2.673  1.1687  0.5211 -0.7587
16320TIP3    H270376   0.405   2.198   2.810  0.7962 -0.2518 -0.8170
16321TIP3   OH270377   0.539   5.392  14.681  0.0598 -0.1098 -0.1461
16321TIP3    H170378   0.494   5.318  14.641  3.2020 -1.5203 -1.1998
16321TIP3    H270379   0.555   5.452  14.609 -0.4479  0.5618  0.2948
16322TIP3   OH270380   6.385   4.054   5.665 -0.2728 -0.3164  0.0129
16322TIP3    H170381   6.403   4.148   5.673 -1.2025 -0.1514  0.2885
16322TIP3    H270382   6.309   4.040   5.722 -1.1980 -0.9200 -1.3380
16323TIP3   OH270383   0.013   2.664  12.543  0.0257  0.0507  0.5570
16323TIP3    H170384   0.070   2.738  12.565  1.3017 -1.5316  2.7756
16323TIP3    H270385   0.001   2.670  12.448 -0.6409  3.6071  0.7724
16324TIP3   OH270386   3.986   3.662  13.706  0.5527  0.1474  0.0575
16324TIP3    H170387   3.953   3.726  13.644 -0.9942 -2.2275 -1.6686
16324TIP3    H270388   4.001   3.583  13.653 -0.4996 -1.8432  2.6085
16325TIP3   OH270389   1.889   1.157   4.115 -0.0226  0.3023 -0.4477
16325TIP3    H170390   1.835   1.135   4.039 -0.3390 -0.1408 -0.0958
16325TIP3    H270391   1.957   1.090   4.116 -0.4731 -0.1543  0.1098
16326TIP3   OH270392   6.410   0.355   0.711 -0.0967  0.3010  0.7793
16326TIP3    H170393   6.490   0.396   0.743  0.4804 -1.4131  1.5886
16326TIP3    H270394   6.432   0.324   0.623  0.7813 -1.8925  1.7276
16327TIP3   OH270395   5.112   5.689   1.148 -0.2998 -0.3207  0.4595
16327TIP3    H170396   5.199   5.675   1.187 -0.1291  2.7426  1.3740
16327TIP3    H270397   5.064   5.738   1.215 -2.0308 -0.1676 -0.8604
16328TIP3   OH270398   4.652   1.337  16.579 -0.0015 -0.1177 -0.3496
16328TIP3    H170399   4.736   1.381  16.569  0.5651 -1.0332  0.3736
16328TIP3    H270400   4.665   1.250  16.540 -1.1307  0.3470 -1.8426
16329TIP3   OH270401   0.402   2.051   1.622  0.8705 -0.1269  0.0237
16329TIP3    H170402   0.459   2.119   1.588 -1.5387  2.3847  0.8278
16329TIP3    H270403   0.400   2.066   1.717 -0.5298 -0.6084  0.0833
16330TIP3   OH270404   1.839   4.571   0.806  0.5219  0.3434 -0.1161
16330TIP3    H170405   1.799   4.634   0.866 -1.4120 -0.7285 -0.2358
16330TIP3    H270406   1.856   4.494   0.860  0.1366 -0.1020 -0.6342
16331TIP3   OH270407   1.304   2.578   0.557 -0.1628  0.1648  0.8921
16331TIP3    H170408   1.340   2.639   0.622  0.4947 -0.0018  0.6879
16331TIP3    H270409   1.253   2.634   0.498 -0.3046  0.3904  1.2244
16332TIP3   OH270410   2.837   4.995   6.759 -0.0990  0.1037  0.8339
16332TIP3    H170411   2.847   5.088   6.779  0.1739  0.6382 -1.5607
16332TIP3    H270412   2.765   4.992   6.696 -0.1897 -1.3187  0.9904
16333TIP3   OH270413   4.917   3.160   5.781  0.2405  0.1083  0.3395
16333TIP3    H170414   4.869   3.190   5.705  0.4042 -0.6429 -0.0714
16333TIP3    H270415   5.000   3.127   5.746  1.2598  1.8252  1.0852
16334TIP3   OH270416   6.689   5.918  13.375  0.9946 -0.7050 -0.0853
16334TIP3    H170417   6.753   5.886  13.312  2.0915  0.7214  0.2950
16334TIP3    H270418   6.632   5.975  13.324  0.3190 -1.5694 -0.3140
16335TIP3   OH270419   3.137   5.873   4.958  0.0660 -0.2101  0.2560
16335TIP3    H170420   3.121   5.967   4.965  0.1107 -0.1746 -0.1217
16335TIP3    H270421   3.068   5.833   5.011  0.2880  0.0491  0.7520
16336TIP3   OH270422   1.369   6.239   2.703  0.2542  0.1162  0.4910
16336TIP3    H170423   1.329   6.261   2.787  0.4844  0.6437  0.4679
16336TIP3    H270424   1.296   6.214   2.647 -0.2712  2.8291 -0.1023
16337TIP3   OH270425   4.724   6.091  15.540  0.0462  0.3262  0.3279
16337TIP3    H170426   4.646   6.074  15.592 -0.1648 -1.1160 -0.4465
16337TIP3    H270427   4.691   6.101  15.450  0.6834  0.3211  0.0907
16338TIP3   OH270428   6.559   1.435  15.465 -0.6041 -0.0403 -0.7909
16338TIP3    H170429   6.651   1.458  15.478 -0.8989  1.2233 -0.7965
16338TIP3    H270430   6.557   1.394  15.379  0.0333 -0.5375 -0.5702
16339TIP3   OH270431   1.398   4.136  15.515 -0.4726 -0.0111  0.2534
16339TIP3    H170432   1.434   4.055  15.479  0.5998  1.0024 -0.9762
16339TIP3    H270433   1.475   4.188  15.539 -1.1277  1.3073 -0.4632
16340TIP3   OH270434   1.120   4.298  13.850  0.1553  0.4926  0.5031
16340TIP3    H170435   1.057   4.283  13.780  0.1623 -0.6521  0.7318
16340TIP3    H270436   1.203   4.314  13.805 -0.1685  1.4253  0.2172
16341TIP3   OH270437   2.847   1.307   4.418  0.1952 -0.1330 -0.0238
16341TIP3    H170438   2.941   1.323   4.422  0.6402 -2.5370 -0.5101
16341TIP3    H270439   2.817   1.355   4.340  0.7317  1.8403  0.9459
16342TIP3   OH270440   6.034   6.048   3.930  0.1995  0.2068  0.1894
16342TIP3    H170441   6.006   6.088   3.848 -0.7009 -0.3425  0.2174
16342TIP3    H270442   5.956   6.001   3.961  0.9791 -0.8019  0.6141
16343TIP3   OH270443   5.526   1.088   1.406  0.7192 -0.1913  0.3069
16343TIP3    H170444   5.503   1.056   1.494 -0.0130  0.0346  0.1987
16343TIP3    H270445   5.452   1.062   1.351  0.6385  0.6826 -0.0080
16344TIP3   OH270446   0.633   2.660   6.464  0.2312 -0.7668  0.0314
16344TIP3    H170447   0.578   2.615   6.528 -1.3322  0.8116 -0.1718
16344TIP3    H270448   0.588   2.743   6.448  1.7471 -0.2160 -1.4827
16345TIP3   OH270449   3.272   0.591   3.497 -0.5386 -0.2320 -0.3746
16345TIP3    H170450   3.348   0.535   3.484 -1.0326 -0.2945 -3.2433
16345TIP3    H270451   3.301   0.656   3.561  1.2821 -1.4272  0.0496
16346TIP3   OH270452   1.563   0.525  15.668 -0.0048 -0.1691 -0.6606
16346TIP3    H170453   1.659   0.524  15.672 -0.0050 -1.3817 -0.8173
16346TIP3    H270454   1.543   0.544  15.576  0.1016 -1.5357 -0.9789
16347TIP3   OH270455   4.067   2.037   2.098  0.0921 -0.7144 -0.2453
16347TIP3    H170456   4.018   2.099   2.045 -1.4742  0.0267  1.9927
16347TIP3    H270457   4.156   2.073   2.101 -0.3179  0.3418 -0.6325
16348TIP3   OH270458   2.806   1.357  14.861  0.2601 -0.8965  0.6635
16348TIP3    H170459   2.870   1.327  14.797  0.8258  1.2481  0.1696
16348TIP3    H270460   2.781   1.444  14.830  1.2197  0.5788  3.8189
16349TIP3   OH270461   4.401   1.046  11.897  0.1574 -0.1490 -0.3436
16349TIP3    H170462   4.372   1.011  11.981 -0.4167 -0.5550 -0.7099
16349TIP3    H270463   4.450   1.125  11.920 -1.3875  0.6402  0.2621
16350TIP3   OH270464   5.600   0.780  15.860  0.1082  0.6210 -0.2172
16350TIP3    H170465   5.615   0.856  15.803 -0.1905  0.7447 -0.1331
16350TIP3    H270466   5.589   0.817  15.947  0.5917  0.4275 -0.0717
16351TIP3   OH270467   0.992   0.883   4.393  0.0500  0.9710  0.9450
16351TIP3    H170468   0.909   0.840   4.411 -0.5689  2.0806  0.7531
16351TIP3    H270469   1.054   0.842   4.453  0.3163 -2.8193 -1.7739
16352TIP3   OH270470   3.717   3.333   6.567  0.0470  0.7039  0.6098
16352TIP3    H170471   3.736   3.314   6.659  1.1993 -0.1360  0.2033
16352TIP3    H270472   3.801   3.321   6.522 -0.3026  1.9882 -0.4139
16353TIP3   OH270473   4.904   1.595  16.324 -0.0395  0.5363  0.3686
16353TIP3    H170474   4.895   1.570  16.417 -0.3473  2.6707  0.9328
16353TIP3    H270475   4.994   1.625  16.316 -0.2722  1.2046  0.2025
16354TIP3   OH270476   5.309   0.354  15.728  0.1551 -0.0598  0.0338
16354TIP3    H170477   5.339   0.445  15.728 -1.4651  0.4809  0.1412
16354TIP3    H270478   5.228   0.355  15.778  1.9975 -2.2413  3.2329
16355TIP3   OH270479   4.312   3.674   5.457 -0.3410 -0.2637  0.0103
16355TIP3    H170480   4.372   3.712   5.394 -1.6088  1.4458 -0.1938
16355TIP3    H270481   4.292   3.745   5.518 -3.0678 -0.4399 -0.6121
16356TIP3   OH270482   2.291   0.378  13.725  0.2367  0.5787  0.3385
16356TIP3    H170483   2.328   0.399  13.639 -0.2787  1.9847  0.4546
16356TIP3    H270484   2.201   0.351  13.706  0.4415 -0.1191  0.3407
16357TIP3   OH270485   4.656   2.756   3.260  0.2971 -0.1753 -0.0241
16357TIP3    H170486   4.564   2.732   3.250  0.1242  0.1515  0.7308
16357TIP3    H270487   4.704   2.678   3.233 -0.2188 -0.6332  0.3687
16358TIP3   OH270488   4.356   5.110  15.798  0.7389  0.1513 -0.0450
16358TIP3    H170489   4.295   5.153  15.858  0.1596 -1.7226  0.7306
16358TIP3    H270490   4.303   5.048  15.750  1.5212  0.4893 -1.3815
16359TIP3   OH270491   2.893   1.578   4.585  0.2854 -0.4423 -0.0788
16359TIP3    H170492   2.960   1.573   4.516  0.0520  0.5915 -0.3779
16359TIP3    H270493   2.858   1.667   4.579 -0.8521 -0.8534  0.3360
16360TIP3   OH270494   1.556   5.162  16.695  0.0917  0.1053 -0.5831
16360TIP3    H170495   1.646   5.129  16.694  1.2115  3.0615 -1.5318
16360TIP3    H270496   1.549   5.211  16.777 -0.8246 -0.5295 -0.2729
16361TIP3   OH270497   0.979   4.555   1.653 -0.1546 -0.6225 -0.0017
16361TIP3    H170498   1.011   4.467   1.667 -2.4630 -1.5092 -0.0433
16361TIP3    H270499   0.920   4.548   1.577  1.3759  1.3931 -1.4339
16362TIP3   OH270500   3.250   2.238  11.756 -0.1993  0.0830  0.5086
16362TIP3    H170501   3.257   2.143  11.752 -0.5277  0.1185 -0.9855
16362TIP3    H270502   3.341   2.269  11.761 -0.0536 -0.2749  0.0853
16363TIP3   OH270503   3.589   3.119   2.851 -0.2625  0.0345  0.1028
16363TIP3    H170504   3.570   3.046   2.911 -1.0649 -1.0444 -1.4492
16363TIP3    H270505   3.503   3.151   2.826  0.0593 -0.1689 -1.2657
16364TIP3   OH270506   5.143   6.181  16.328 -0.4190 -0.0176 -0.0508
16364TIP3    H170507   5.161   6.133  16.409 -0.7083 -0.4885 -0.2684
16364TIP3    H270508   5.223   6.230  16.311 -0.3228  0.0139  0.4749
16365TIP3   OH270509   4.466   6.449  12.942  0.0298  0.1393 -0.7720
16365TIP3    H170510   4.382   6.492  12.961  0.3028  0.0859  0.5536
16365TIP3    H270511   4.507   6.436  13.027  0.7343 -1.1831 -1.2911
16366TIP3   OH270512   3.679   4.714  11.469  0.2044  0.0486 -0.2526
16366TIP3    H170513   3.723   4.790  11.431  1.3656 -0.6063 -0.2748
16366TIP3    H270514   3.751   4.654  11.491 -0.6805 -1.0076 -0.1907
16367TIP3   OH270515   3.348   1.560  16.020  0.0040 -0.5101 -0.0013
16367TIP3    H170516   3.416   1.494  16.034 -0.9194 -1.5276 -0.2322
16367TIP3    H270517   3.294   1.524  15.950 -2.3372 -1.0042  1.9621
16368TIP3   OH270518   1.527   1.525  15.096 -0.4829  0.1702 -0.2651
16368TIP3    H170519   1.434   1.504  15.104 -0.5558  0.7895  0.7828
16368TIP3    H270520   1.563   1.504  15.182  0.3188  0.0340 -0.6345
16369TIP3   OH270521   2.350   0.760   5.420  0.4128 -0.1237 -0.3998
16369TIP3    H170522   2.265   0.796   5.395 -0.2033 -0.4439  1.2000
16369TIP3    H270523   2.343   0.666   5.402  0.6917 -0.0369 -0.9703
16370TIP3   OH270524   4.000   5.912  13.845  0.1969 -0.6072 -0.0108
16370TIP3    H170525   3.993   5.896  13.751  1.3125  1.6838 -0.5187
16370TIP3    H270526   3.912   5.937  13.871  0.1131 -0.2211 -0.6555
16371TIP3   OH270527   0.543   6.194   4.596 -0.6043  0.1378  0.1779
16371TIP3    H170528   0.536   6.263   4.661  0.4410  1.0515 -0.6480
16371TIP3    H270529   0.493   6.226   4.521  1.2119  0.7555 -0.8053
16372TIP3   OH270530   2.703   2.097  14.729 -0.2406 -0.0105  0.5442
16372TIP3    H170531   2.751   2.180  14.731  0.1330 -0.2141  0.2338
16372TIP3    H270532   2.771   2.031  14.716 -0.8124 -0.1413 -1.9172
16373TIP3   OH270533   6.671   4.625  12.394 -0.0330 -0.0299  0.8366
16373TIP3    H170534   6.763   4.603  12.383 -0.5616 -2.8617  1.5637
16373TIP3    H270535   6.668   4.681  12.471  1.3575  2.5483 -0.9143
16374TIP3   OH270536   0.032   6.780   3.364 -0.2184  0.9860  0.4313
16374TIP3    H170537   0.066   6.776   3.454 -0.3455  1.9357  0.5313
16374TIP3    H270538  -0.060   6.804   3.375  0.1324  2.6253 -0.0003
16375TIP3   OH270539   2.921   6.748  16.621  0.3563  0.0027 -0.1458
16375TIP3    H170540   2.912   6.842  16.603  0.8427  0.1110  0.1497
16375TIP3    H270541   3.008   6.726  16.587  0.4303 -0.2406  0.2024
16376TIP3   OH270542   1.327   0.004   4.567  0.1156 -0.5127  0.2638
16376TIP3    H170543   1.307   0.095   4.584 -0.4646 -0.5484 -0.2403
16376TIP3    H270544   1.326  -0.038   4.653 -1.3174 -0.3905  0.3047
16377TIP3   OH270545   4.323   5.925   1.533  0.0460 -0.4579  0.1212
16377TIP3    H170546   4.259   5.935   1.463 -0.5103  0.0789  0.7031
16377TIP3    H270547   4.286   5.973   1.607  0.8707 -0.5856  0.6258
16378TIP3   OH270548   3.005   0.133   4.752  0.4430  0.0237  0.4812
16378TIP3    H170549   2.948   0.209   4.739  0.4308 -0.0054  0.3672
16378TIP3    H270550   3.059   0.130   4.674 -0.3032 -0.7346 -0.0236
16379TIP3   OH270551   4.245   2.094  14.827  0.6593 -0.0029  0.9277
16379TIP3    H170552   4.180   2.153  14.863 -0.2764  0.1809 -0.9873
16379TIP3    H270553   4.303   2.074  14.900 -1.6729 -0.3609  2.7265
16380TIP3   OH270554   4.340   4.912  15.371  0.0032  0.2403  0.0366
16380TIP3    H170555   4.352   4.842  15.435 -1.7814  0.4618  0.6403
16380TIP3    H270556   4.422   4.961  15.373  0.1673 -0.0859  1.7768
16381TIP3   OH270557   2.649   4.118  13.338 -0.1152  0.0870 -0.0020
16381TIP3    H170558   2.672   4.170  13.415  1.5156  1.0496 -1.1269
16381TIP3    H270559   2.553   4.112  13.341 -0.0524 -0.0196  2.1788
16382TIP3   OH270560   6.470   2.168   2.092 -0.3507  0.1847  0.0030
16382TIP3    H170561   6.445   2.092   2.145  0.7914  0.1468  0.5251
16382TIP3    H270562   6.521   2.131   2.020  0.4916  0.4614  0.4381
16383TIP3   OH270563   1.889   4.016  10.845  0.2077  0.8953  0.1146
16383TIP3    H170564   1.882   4.111  10.858 -0.8158  0.9823 -0.9125
16383TIP3    H270565   1.810   3.981  10.888  0.1053  0.6047 -0.3084
16384TIP3   OH270566   4.364   1.192  15.519  0.2077  0.0730 -0.6788
16384TIP3    H170567   4.304   1.200  15.445 -0.2934 -0.8432 -0.3776
16384TIP3    H270568   4.450   1.211  15.482 -0.2974  1.7198 -1.0496
16385TIP3   OH270569   1.061   2.754   4.437  0.2482 -0.1340 -0.4588
16385TIP3    H170570   1.066   2.742   4.343 -0.5835 -0.9315 -0.3977
16385TIP3    H270571   1.152   2.749   4.466  0.4219 -0.7503 -1.1059
16386TIP3   OH270572   2.885   3.021  11.041 -0.3650 -0.1655 -0.6237
16386TIP3    H170573   2.978   3.011  11.065 -0.5171 -0.3718 -0.1110
16386TIP3    H270574   2.873   3.115  11.028  0.2805 -0.2812 -2.1867
16387TIP3   OH270575   4.933   4.742   3.687  0.3786  0.2290  0.4997
16387TIP3    H170576   4.910   4.731   3.779 -0.5837 -1.3309  0.0866
16387TIP3    H270577   5.002   4.678   3.671 -1.2784 -1.3633 -0.4898
16388TIP3   OH270578   4.510   5.772  12.990  0.0266  0.1038  0.1625
16388TIP3    H170579   4.417   5.750  13.000 -0.0486  0.3190 -0.0725
16388TIP3    H270580   4.556   5.689  13.005 -0.2172 -0.0586  0.0181
16389TIP3   OH270581   5.635   1.915   2.464  0.2970  0.0313 -0.2092
16389TIP3    H170582   5.709   1.959   2.507  0.3755  0.8083 -1.1232
16389TIP3    H270583   5.579   1.987   2.434 -0.6939 -0.5457  0.2280
16390TIP3   OH270584   2.932   2.217   6.433 -0.2060  0.2539  0.2710
16390TIP3    H170585   2.840   2.195   6.446 -0.2653 -0.0844 -0.6612
16390TIP3    H270586   2.980   2.141   6.465 -0.2990 -0.0356 -0.2663
16391TIP3   OH270587   5.904   6.326   1.499 -0.1241  0.1828 -0.6892
16391TIP3    H170588   5.808   6.331   1.504 -0.0585  0.4982  0.5591
16391TIP3    H270589   5.928   6.265   1.570  0.6522  0.7898 -0.4289
16392TIP3   OH270590   6.015   5.519   0.850  0.6865 -0.1928  0.1323
16392TIP3    H170591   5.962   5.544   0.926 -0.9018 -0.7006 -0.7685
16392TIP3    H270592   6.012   5.423   0.849  0.6566 -0.1929 -0.5794
16393TIP3   OH270593   2.587   1.921  11.487 -0.6370 -0.4576  0.0729
16393TIP3    H170594   2.502   1.923  11.532 -0.2823  1.0840  0.6935
16393TIP3    H270595   2.572   1.864  11.412 -2.0987 -0.5972  0.4442
16394TIP3   OH270596   4.289   3.300   5.017  0.2595  0.0359 -0.0040
16394TIP3    H170597   4.238   3.376   4.990 -0.3965 -0.8630 -1.3589
16394TIP3    H270598   4.224   3.237   5.048  0.6616 -0.5879 -0.4153
16395TIP3   OH270599   4.333   6.747  15.932 -0.1234 -0.3213 -0.0866
16395TIP3    H170600   4.357   6.799  15.856 -0.5789  0.3389  0.2135
16395TIP3    H270601   4.242   6.772  15.950  0.4097  0.5662  1.4954
16396TIP3   OH270602   1.503   3.843  12.502  0.1582 -0.0120  0.3368
16396TIP3    H170603   1.533   3.829  12.592  3.3195 -1.7575 -0.9061
16396TIP3    H270604   1.490   3.755  12.467  1.5972  0.5244 -1.7018
16397TIP3   OH270605   1.626   0.362   3.687  0.3626 -0.1113  0.2348
16397TIP3    H170606   1.715   0.336   3.709 -0.0599 -1.9163 -0.1119
16397TIP3    H270607   1.592   0.403   3.766  1.6442  1.0204  0.2178
16398TIP3   OH270608   6.728   0.876  10.892  0.3436 -0.1779 -0.5507
16398TIP3    H170609   6.796   0.811  10.875  1.4961  1.0376 -0.6778
16398TIP3    H270610   6.686   0.890  10.807  0.3875 -0.4298 -0.6135
16399TIP3   OH270611   1.778   6.710  15.379  0.8584  0.5019 -0.1065
16399TIP3    H170612   1.734   6.690  15.462 -0.0623  1.8237 -0.2537
16399TIP3    H270613   1.780   6.806  15.376  1.0313  0.4644 -1.5354
16400TIP3   OH270614   3.520   2.325  10.211  0.0615  0.6132  0.2065
16400TIP3    H170615   3.612   2.336  10.234 -0.3239 -0.0866  2.2102
16400TIP3    H270616   3.506   2.231  10.211 -0.5054  0.6830 -0.8109
16401TIP3   OH270617   6.470   6.105  11.503  0.3022  0.5194  0.1260
16401TIP3    H170618   6.432   6.022  11.531  3.4645 -0.9721  0.2582
16401TIP3    H270619   6.501   6.089  11.414  0.2994  1.7932 -0.1210
16402TIP3   OH270620   0.869   4.854   3.784 -0.3700  0.2582 -0.2101
16402TIP3    H170621   0.877   4.808   3.700 -2.6450 -3.0065  1.2675
16402TIP3    H270622   0.801   4.920   3.769 -1.6174 -1.1066 -0.6394
16403TIP3   OH270623   2.452   4.861   0.942  0.0130 -0.1642 -0.3202
16403TIP3    H170624   2.436   4.849   0.849 -1.2906  0.0784 -0.1338
16403TIP3    H270625   2.546   4.850   0.952  0.1905  0.1176 -1.7057
16404TIP3   OH270626   5.317   3.367   2.479 -0.1296 -0.2579 -0.3632
16404TIP3    H170627   5.241   3.424   2.484  2.1492  2.9037  0.0749
16404TIP3    H270628   5.320   3.324   2.565 -0.0080  1.5785  0.5962
16405TIP3   OH270629   1.846   1.711  14.438 -0.4262  0.1599 -0.2828
16405TIP3    H170630   1.841   1.630  14.388  0.7092 -1.1734  1.6895
16405TIP3    H270631   1.826   1.685  14.528 -2.1161  2.4416  0.0310
16406TIP3   OH270632   2.692   5.687   5.795 -0.3945 -0.5569  0.3604
16406TIP3    H170633   2.774   5.684   5.843  0.0549 -1.2597 -0.4277
16406TIP3    H270634   2.688   5.602   5.750 -1.3133 -0.3372  0.0194
16407TIP3   OH270635   2.126   3.373  14.951 -0.2638  0.4674  0.1128
16407TIP3    H170636   2.043   3.339  14.916  1.1234 -0.5115 -2.3851
16407TIP3    H270637   2.111   3.467  14.962 -1.5726  0.3670 -0.7098
16408TIP3   OH270638   3.695   1.802   1.120  0.7101 -0.2842  0.2673
16408TIP3    H170639   3.782   1.820   1.085  0.6051  1.3759  0.8036
16408TIP3    H270640   3.710   1.745   1.195  1.1582 -1.6499 -0.8458
16409TIP3   OH270641   6.335   1.349  16.961 -0.0917  0.2234 -0.1619
16409TIP3    H170642   6.381   1.346  17.045  1.7260 -0.3256 -1.1406
16409TIP3    H270643   6.277   1.273  16.962 -0.3889  0.4585  0.7630
16410TIP3   OH270644   5.622   4.475   0.467 -0.6497  0.4385 -0.3623
16410TIP3    H170645   5.610   4.388   0.429 -2.5791 -0.4840  2.1680
16410TIP3    H270646   5.668   4.458   0.550 -2.1071  1.6869  0.7180
16411TIP3   OH270647   0.947   5.016  16.340  0.0063  0.0329  0.1823
16411TIP3    H170648   0.916   4.936  16.298  0.2755  0.2114 -0.3600
16411TIP3    H270649   0.953   4.994  16.433  1.1161 -0.8959 -0.1094
16412TIP3   OH270650   1.176   3.570  13.723  0.1932 -0.2063  0.2700
16412TIP3    H170651   1.189   3.662  13.698 -0.6369  0.3345  1.7351
16412TIP3    H270652   1.081   3.559  13.722  0.3046 -1.1281 -0.1289
16413TIP3   OH270653   3.783   5.323   6.241 -0.2086 -0.2193 -0.5874
16413TIP3    H170654   3.838   5.245   6.249 -2.3288 -1.7494 -0.3059
16413TIP3    H270655   3.789   5.366   6.326  3.0205  1.3966 -1.5623
16414TIP3   OH270656   3.868   5.785  12.777 -0.0879 -0.0180 -0.5318
16414TIP3    H170657   3.865   5.809  12.870  1.6972  0.4416 -0.5679
16414TIP3    H270658   3.930   5.712  12.773  1.0855  0.9942 -1.5392
16415TIP3   OH270659   5.579   3.677   1.606  0.1821 -0.5859  0.1148
16415TIP3    H170660   5.506   3.734   1.584  1.1121  0.5978  0.0561
16415TIP3    H270661   5.538   3.592   1.626 -1.0999 -0.2430 -0.9893
16416TIP3   OH270662   6.370   4.436  10.554  0.0453  0.4771 -0.2591
16416TIP3    H170663   6.298   4.460  10.496  1.3867  2.0299 -1.3450
16416TIP3    H270664   6.351   4.481  10.636 -0.3084  0.7369 -0.4830
16417TIP3   OH270665   0.691   2.751  12.952  0.2648  0.2358  0.0576
16417TIP3    H170666   0.717   2.719  13.039  2.9188  0.5470 -0.5818
16417TIP3    H270667   0.765   2.730  12.896 -0.2543  2.5740 -1.5472
16418TIP3   OH270668   0.186   3.343   5.367 -0.5960 -0.2690 -0.3541
16418TIP3    H170669   0.149   3.400   5.435  0.7035 -0.2170  0.3192
16418TIP3    H270670   0.119   3.276   5.353 -0.8450 -0.3297  1.0309
16419TIP3   OH270671   6.539   3.577  11.873  0.1777 -0.6711 -0.2367
16419TIP3    H170672   6.453   3.616  11.888  0.2424 -1.2912  1.9976
16419TIP3    H270673   6.581   3.580  11.959  2.2910 -0.6226 -1.2397
16420TIP3   OH270674   1.446   4.870   1.231 -0.0555  0.8483 -0.3166
16420TIP3    H170675   1.366   4.853   1.282  0.2734  0.1658 -0.0187
16420TIP3    H270676   1.416   4.920   1.156 -0.7298  0.8232 -0.0698
16421TIP3   OH270677   0.350   1.441   3.155 -0.3323 -0.4617  0.3570
16421TIP3    H170678   0.265   1.408   3.125 -0.2813 -0.3196  0.0608
16421TIP3    H270679   0.362   1.523   3.107 -0.9730  0.5756  1.9079
16422TIP3   OH270680   3.143   5.225   2.576  0.1378 -0.8785 -0.0602
16422TIP3    H170681   3.163   5.272   2.658  1.2257 -2.3002  0.5058
16422TIP3    H270682   3.220   5.171   2.561 -0.4465 -1.2929 -1.5669
16423TIP3   OH270683   4.075   1.841   6.259 -0.0743 -0.2019  0.4318
16423TIP3    H170684   4.089   1.776   6.328  0.8130 -0.8807 -0.3753
16423TIP3    H270685   3.984   1.870   6.271 -0.7440 -2.1981  0.2825
16424TIP3   OH270686   3.990   1.786  16.070 -0.0367  0.3770 -0.2119
16424TIP3    H170687   3.990   1.692  16.049 -1.0779 -0.2311  2.3260
16424TIP3    H270688   4.080   1.814  16.050  0.5656 -1.3811 -0.1278
16425TIP3   OH270689   0.888   6.236   1.414 -0.3579 -0.0454 -0.0996
16425TIP3    H170690   0.970   6.272   1.380 -0.4982  0.2996 -0.0694
16425TIP3    H270691   0.828   6.311   1.417 -0.8236 -0.3975 -0.5926
16426TIP3   OH270692   2.835   0.626  13.672 -0.0986 -0.8252 -0.1527
16426TIP3    H170693   2.759   0.637  13.729 -0.3653 -1.6434 -0.3468
16426TIP3    H270694   2.897   0.575  13.725  0.8358  0.9199  0.4752
16427TIP3   OH270695   4.606   0.105  16.501  0.4100 -0.0371  0.1853
16427TIP3    H170696   4.628   0.155  16.579 -1.8939 -0.1816  0.9533
16427TIP3    H270697   4.511   0.098  16.502  0.3020  0.1653 -2.7664
16428TIP3   OH270698   0.632   2.280   0.185  0.3044  0.1559 -0.1114
16428TIP3    H170699   0.705   2.296   0.244  1.1000  1.5164 -1.4521
16428TIP3    H270700   0.556   2.273   0.242  0.9158  2.4229  1.0202
16429TIP3   OH270701   6.056   1.811   4.561 -0.0565  0.0816 -0.1995
16429TIP3    H170702   6.031   1.836   4.650 -1.3293  0.9275 -0.7737
16429TIP3    H270703   6.037   1.889   4.508 -2.5181 -1.4780 -1.7606
16430TIP3   OH270704   3.771   2.280  13.754 -0.1455  0.2044  0.3280
16430TIP3    H170705   3.843   2.330  13.716 -1.0793  0.5425 -0.9972
16430TIP3    H270706   3.728   2.238  13.680 -1.1648 -0.1986  1.1297
16431TIP3   OH270707   6.007   2.419  17.164  0.1180  0.4388 -0.0752
16431TIP3    H170708   5.972   2.508  17.167  0.8449  0.7889 -1.8021
16431TIP3    H270709   5.982   2.386  17.078 -0.0269 -0.9853  0.5072
16432TIP3   OH270710   6.051   5.778  15.247  0.1458  0.1286 -0.5147
16432TIP3    H170711   6.092   5.695  15.273  2.3699  1.2149 -0.4954
16432TIP3    H270712   6.099   5.805  15.170  1.4055  2.8741  1.1815
16433TIP3   OH270713   1.146   3.079  10.896 -0.4967 -0.0266  0.0167
16433TIP3    H170714   1.088   3.041  10.963 -0.3861 -1.1980 -0.5323
16433TIP3    H270715   1.142   3.173  10.912 -1.5001 -0.1895  0.8472
16434TIP3   OH270716   3.049   4.221   1.623 -0.0715  0.2375 -0.4510
16434TIP3    H170717   3.060   4.155   1.692  0.3094 -0.8781 -1.5523
16434TIP3    H270718   2.956   4.246   1.628  0.1450  0.7417  0.9779
16435TIP3   OH270719   1.753   0.599  15.002 -0.1215  0.0198  0.5098
16435TIP3    H170720   1.691   0.526  14.995 -1.2256  1.0346 -0.8143
16435TIP3    H270721   1.719   0.652  15.074 -0.9932  0.7357 -0.4128
16436TIP3   OH270722   3.359   3.629  15.385  0.4505 -0.3556  0.1743
16436TIP3    H170723   3.267   3.649  15.364  0.3923 -2.2612 -1.5022
16436TIP3    H270724   3.372   3.668  15.471 -1.6775  0.7429  0.0425
16437TIP3   OH270725   1.820   3.098   5.467 -0.0864 -0.2772  0.3764
16437TIP3    H170726   1.883   3.167   5.490  0.2678 -0.6996  0.6773
16437TIP3    H270727   1.793   3.061   5.551 -0.1324 -0.6282  0.2086
16438TIP3   OH270728   5.221   0.737  12.318  0.3983  0.7257 -0.2979
16438TIP3    H170729   5.140   0.755  12.270 -0.0002  0.3164  0.2128
16438TIP3    H270730   5.203   0.655  12.366  1.0998  0.6458 -0.1612
16439TIP3   OH270731   2.431   2.656  11.183 -0.5088 -1.3773 -0.1090
16439TIP3    H170732   2.343   2.640  11.150 -0.6081 -1.3535  0.1442
16439TIP3    H270733   2.489   2.627  11.112 -0.7574  0.8964 -1.2879
16440TIP3   OH270734   1.009   1.873  15.787  0.1262  0.3327 -0.3937
16440TIP3    H170735   1.068   1.802  15.812 -1.1239 -0.8162 -0.6273
16440TIP3    H270736   0.935   1.829  15.745 -2.1952  1.4972  2.3302
16441TIP3   OH270737   0.456   4.035  12.616  0.0685 -0.1391 -0.0798
16441TIP3    H170738   0.516   4.104  12.645  0.9310  0.8381 -3.9090
16441TIP3    H270739   0.375   4.081  12.595  0.0629 -0.5201 -0.9316
16442TIP3   OH270740   0.851   5.916   0.811 -0.4564  0.1686  0.0671
16442TIP3    H170741   0.843   5.889   0.902  1.4660  1.4599  0.6625
16442TIP3    H270742   0.937   5.882   0.783 -0.6788  0.4664 -1.0118
16443TIP3   OH270743   1.808   0.518   6.575  0.0250  0.3196  0.0381
16443TIP3    H170744   1.877   0.454   6.594 -0.1183 -0.0134 -0.5557
16443TIP3    H270745   1.753   0.517   6.654  0.7024  0.5952  0.5137
16444TIP3   OH270746   4.603   1.305  16.013  0.3252 -0.5161 -0.1105
16444TIP3    H170747   4.675   1.363  16.038  0.8443 -0.4997 -1.5929
16444TIP3    H270748   4.548   1.301  16.091 -0.7390  3.4769 -0.5356
16445TIP3   OH270749   0.540   0.855  16.833 -0.2952 -0.2826 -0.3600
16445TIP3    H170750   0.479   0.804  16.885 -0.7541  0.7107  0.1010
16445TIP3    H270751   0.616   0.798  16.821 -0.7273 -0.9969  0.2809
16446TIP3   OH270752   1.336   3.540   2.511  0.4634  0.4322  0.2317
16446TIP3    H170753   1.282   3.582   2.578  0.0299  1.7579 -0.9271
16446TIP3    H270754   1.286   3.551   2.430  0.5474 -1.9592 -0.1733
16447TIP3   OH270755   1.703   1.076  13.528  0.2561 -0.3765  0.1343
16447TIP3    H170756   1.669   1.164  13.515  3.1461  0.6582 -0.7814
16447TIP3    H270757   1.680   1.054  13.618  1.2127  2.0974  1.0137
16448TIP3   OH270758   5.016   1.653   3.496 -0.1924  0.3983 -0.0600
16448TIP3    H170759   4.986   1.742   3.474 -2.3736 -0.9725 -2.8199
16448TIP3    H270760   4.990   1.642   3.588 -1.2092  2.0842 -0.1154
16449TIP3   OH270761   3.774   1.021   5.540  0.2420  0.4110 -0.6104
16449TIP3    H170762   3.707   1.088   5.556  1.1863  1.2865 -0.2511
16449TIP3    H270763   3.726   0.949   5.500 -0.9039  1.0607 -0.4522
16450TIP3   OH270764   5.320   0.984   2.989 -0.3887 -0.0896 -0.0359
16450TIP3    H170765   5.234   0.964   3.027  0.7150 -1.1440  1.9949
16450TIP3    H270766   5.333   1.077   3.007 -1.2053  0.1277 -0.5561
16451TIP3   OH270767   2.374   2.928   1.119  0.7688  0.1846  0.0065
16451TIP3    H170768   2.427   2.870   1.064  1.0297  1.0730 -0.6853
16451TIP3    H270769   2.353   2.875   1.196 -0.8021 -1.5387 -1.5727
16452TIP3   OH270770   2.654   4.357  12.332  0.0571 -0.3958  0.4361
16452TIP3    H170771   2.744   4.357  12.300  0.3821  0.9267  1.3504
16452TIP3    H270772   2.662   4.355  12.427 -0.8683  1.2492  0.5576
16453TIP3   OH270773   5.171   1.490  14.268  0.2625 -0.2919 -0.1151
16453TIP3    H170774   5.231   1.523  14.334  0.3735  0.7776 -0.7524
16453TIP3    H270775   5.148   1.566  14.215 -2.0187 -0.5816  0.3950
16454TIP3   OH270776   0.624   4.757  14.596 -0.0647  0.2227  0.0407
16454TIP3    H170777   0.707   4.736  14.553 -0.7253  0.6157 -1.4326
16454TIP3    H270778   0.637   4.846  14.630 -0.3157  0.7537 -1.2561
16455TIP3   OH270779   4.622   0.388  16.369 -0.5877  0.3200  0.2646
16455TIP3    H170780   4.691   0.336  16.328 -1.2365  0.3670 -0.8910
16455TIP3    H270781   4.665   0.470  16.393 -0.3596  0.5418 -0.8896
16456TIP3   OH270782   1.923   4.256   3.809  0.0269 -0.2628  0.4260
16456TIP3    H170783   1.963   4.281   3.726  1.4619 -1.7648  0.6306
16456TIP3    H270784   1.928   4.335   3.863  0.6220  0.2326 -0.3427
16457TIP3   OH270785   5.394   4.001  10.711 -0.6174 -0.4460 -0.8397
16457TIP3    H170786   5.309   4.045  10.710 -0.4670 -0.1358 -0.4488
16457TIP3    H270787   5.457   4.072  10.721 -0.2629 -0.6101 -1.8625
16458TIP3   OH270788   2.254   1.535  13.141  0.1296  0.2996  0.2715
16458TIP3    H170789   2.235   1.516  13.233  1.6381 -1.3233  0.2657
16458TIP3    H270790   2.349   1.547  13.138  0.1179  0.1372 -1.1135
16459TIP3   OH270791   0.580   4.847  12.152  0.5429 -0.4362  0.1910
16459TIP3    H170792   0.670   4.870  12.128  0.3747 -0.5229 -0.5303
16459TIP3    H270793   0.560   4.903  12.228  1.0982 -0.2059  0.1694
16460TIP3   OH270794   2.410   1.906   4.828  0.8227  0.1760 -0.1042
16460TIP3    H170795   2.496   1.875   4.855 -0.1182 -2.2261  0.2410
16460TIP3    H270796   2.348   1.852   4.877 -0.9438  3.4054  1.4427
16461TIP3   OH270797   0.403   4.775  10.819  0.3950 -0.8969  0.4473
16461TIP3    H170798   0.375   4.860  10.851  0.1731 -0.4219 -0.9638
16461TIP3    H270799   0.430   4.791  10.728  1.7141 -2.0508  0.6118
16462TIP3   OH270800   2.299   5.334  12.473  0.3487 -0.6669  0.2917
16462TIP3    H170801   2.272   5.426  12.480  0.6281 -0.5829  0.2478
16462TIP3    H270802   2.323   5.323  12.381  0.8584 -0.6362  0.4181
16463TIP3   OH270803   3.138   5.475  15.625 -0.1472 -0.6584 -0.2292
16463TIP3    H170804   3.124   5.394  15.575  3.1208 -2.6070  1.7661
16463TIP3    H270805   3.234   5.482  15.631 -0.4004  2.5659  0.9808
16464TIP3   OH270806   0.276   4.150   4.646  0.1778  0.9537 -0.5082
16464TIP3    H170807   0.359   4.132   4.602 -0.5070 -0.0987 -1.3861
16464TIP3    H270808   0.246   4.065   4.678 -1.2427  1.1019 -1.4031
16465TIP3   OH270809   1.904   6.547  14.901  0.2230  0.0763  0.0798
16465TIP3    H170810   1.928   6.509  14.816  0.9606  0.5471  0.0744
16465TIP3    H270811   1.925   6.640  14.893 -0.2784  0.2406  0.5728
16466TIP3   OH270812   6.106   0.307  15.513  0.5905  0.2156 -0.0185
16466TIP3    H170813   6.134   0.335  15.600  1.1698  0.0362 -0.1411
16466TIP3    H270814   6.053   0.380  15.480  0.6315  0.4178  0.3623
16467TIP3   OH270815   3.990   0.986  16.554 -0.4668 -0.1061  0.3804
16467TIP3    H170816   3.932   1.033  16.614  1.0227 -0.2570  1.9930
16467TIP3    H270817   4.054   1.052  16.525  0.3024 -0.5906  0.9314
16468TIP3   OH270818   4.424   1.358   4.885 -0.3756 -0.0975 -0.0172
16468TIP3    H170819   4.501   1.346   4.941 -0.6517  1.4311  0.7205
16468TIP3    H270820   4.443   1.306   4.807  0.9977 -0.4817  0.5536
16469TIP3   OH270821   0.855   5.260  12.572 -0.5539 -0.0981 -0.1716
16469TIP3    H170822   0.777   5.213  12.543  0.2930 -1.1929 -0.7245
16469TIP3    H270823   0.922   5.238  12.507  0.8185 -0.9713  1.4719
16470TIP3   OH270824   3.826   1.645  15.745 -0.2756 -0.1490  0.1084
16470TIP3    H170825   3.827   1.550  15.742 -2.1496 -0.1939  0.2289
16470TIP3    H270826   3.918   1.671  15.742  0.1958 -1.9191 -0.8829
16471TIP3   OH270827   5.521   1.163  11.518 -0.2591 -0.2074  0.0148
16471TIP3    H170828   5.588   1.145  11.584  0.4886  0.3779 -0.5769
16471TIP3    H270829   5.494   1.253  11.535 -0.1783 -0.1090 -0.3861
16472TIP3   OH270830   3.062   3.673  12.141  0.2329 -0.5310 -0.7549
16472TIP3    H170831   2.975   3.653  12.106 -0.2691  0.4594 -0.0573
16472TIP3    H270832   3.110   3.590  12.134 -1.6173 -1.8272  1.4370
16473TIP3   OH270833   3.346   4.267   2.460 -0.7649 -0.4439 -0.1513
16473TIP3    H170834   3.404   4.337   2.430 -0.8135 -0.4245 -0.2010
16473TIP3    H270835   3.274   4.267   2.397  0.4161 -2.1112 -1.5724
16474TIP3   OH270836   0.321   0.892   5.427  0.4257 -0.0691 -0.0222
16474TIP3    H170837   0.226   0.889   5.436  0.3401 -1.3412 -1.2827
16474TIP3    H270838   0.348   0.963   5.487 -1.0364 -1.4260  2.3316
16475TIP3   OH270839   1.577   6.772  16.215 -0.5517  0.4544 -0.1224
16475TIP3    H170840   1.559   6.784  16.308 -1.4353  1.3659 -0.4026
16475TIP3    H270841   1.526   6.840  16.172 -4.7177 -3.4124 -1.7013
16476TIP3   OH270842   4.172   5.859  13.094 -0.0294 -1.0114  0.1920
16476TIP3    H170843   4.176   5.952  13.070  2.9993 -0.9930  0.6621
16476TIP3    H270844   4.210   5.855  13.182 -0.6757 -2.6294  0.4182
16477TIP3   OH270845   3.114   0.893  12.394  0.6305 -0.7656 -0.3617
16477TIP3    H170846   3.021   0.910  12.406  0.4822 -2.6474  1.4537
16477TIP3    H270847   3.117   0.819  12.333  0.9710 -0.0709 -1.1896
16478TIP3   OH270848   6.209   4.753   3.651 -0.1818 -0.5356 -0.2400
16478TIP3    H170849   6.119   4.722   3.650  0.4071 -2.2982 -0.4197
16478TIP3    H270850   6.203   4.845   3.627 -2.0184 -0.3903  0.6543
16479TIP3   OH270851   2.174   5.503   0.127 -0.4546  0.3822 -0.4233
16479TIP3    H170852   2.250   5.446   0.113 -1.1038 -0.9050  1.1426
16479TIP3    H270853   2.201   5.588   0.092  1.8470  0.0589  0.4601
16480TIP3   OH270854   5.899   2.685   4.831  0.0521 -0.5741  0.2096
16480TIP3    H170855   5.900   2.606   4.886  0.1512 -0.4577  0.3766
16480TIP3    H270856   5.857   2.751   4.886 -0.6430 -0.6857 -0.1812
16481TIP3   OH270857   6.279   3.640  15.248  0.2289 -0.2474  0.3882
16481TIP3    H170858   6.365   3.640  15.290  0.8593  0.7953 -0.8774
16481TIP3    H270859   6.258   3.733  15.236 -0.5902 -0.5097 -0.2732
16482TIP3   OH270860   4.210   5.256   5.671  0.0658 -0.0915  0.5590
16482TIP3    H170861   4.273   5.274   5.740 -0.5970 -2.4549  1.8274
16482TIP3    H270862   4.247   5.184   5.622 -0.6860 -0.1357  0.0453
16483TIP3   OH270863   0.974   4.077   3.391 -0.0323  0.0147  0.4091
16483TIP3    H170864   0.944   4.129   3.466  0.9721  1.6371 -0.2946
16483TIP3    H270865   0.910   4.096   3.322  1.2177  1.6121 -0.3487
16484TIP3   OH270866   4.440   0.097   3.945 -0.2054 -0.1016 -0.1206
16484TIP3    H170867   4.465   0.035   4.013 -0.2411  1.1737  1.0711
16484TIP3    H270868   4.440   0.045   3.864  1.7778 -1.1958  0.5376
16485TIP3   OH270869   6.318   3.852   5.431  0.6587 -0.0027  0.4868
16485TIP3    H170870   6.228   3.875   5.406  1.0348  0.7266 -0.2420
16485TIP3    H270871   6.325   3.880   5.522  0.2323  0.1878  0.4639
16486TIP3   OH270872   2.541   5.367   6.036  0.2718  0.8446  0.2556
16486TIP3    H170873   2.554   5.454   6.074  1.6180  0.4601  0.6884
16486TIP3    H270874   2.624   5.346   5.995 -0.8532  0.8241 -2.1030
16487TIP3   OH270875   3.967   5.515   1.106  0.2604 -0.0724  0.4599
16487TIP3    H170876   3.964   5.596   1.156  2.9317 -0.5611  1.5212
16487TIP3    H270877   4.015   5.454   1.163  0.2085 -1.7143 -1.2158
16488TIP3   OH270878   0.241   4.250  14.551 -0.0915 -0.1362 -0.5337
16488TIP3    H170879   0.247   4.346  14.555 -0.4655 -0.0143 -2.3618
16488TIP3    H270880   0.270   4.228  14.462  3.4326 -2.0111  0.9704
16489TIP3   OH270881   6.309   4.132  12.458 -0.2312 -0.4683 -0.6766
16489TIP3    H170882   6.240   4.112  12.520  1.0565 -1.0200  0.6012
16489TIP3    H270883   6.277   4.209  12.410 -0.7921  0.5790  1.3363
16490TIP3   OH270884   3.168   2.932  16.107  0.1148  0.1656  0.3427
16490TIP3    H170885   3.192   2.873  16.035  0.5259 -0.9610  1.3801
16490TIP3    H270886   3.226   2.907  16.179 -0.2106  1.3590  1.0336
16491TIP3   OH270887   4.508   4.514   2.481  0.1717  0.4605  0.2603
16491TIP3    H170888   4.514   4.418   2.486  1.1680  0.4643 -0.8640
16491TIP3    H270889   4.598   4.544   2.486 -0.1503  1.3665  0.7237
16492TIP3   OH270890   2.756   1.509  16.873  0.0720 -0.0979 -0.0638
16492TIP3    H170891   2.720   1.595  16.850 -1.6978 -0.4778  1.1588
16492TIP3    H270892   2.793   1.521  16.960  0.7012 -0.3360 -0.2980
16493TIP3   OH270893   4.059   2.912  13.367 -0.0760  0.0038 -0.2211
16493TIP3    H170894   4.130   2.976  13.372  1.1215 -1.3943  1.3072
16493TIP3    H270895   4.064   2.865  13.450 -1.6899 -1.2913 -0.8340
16494TIP3   OH270896   2.134   6.125   0.066 -0.4827  0.2198  0.6058
16494TIP3    H170897   2.127   6.181  -0.011 -0.4437 -0.2585  0.2511
16494TIP3    H270898   2.161   6.040   0.031  1.1762  0.4379  1.3162
16495TIP3   OH270899   6.006   5.335  13.521 -0.3476  0.3655  0.4599
16495TIP3    H170900   5.932   5.277  13.500  1.8974 -2.0115 -1.1872
16495TIP3    H270901   6.013   5.330  13.617  0.9375 -3.7025  0.2667
16496TIP3   OH270902   6.342   6.061  11.937 -0.4459  0.4055 -0.3738
16496TIP3    H170903   6.348   6.143  11.986 -2.0479  0.5625 -0.4245
16496TIP3    H270904   6.333   6.088  11.846  1.7441  0.1202 -0.7093
16497TIP3   OH270905   4.411   0.758  17.080  0.4337 -0.2803 -0.7316
16497TIP3    H170906   4.437   0.702  17.153  0.1498  0.4576 -0.0553
16497TIP3    H270907   4.489   0.763  17.025  0.9060 -0.1856 -0.0584
16498TIP3   OH270908   6.575   3.134  15.960 -0.1309  0.1226 -0.0558
16498TIP3    H170909   6.490   3.155  15.921 -0.2364 -0.4628 -0.1420
16498TIP3    H270910   6.568   3.041  15.984  0.7915 -0.1611 -0.8661
16499TIP3   OH270911   1.296   3.881   1.803 -0.1465  0.1756  0.5739
16499TIP3    H170912   1.330   3.839   1.724 -0.7819 -2.0048  1.4248
16499TIP3    H270913   1.373   3.917   1.846  0.4888 -0.6022  0.1026
16500TIP3   OH270914   5.131   1.540   0.165  0.0304  0.2825  0.2768
16500TIP3    H170915   5.094   1.622   0.197  0.2437  0.8642 -0.9609
16500TIP3    H270916   5.135   1.550   0.070 -0.2813 -1.3023  0.0789
16501TIP3   OH270917   5.386   0.349  14.279  0.2683  0.8993  0.3674
16501TIP3    H170918   5.416   0.370  14.367 -0.5916  0.2530  0.8228
16501TIP3    H270919   5.397   0.430  14.230 -2.1478  2.2180  1.8799
16502TIP3   OH270920   2.384   5.755  16.090  0.1939 -0.1060  0.3890
16502TIP3    H170921   2.378   5.849  16.071  2.1411 -0.2156 -0.8343
16502TIP3    H270922   2.466   5.746  16.140  1.3084 -1.4749 -1.6309
16503TIP3   OH270923   0.836   2.129  13.188 -0.2244 -0.3067 -0.7860
16503TIP3    H170924   0.812   2.085  13.269 -0.8078  2.3406  0.5252
16503TIP3    H270925   0.932   2.120  13.183 -0.0579  0.3808  0.7488
16504TIP3   OH270926   4.446   5.398  11.472 -0.3808  0.0623 -0.3177
16504TIP3    H170927   4.539   5.389  11.451  0.5486  0.4187  3.4277
16504TIP3    H270928   4.428   5.491  11.461 -0.1631  0.0943 -0.4070
16505TIP3   OH270929   2.424   6.351   2.951  0.1914 -0.2386  0.3946
16505TIP3    H170930   2.461   6.273   2.909  0.5718 -0.0482  0.3709
16505TIP3    H270931   2.494   6.416   2.945 -0.3838  0.3350 -0.2376
16506TIP3   OH270932   3.961   1.297  12.541  0.1942 -0.2389  0.3515
16506TIP3    H170933   3.889   1.247  12.503  0.7804 -1.4882  0.8674
16506TIP3    H270934   4.029   1.232  12.559  1.3295  0.8744  0.1814
16507TIP3   OH270935   6.144   6.484  16.604 -0.0244  0.0316 -0.5493
16507TIP3    H170936   6.124   6.467  16.696  2.2959 -0.1874 -0.0478
16507TIP3    H270937   6.120   6.402  16.559 -0.4634 -0.1233 -0.0419
16508TIP3   OH270938   4.581   1.573   2.324  0.0296  0.1695  0.4325
16508TIP3    H170939   4.609   1.590   2.234  1.0421  1.3914  0.9774
16508TIP3    H270940   4.662   1.558   2.373 -0.5826 -2.1915  0.8266
16509TIP3   OH270941   4.524   3.972  15.018  0.2795 -0.3461 -0.2697
16509TIP3    H170942   4.453   4.025  14.983 -0.6001 -2.0332 -1.0923
16509TIP3    H270943   4.604   4.019  14.992 -0.4300 -0.3495 -2.5567
16510TIP3   OH270944   2.749   1.434   2.297 -0.4138  0.1866 -0.0222
16510TIP3    H170945   2.790   1.469   2.217  1.8207 -0.6578  0.7020
16510TIP3    H270946   2.769   1.499   2.364 -1.8902  0.6702 -0.0479
16511TIP3   OH270947   5.269   1.188   3.283 -0.1069  0.1043 -0.1274
16511TIP3    H170948   5.236   1.247   3.351  0.5228 -0.0531  0.3111
16511TIP3    H270949   5.347   1.149   3.321 -1.0451 -1.7327 -0.0426
16512TIP3   OH270950   3.720   3.207   5.410  0.1463  0.4548 -0.1840
16512TIP3    H170951   3.640   3.178   5.368  0.2875  0.0110 -0.1502
16512TIP3    H270952   3.778   3.130   5.408 -0.1979  0.0989  1.7209
16513TIP3   OH270953   3.986   6.236  15.993  0.5204 -0.2983  0.1638
16513TIP3    H170954   3.961   6.149  15.961  0.8370 -0.1699 -0.4445
16513TIP3    H270955   4.080   6.228  16.011  0.4655 -0.1982  0.4978
16514TIP3   OH270956   0.269   4.081  15.917  0.7693  0.3571  0.7615
16514TIP3    H170957   0.206   4.020  15.956  0.1746 -1.2259 -2.5084
16514TIP3    H270958   0.351   4.063  15.964 -0.3302 -0.1912  2.5163
16515TIP3   OH270959   2.239   3.107  12.429  0.0766 -0.2518 -0.0149
16515TIP3    H170960   2.151   3.069  12.423 -0.4591  1.0992 -0.8071
16515TIP3    H270961   2.276   3.096  12.342  0.0871  0.6626 -0.1252
16516TIP3   OH270962   0.411   1.708   6.623 -0.4661  0.1348  0.0899
16516TIP3    H170963   0.498   1.747   6.618  0.4129 -1.5513  1.4030
16516TIP3    H270964   0.367   1.756   6.693 -0.0153 -0.0594  0.5117
16517TIP3   OH270965   6.505   1.601   5.749  0.6593  0.0960 -0.2811
16517TIP3    H170966   6.513   1.562   5.661  0.1084 -2.9241  0.9582
16517TIP3    H270967   6.574   1.559   5.800  0.7451  1.5828  0.8496
16518TIP3   OH270968   0.309   2.987   5.677  0.2616  0.2277  0.4680
16518TIP3    H170969   0.264   2.914   5.720  1.6081 -0.9588 -0.1222
16518TIP3    H270970   0.385   3.005   5.732  0.7900  0.1510 -0.2291
16519TIP3   OH270971   3.943   2.101  11.864 -0.2446 -0.1243 -0.4623
16519TIP3    H170972   3.901   2.122  11.948 -1.5874 -1.4158 -0.8072
16519TIP3    H270973   3.988   2.182  11.840 -0.8506  0.6433  0.9078
16520TIP3   OH270974   2.003   4.765   5.638 -0.1365  0.6324  0.0408
16520TIP3    H170975   1.920   4.760   5.685 -0.2162  0.7533 -0.0889
16520TIP3    H270976   2.069   4.764   5.708 -0.2833  1.5935  0.1947
16521TIP3   OH270977   4.135   1.681  14.503  0.1895 -0.1333  0.0453
16521TIP3    H170978   4.144   1.728  14.587  2.7612  0.7632 -0.6868
16521TIP3    H270979   4.146   1.749  14.437  0.0614 -1.1494 -1.0207
16522TIP3   OH270980   4.932   3.658  14.959  0.5876 -0.1775 -0.0316
16522TIP3    H170981   5.023   3.683  14.949  0.5981 -1.2846 -3.0340
16522TIP3    H270982   4.883   3.740  14.947  1.0725  0.0636 -0.3756
16523TIP3   OH270983   5.171   6.446   4.832 -0.0916  0.2302  0.0012
16523TIP3    H170984   5.168   6.534   4.794  0.9602  0.3624  0.2175
16523TIP3    H270985   5.252   6.444   4.883 -1.0095 -0.2536  1.4876
16524TIP3   OH270986   4.008   5.915  16.587  0.2765 -0.0606 -0.1824
16524TIP3    H170987   4.030   5.939  16.677  0.1895  1.9263 -0.6753
16524TIP3    H270988   4.086   5.871  16.554  2.0328  3.1701 -0.5554
16525TIP3   OH270989   6.506   6.348   3.936  0.9035  0.1594  0.4175
16525TIP3    H170990   6.435   6.357   3.873  0.0530 -1.9806  1.0461
16525TIP3    H270991   6.516   6.436   3.973 -0.3840  0.8248 -0.7616
16526TIP3   OH270992   5.942   0.257  12.784  0.1588  0.5254  0.0221
16526TIP3    H170993   5.901   0.330  12.830  0.8080  1.7183 -1.2380
16526TIP3    H270994   5.881   0.184  12.795 -0.1952  1.0730  1.8440
16527TIP3   OH270995   0.005   4.473   1.972  0.5723 -0.0170  0.5567
16527TIP3    H170996  -0.043   4.393   1.990  1.1794 -0.4751  0.1669
16527TIP3    H270997   0.092   4.459   2.009  1.2624 -0.2709 -1.0996
16528TIP3   OH270998   3.333   5.666  12.885 -0.1840  0.3502  0.6286
16528TIP3    H170999   3.370   5.744  12.926  0.8585 -0.3500  1.0367
16528TIP3    H271000   3.348   5.596  12.948  0.1738 -0.4523 -0.3374
16529TIP3   OH271001   1.110   0.099   3.111 -0.2770  0.0621  1.1514
16529TIP3    H171002   1.112   0.074   3.018 -0.4233  1.0349  0.8817
16529TIP3    H271003   1.158   0.029   3.155 -5.1074 -3.4837  1.1048
16530TIP3   OH271004   1.123   4.324   1.689 -0.4882 -0.3188 -0.7906
16530TIP3    H171005   1.204   4.278   1.666  1.5762  2.6327  0.2011
16530TIP3    H271006   1.141   4.362   1.775 -3.2049 -0.1544 -0.2507
16531TIP3   OH271007   3.331   6.201  16.022  0.3605  0.3648  0.1818
16531TIP3    H171008   3.374   6.264  15.964  0.6004 -0.4624 -0.5388
16531TIP3    H271009   3.325   6.247  16.106  0.6724  1.2927 -0.2974
16532TIP3   OH271010   4.850   5.230   0.416  0.2132 -0.0304 -0.3379
16532TIP3    H171011   4.779   5.191   0.468  1.1842 -1.8036 -0.2934
16532TIP3    H271012   4.838   5.324   0.426 -0.8764 -0.3212  1.3981
16533TIP3   OH271013   0.106   6.646  10.156  0.0263  0.4578 -0.1241
16533TIP3    H171014   0.134   6.663  10.065 -0.7529 -0.3190 -0.5149
16533TIP3    H271015   0.167   6.698  10.209 -0.0713  1.6425 -1.1359
16534TIP3   OH271016   4.465   5.307  12.805 -0.4542  0.0918  0.4087
16534TIP3    H171017   4.472   5.312  12.900 -2.9003 -0.4382  0.6346
16534TIP3    H271018   4.434   5.394  12.779 -0.9237 -0.1370  0.2062
16535TIP3   OH271019   3.244   2.606  13.134  0.0307 -0.5052 -0.7643
16535TIP3    H171020   3.183   2.651  13.075  0.1552  1.7261  0.7123
16535TIP3    H271021   3.261   2.671  13.203  2.1666 -1.9987  0.1391
16536TIP3   OH271022   1.417   3.710   5.962  0.3747  0.0147  0.1062
16536TIP3    H171023   1.416   3.639   6.027 -0.3719  0.4828  0.6137
16536TIP3    H271024   1.350   3.686   5.899 -0.1006  0.4140  0.4496
16537TIP3   OH271025   5.919   6.009  11.088 -0.2329 -0.5229 -0.1696
16537TIP3    H171026   5.966   6.084  11.124  0.2131 -1.1103  0.4935
16537TIP3    H271027   5.867   6.045  11.016 -1.4469  0.7548  1.3186
16538TIP3   OH271028   2.186   5.371  11.275  0.1597  0.0242 -0.0107
16538TIP3    H171029   2.150   5.305  11.334  0.2940  0.8418  1.0014
16538TIP3    H271030   2.113   5.397  11.219  0.0961 -0.9387 -0.3861
16539TIP3   OH271031   5.289   0.373  14.654 -0.7162  0.0813 -0.5221
16539TIP3    H171032   5.330   0.408  14.574 -1.5663  0.8362 -0.6334
16539TIP3    H271033   5.320   0.283  14.659  1.2988  0.7527 -0.3942
16540TIP3   OH271034   5.798   1.815   1.372  0.0928  0.6237  0.8754
16540TIP3    H171035   5.752   1.867   1.438 -1.1215 -0.3220  0.7853
16540TIP3    H271036   5.762   1.727   1.381 -0.2632  0.5319 -1.1997
16541TIP3   OH271037   6.760   0.209  11.484  0.0270 -0.2711  0.3797
16541TIP3    H171038   6.742   0.268  11.558  1.8075 -0.1718  0.7674
16541TIP3    H271039   6.676   0.201  11.439 -0.3273  2.3707  0.4615
16542TIP3   OH271040   4.158   4.261   3.229 -1.0115  0.0255  0.5542
16542TIP3    H171041   4.071   4.223   3.217 -0.5360 -1.1668  0.7869
16542TIP3    H271042   4.191   4.220   3.308  0.0025  0.0130  0.1290
16543TIP3   OH271043   5.779   1.156  15.356  0.4640 -0.2779 -0.7195
16543TIP3    H171044   5.805   1.162  15.447  0.2256 -0.1575 -0.6594
16543TIP3    H271045   5.709   1.220  15.347 -1.7669 -2.5477 -0.1954
16544TIP3   OH271046   1.325   3.958   2.939  0.1145 -0.3724 -0.6752
16544TIP3    H171047   1.275   3.968   2.859  0.8250 -0.1136 -1.0924
16544TIP3    H271048   1.325   4.045   2.979 -1.0575 -0.7105  0.1118
16545TIP3   OH271049   0.761   0.512  16.641  0.1788 -0.2452 -0.1642
16545TIP3    H171050   0.852   0.517  16.612  1.0830 -1.4675  2.3335
16545TIP3    H271051   0.764   0.538  16.733 -2.2711  1.3938 -0.4981
16546TIP3   OH271052   5.166   1.816   0.956  0.5317  0.0589  0.6685
16546TIP3    H171053   5.168   1.858   1.042  1.1934  0.7973  0.2940
16546TIP3    H271054   5.101   1.866   0.906 -1.7568 -1.9218  1.5108
16547TIP3   OH271055   0.785   0.541   2.287  0.1953  0.6356 -0.2418
16547TIP3    H171056   0.732   0.495   2.222 -0.3430  0.0613  0.6106
16547TIP3    H271057   0.725   0.563   2.357  1.3123 -1.1014  1.3042
16548TIP3   OH271058   3.300   6.157   2.968 -0.3118  0.5738 -0.2803
16548TIP3    H171059   3.376   6.161   3.025  0.6691  1.0221 -1.5955
16548TIP3    H271060   3.271   6.066   2.973  0.3579  0.3825  0.1776
16549TIP3   OH271061   2.929   1.225  10.991 -0.3004  0.0846 -0.4011
16549TIP3    H171062   2.932   1.143  11.039 -1.2582 -0.5270 -1.3678
16549TIP3    H271063   2.840   1.229  10.954 -0.6495  2.0812  0.5735
16550TIP3   OH271064   4.084   4.077   4.770 -0.6482  0.3482  0.3010
16550TIP3    H171065   4.114   4.058   4.681  0.5940 -0.3220  0.8569
16550TIP3    H271066   4.121   4.007   4.824 -2.8937 -0.2949  1.0707
16551TIP3   OH271067   0.851   4.534  16.426  0.1866 -0.4926 -0.2084
16551TIP3    H171068   0.911   4.577  16.487  1.8224 -1.6812 -0.9473
16551TIP3    H271069   0.764   4.558  16.458  1.0285  2.0663  0.2969
16552TIP3   OH271070   0.446   4.898   5.594  0.0844  0.1318 -0.0581
16552TIP3    H171071   0.449   4.945   5.678  0.7412 -1.3254  0.7522
16552TIP3    H271072   0.359   4.917   5.559 -0.1581  0.8351  0.9017
16553TIP3   OH271073   6.404   2.127  13.666  0.4113  0.0455 -0.2335
16553TIP3    H171074   6.460   2.160  13.596 -1.6469  1.7194 -1.1784
16553TIP3    H271075   6.378   2.040  13.637  0.6175  0.2169 -0.9403
16554TIP3   OH271076   4.106   2.867  12.170  0.2692 -0.1380 -0.2905
16554TIP3    H171077   4.159   2.939  12.205 -1.2105  1.7264 -1.7906
16554TIP3    H271078   4.037   2.854  12.235  1.2684 -1.1300  0.6145
16555TIP3   OH271079   5.134   1.375   0.824  0.0345  0.2471  0.2113
16555TIP3    H171080   5.155   1.301   0.881 -0.5458 -0.6333 -0.6812
16555TIP3    H271081   5.199   1.370   0.753  1.2632  1.8203  1.2041
16556TIP3   OH271082   5.358   3.720  14.999  0.5513  0.0506 -0.4363
16556TIP3    H171083   5.315   3.664  14.935  2.5695 -0.4593 -1.3800
16556TIP3    H271084   5.375   3.802  14.951  0.7204  0.2129 -0.1031
16557TIP3   OH271085   0.670   3.751  10.718  0.0019 -0.0715 -0.0122
16557TIP3    H171086   0.694   3.725  10.807 -2.4424  1.8958  1.2982
16557TIP3    H271087   0.593   3.697  10.698  0.1267 -0.0085 -0.6743
16558TIP3   OH271088   5.300   4.622  11.925 -0.4059  0.2593 -0.4548
16558TIP3    H171089   5.249   4.625  11.844  1.6526 -0.1302 -1.7838
16558TIP3    H271090   5.331   4.711  11.938  0.0756  0.1170 -0.6199
16559TIP3   OH271091   5.738   6.238   4.730 -0.5056 -0.1445 -1.1670
16559TIP3    H171092   5.799   6.303   4.696 -0.0323  0.3295  0.5514
16559TIP3    H271093   5.667   6.289   4.768 -0.6606 -0.6352 -0.7772
16560TIP3   OH271094   2.784   0.220   5.996 -0.1840 -0.1062  0.0531
16560TIP3    H171095   2.691   0.236   6.015 -0.6105  0.0893 -2.0430
16560TIP3    H271096   2.828   0.226   6.081 -1.9497  0.8419  0.9138
16561TIP3   OH271097   3.131   0.592  16.890 -0.0868  0.0017 -0.1632
16561TIP3    H171098   3.106   0.622  16.803 -2.2342 -0.3287  0.3163
16561TIP3    H271099   3.221   0.624  16.902 -0.5546  1.9152 -1.6367
16562TIP3   OH271100   6.084   4.229   1.651 -0.0032 -0.0477 -0.5127
16562TIP3    H171101   6.173   4.214   1.682 -0.2444  0.5005  0.4860
16562TIP3    H271102   6.071   4.324   1.662 -1.3187 -0.3974  1.0317
16563TIP3   OH271103   3.050   0.076   0.266 -0.3560 -0.1139  0.0802
16563TIP3    H171104   3.020   0.095   0.177  0.5077 -1.3057 -0.4866
16563TIP3    H271105   2.999  -0.000   0.292  0.9056 -1.0787 -0.2248
16564TIP3   OH271106   0.073   2.114   4.460 -0.0536  0.0166 -0.0220
16564TIP3    H171107   0.090   2.162   4.379 -0.2280 -0.7361 -0.5065
16564TIP3    H271108  -0.004   2.156   4.497 -1.1853 -0.9319 -1.2790
16565TIP3   OH271109   3.453   1.906  16.018 -0.6361 -0.3161 -0.1995
16565TIP3    H171110   3.500   1.976  16.064 -2.9311  0.4567  1.0166
16565TIP3    H271111   3.394   1.951  15.958 -1.5962 -1.2296  0.0419
16566TIP3   OH271112   1.653   0.938  14.631  0.4381  0.7425 -0.0188
16566TIP3    H171113   1.633   1.023  14.670  0.7827  1.1358 -0.7005
16566TIP3    H271114   1.627   0.874  14.698  0.5967  1.3968  0.6677
16567TIP3   OH271115   5.670   2.217   6.044  0.1145 -0.2445  0.5028
16567TIP3    H171116   5.599   2.273   6.014  0.1272  0.6223  2.1001
16567TIP3    H271117   5.690   2.247   6.132  1.8950 -1.0381  0.3899
16568TIP3   OH271118   1.548   3.689   3.513 -0.7331  0.0827  0.0823
16568TIP3    H171119   1.557   3.603   3.554  1.1433  1.4835  2.7931
16568TIP3    H271120   1.535   3.749   3.586 -0.3984  2.3035 -1.6319
16569TIP3   OH271121   2.947   0.184   2.255 -0.1573 -0.2629 -0.4886
16569TIP3    H171122   2.877   0.182   2.320  1.5939 -1.4433  1.3952
16569TIP3    H271123   2.947   0.095   2.218 -0.4589  0.1013 -1.3749
16570TIP3   OH271124   0.362   6.094   0.334  0.0934  0.9902  0.4922
16570TIP3    H171125   0.352   6.166   0.272  0.6806  0.1261 -0.6274
16570TIP3    H271126   0.453   6.066   0.323 -0.4374 -0.6033  0.1672
16571TIP3   OH271127   4.294   4.279  16.163  0.4805 -0.5319 -0.5937
16571TIP3    H171128   4.357   4.339  16.204  1.7630 -0.4315 -2.6212
16571TIP3    H271129   4.224   4.335  16.130  1.1072 -0.2517 -1.4662
16572TIP3   OH271130   1.282   6.464   6.091 -0.1798  0.0386  0.2156
16572TIP3    H171131   1.322   6.412   6.161  0.0379 -0.3891 -0.2199
16572TIP3    H271132   1.314   6.553   6.105  0.3250 -0.1560  0.3212
16573TIP3   OH271133   0.192   4.480   1.250  0.1718 -0.0047  0.7331
16573TIP3    H171134   0.111   4.511   1.208  0.9933  2.3699  0.8183
16573TIP3    H271135   0.219   4.405   1.197 -0.8920  0.5633 -0.6549
16574TIP3   OH271136   5.393   2.345  14.974 -0.1915  0.0673  0.1336
16574TIP3    H171137   5.484   2.321  14.991 -0.0064  0.1945 -0.6868
16574TIP3    H271138   5.368   2.294  14.897 -0.7158  0.2820  0.1548
16575TIP3   OH271139   0.062   4.682  15.651 -0.2891 -0.0272  0.0145
16575TIP3    H171140  -0.004   4.613  15.661 -1.9727  1.4173 -0.8467
16575TIP3    H271141   0.101   4.665  15.566 -0.0900 -0.4323  0.1855
16576TIP3   OH271142   5.458   5.960   6.042  0.0017  0.0080 -0.1680
16576TIP3    H171143   5.491   6.050   6.044  0.5117 -0.1853  0.3627
16576TIP3    H271144   5.511   5.914   6.107 -0.3049 -0.6600 -0.3867
16577TIP3   OH271145   5.517   1.815   3.400  0.9218  0.1895  0.8211
16577TIP3    H171146   5.439   1.770   3.433  0.8484 -0.9021 -0.7683
16577TIP3    H271147   5.582   1.806   3.470  0.9875 -2.6552  0.4491
16578TIP3   OH271148   3.280   3.787   2.468 -0.1950  0.2339 -0.0124
16578TIP3    H171149   3.347   3.855   2.468 -1.5770  1.6602 -1.2246
16578TIP3    H271150   3.199   3.833   2.488 -1.0628 -1.1764 -0.1647
16579TIP3   OH271151   3.572   3.511   3.717  0.1815  0.3879 -0.0423
16579TIP3    H171152   3.502   3.448   3.704 -0.6760  1.4656 -0.7795
16579TIP3    H271153   3.642   3.462   3.761 -0.9945 -0.7210  0.6085
16580TIP3   OH271154   1.210   4.957  14.383 -0.2201 -0.2300  0.4062
16580TIP3    H171155   1.152   4.901  14.434  0.8355 -1.0230  0.7643
16580TIP3    H271156   1.246   4.899  14.316 -0.1821  0.3557 -0.0794
16581TIP3   OH271157   1.637   6.678  15.662 -0.3045 -0.0714  0.1057
16581TIP3    H171158   1.578   6.707  15.732 -1.6639 -0.2021 -0.9715
16581TIP3    H271159   1.722   6.715  15.685 -0.9278  0.5809  1.3844
16582TIP3   OH271160   1.716   5.233   2.056  0.5350 -0.4833  0.5159
16582TIP3    H171161   1.698   5.303   2.119 -2.3428  0.0138 -0.7642
16582TIP3    H271162   1.706   5.152   2.106  2.7005 -0.0206  1.7255
16583TIP3   OH271163   3.172   5.817  12.692  0.3714  0.2923  0.4815
16583TIP3    H171164   3.242   5.761  12.726  2.4960  2.6825  0.1326
16583TIP3    H271165   3.093   5.784  12.735  1.4141 -3.4650 -0.2958
16584TIP3   OH271166   6.447   3.317   0.143 -0.3204 -0.1862 -0.1527
16584TIP3    H171167   6.485   3.352   0.223 -2.0799  2.3723 -0.3758
16584TIP3    H271168   6.520   3.273   0.099  1.5258  1.5517  1.0924
16585TIP3   OH271169   2.202   1.157  14.474 -0.3358 -0.0023 -0.2120
16585TIP3    H171170   2.184   1.098  14.547 -0.0623 -0.4834 -0.5261
16585TIP3    H271171   2.222   1.241  14.515 -0.4644 -0.1976  0.2526
16586TIP3   OH271172   2.490   1.382  16.264  0.3217 -0.1113  0.0119
16586TIP3    H171173   2.508   1.355  16.354 -2.4893  0.4498  0.7813
16586TIP3    H271174   2.470   1.300  16.219 -1.9991 -0.0471  0.8460
16587TIP3   OH271175   5.479   0.587  11.728 -0.0395 -1.0351  0.1748
16587TIP3    H171176   5.571   0.561  11.727 -0.1436 -1.3971 -1.2056
16587TIP3    H271177   5.436   0.522  11.783  0.5332 -0.8687  0.8193
16588TIP3   OH271178   2.909   1.291  16.764 -0.0555 -0.0691 -0.5891
16588TIP3    H171179   2.888   1.366  16.820 -1.1247 -0.6506 -0.1927
16588TIP3    H271180   2.843   1.225  16.787 -0.3080 -0.4353 -2.3157
16589TIP3   OH271181   4.640   5.126  14.999  0.7950  0.1412  0.4812
16589TIP3    H171182   4.689   5.176  14.933 -1.9910  1.1543 -0.9316
16589TIP3    H271183   4.637   5.184  15.075  0.8300  0.5612  0.1683
16590TIP3   OH271184   6.612   5.627  16.514 -0.0951  0.3253 -0.6110
16590TIP3    H171185   6.565   5.691  16.568  0.6202 -0.0142  0.4294
16590TIP3    H271186   6.651   5.679  16.444  0.8561  1.1241  0.4785
16591TIP3   OH271187   3.618   1.635   4.750 -0.0901 -0.1105 -0.4688
16591TIP3    H171188   3.618   1.679   4.834 -0.1076 -1.3261  0.1875
16591TIP3    H271189   3.574   1.696   4.690 -2.1386 -0.1736  0.9131
16592TIP3   OH271190   6.103   0.070  16.006  0.1411 -0.0982  0.0574
16592TIP3    H171191   6.046   0.109  15.940  0.3641 -1.4815 -0.9802
16592TIP3    H271192   6.057   0.083  16.089 -1.2997 -0.4583 -0.6674
16593TIP3   OH271193   3.020   2.501   5.084 -0.2172  0.3073 -0.5534
16593TIP3    H171194   3.029   2.409   5.111  0.2912  0.1516 -1.2362
16593TIP3    H271195   2.966   2.498   5.005 -1.8886  0.7828  0.5481
16594TIP3   OH271196   3.658   0.865  15.608  0.3894  0.0549 -0.2784
16594TIP3    H171197   3.622   0.863  15.697  2.1280 -1.3564  0.4175
16594TIP3    H271198   3.583   0.846  15.552 -0.5648  0.1743  0.9306
16595TIP3   OH271199   5.912   6.272  16.523 -0.0969 -0.5743 -0.0083
16595TIP3    H171200   5.900   6.245  16.615  0.1177 -1.6093 -0.2790
16595TIP3    H271201   5.872   6.201  16.472  0.4215 -0.3488 -0.7287
16596TIP3   OH271202   3.298   5.707   2.343 -0.5507 -0.4119  0.2249
16596TIP3    H171203   3.295   5.736   2.252 -1.1188 -0.5798  0.1842
16596TIP3    H271204   3.227   5.643   2.349 -0.6350 -0.2620  0.8340
16597TIP3   OH271205   5.218   1.936   1.558  0.3085 -0.6222 -0.7493
16597TIP3    H171206   5.132   1.909   1.526  0.4572  0.6757 -2.3179
16597TIP3    H271207   5.274   1.936   1.480  2.0207 -2.5231  0.4476
16598TIP3   OH271208   1.566   1.301   5.161  0.2785 -0.4279  0.2602
16598TIP3    H171209   1.532   1.221   5.201  0.8480 -1.2090 -0.8231
16598TIP3    H271210   1.503   1.321   5.091 -0.1840  0.4084  0.8950
16599TIP3   OH271211   4.485   6.292   6.107  0.2065 -0.1329  1.1829
16599TIP3    H171212   4.392   6.311   6.099  0.7249  2.8681  1.5230
16599TIP3    H271213   4.521   6.366   6.156  2.9772 -0.5408 -0.0848
16600TIP3   OH271214   2.362   5.208   2.557  0.5121  0.4448  0.2925
16600TIP3    H171215   2.438   5.152   2.573 -1.1687 -1.7689  0.9388
16600TIP3    H271216   2.357   5.263   2.635 -0.9210 -2.3107  2.2310
16601TIP3   OH271217   5.079   4.544   0.507 -0.3527  0.1817 -0.0711
16601TIP3    H171218   5.056   4.461   0.549 -1.4787 -1.4245 -3.7506
16601TIP3    H271219   5.174   4.550   0.517 -0.4070 -0.9284  1.2838
16602TIP3   OH271220   5.879   4.994   0.698  0.3686  0.1652 -0.0921
16602TIP3    H171221   5.948   5.058   0.685 -0.8105  1.0339 -2.2649
16602TIP3    H271222   5.926   4.911   0.712  1.8599  1.1489  0.8504
16603TIP3   OH271223   2.811   3.961   2.947  0.5777 -0.4731 -0.0254
16603TIP3    H171224   2.737   3.907   2.918 -0.2462  0.0017  1.1486
16603TIP3    H271225   2.802   4.043   2.898 -0.4856  0.1137  1.1227
16604TIP3   OH271226   0.695   4.561   1.870  0.6017 -0.1796 -0.1779
16604TIP3    H171227   0.605   4.586   1.851  0.1212 -1.6534  0.1448
16604TIP3    H271228   0.713   4.488   1.811  1.9500  0.7682 -0.9917
16605TIP3   OH271229   2.673   0.175  13.012 -0.3871 -0.2282 -0.3332
16605TIP3    H171230   2.740   0.181  12.945  1.3950 -2.6721  1.1583
16605TIP3    H271231   2.644   0.084  13.010 -3.7358  0.7606 -0.9481
16606TIP3   OH271232   4.397   3.928   5.945 -0.0909  0.3768 -0.2129
16606TIP3    H171233   4.339   4.003   5.960 -0.3842  0.6221 -2.3015
16606TIP3    H271234   4.465   3.937   6.011 -0.6108  1.9986  0.1395
16607TIP3   OH271235   0.930   6.304  16.064 -0.2210  0.0237  0.4737
16607TIP3    H171236   0.856   6.327  16.007 -0.3005 -1.2848  0.0244
16607TIP3    H271237   0.995   6.373  16.049  0.0292 -0.6547 -1.7131
16608TIP3   OH271238   1.676   4.184  13.785 -0.4328 -0.4346  0.2483
16608TIP3    H171239   1.746   4.176  13.851 -0.1798  1.0034  0.1694
16608TIP3    H271240   1.723   4.193  13.702 -0.7244  0.0624  0.1393
16609TIP3   OH271241   0.106   5.830  13.189  0.2160 -0.9358  0.0766
16609TIP3    H171242   0.186   5.873  13.219 -1.2072  0.8959  1.3517
16609TIP3    H271243   0.090   5.866  13.102 -1.1931  1.5048  1.3050
16610TIP3   OH271244   1.127   6.603   5.459 -0.2581 -0.3182 -0.1202
16610TIP3    H171245   1.131   6.633   5.368  1.2036  2.7000  0.8516
16610TIP3    H271246   1.072   6.669   5.503  0.9044 -0.4898  1.6213
16611TIP3   OH271247   2.553   1.730  12.282  0.7226  0.3505 -0.3739
16611TIP3    H171248   2.566   1.673  12.206 -2.8001 -0.8325 -0.1975
16611TIP3    H271249   2.464   1.764  12.270  0.5036  0.9403  2.7163
16612TIP3   OH271250   4.226   4.146   5.998  0.0304  0.0287  0.0102
16612TIP3    H171251   4.276   4.221   5.968  0.7459 -1.0154 -1.4484
16612TIP3    H271252   4.164   4.182   6.062  0.5495  1.7940 -0.4682
16613TIP3   OH271253   0.645   3.779  16.462 -0.6201 -0.0942  0.2671
16613TIP3    H171254   0.736   3.761  16.440 -0.6590  0.1949 -0.1350
16613TIP3    H271255   0.649   3.850  16.526 -0.5191 -0.7503  0.9923
16614TIP3   OH271256   2.470   5.091  11.637 -0.3758 -0.2162 -0.2907
16614TIP3    H171257   2.525   5.119  11.710 -1.3309  1.1543 -0.0746
16614TIP3    H271258   2.521   5.024  11.593  1.4715  1.0435 -0.1040
16615TIP3   OH271259   4.766   6.159   2.135  0.0776  0.1480  0.0618
16615TIP3    H171260   4.684   6.112   2.119 -0.4371  0.6474  1.1774
16615TIP3    H271261   4.740   6.252   2.137  0.7358  0.3360  0.0473
16616TIP3   OH271262   2.371   2.488   3.993  0.3279  0.7162 -0.0622
16616TIP3    H171263   2.414   2.518   3.913 -0.4206  1.1148 -0.3169
16616TIP3    H271264   2.438   2.496   4.060  0.8450  0.7430 -0.5732
16617TIP3   OH271265   4.272   4.707   5.421 -0.1366  0.1644 -0.4069
16617TIP3    H171266   4.347   4.674   5.371 -0.0420  0.9187 -0.7717
16617TIP3    H271267   4.203   4.642   5.408  0.4989 -0.5941  0.0396
16618TIP3   OH271268   0.616   6.392  16.665 -0.1465 -0.0216 -0.2122
16618TIP3    H171269   0.693   6.435  16.703 -0.1641  0.2365 -0.4726
16618TIP3    H271270   0.640   6.374  16.574  0.1292 -1.2078  0.0838
16619TIP3   OH271271   5.750   0.033  16.527 -0.0014  0.2832 -0.0672
16619TIP3    H171272   5.766  -0.054  16.563  1.0139  1.1590  1.6948
16619TIP3    H271273   5.828   0.084  16.551  0.2117  1.2271 -2.5723
16620TIP3   OH271274   6.035   3.848  13.391 -0.0672  0.1879  0.1250
16620TIP3    H171275   5.941   3.848  13.412 -0.8085  0.0439 -2.9387
16620TIP3    H271276   6.053   3.758  13.362  0.8270  0.4071 -0.0120
16621TIP3   OH271277   3.001   6.399   0.943 -0.2060  0.0484  0.0683
16621TIP3    H171278   2.986   6.392   0.849 -0.3424 -0.9613  0.1628
16621TIP3    H271279   2.954   6.325   0.981 -0.3838  0.6083  0.9590
16622TIP3   OH271280   3.628   5.712  14.351 -0.2952  0.5578 -0.1005
16622TIP3    H171281   3.557   5.766  14.386  0.3003  0.3594  1.4402
16622TIP3    H271282   3.708   5.760  14.372  0.0338  0.9571 -2.1499
16623TIP3   OH271283   0.860   5.304  13.435  0.2812 -0.7429  0.3321
16623TIP3    H171284   0.865   5.396  13.461 -3.4450 -0.3711  0.0483
16623TIP3    H271285   0.888   5.303  13.344 -0.4136  0.2434  0.0968
16624TIP3   OH271286   0.111   1.427   0.528 -0.0684  0.5715 -0.2025
16624TIP3    H171287   0.187   1.416   0.586  0.8520 -1.2927 -1.7127
16624TIP3    H271288   0.036   1.422   0.586  0.9283  1.4721  1.1962
16625TIP3   OH271289   6.449   4.905  11.991  0.2514 -0.0156  0.0971
16625TIP3    H171290   6.543   4.886  11.996  0.1829 -0.3215  0.2044
16625TIP3    H271291   6.414   4.840  11.931  0.3665  1.0800 -1.1946
16626TIP3   OH271292   4.679   1.982   0.637  0.7039 -0.1409  0.2029
16626TIP3    H171293   4.639   2.005   0.721 -1.9653 -0.1974 -0.9778
16626TIP3    H271294   4.651   2.051   0.577  0.3611 -1.4738 -1.2243
16627TIP3   OH271295   5.447   0.368  17.127  0.7080 -0.6149  0.0182
16627TIP3    H171296   5.400   0.320  17.059  0.0363  1.8836 -1.3534
16627TIP3    H271297   5.405   0.341  17.209 -1.7117 -0.0938 -0.9989
16628TIP3   OH271298   3.023   4.548   6.258 -0.1085 -0.1149  0.1799
16628TIP3    H171299   3.071   4.586   6.331  0.3497  0.5354 -0.4539
16628TIP3    H271300   3.088   4.494   6.213 -0.9924 -2.4640  1.6383
16629TIP3   OH271301   5.825   1.954  13.266 -0.1395  0.0179  0.3536
16629TIP3    H171302   5.777   1.968  13.348 -1.6560  1.0111 -0.6880
16629TIP3    H271303   5.781   1.879  13.226 -1.7821  1.8095 -1.2823
16630TIP3   OH271304   0.706   3.305  15.475 -0.5933 -0.7526 -0.1707
16630TIP3    H171305   0.797   3.327  15.455 -0.9361 -0.5718 -1.5428
16630TIP3    H271306   0.678   3.248  15.403 -1.1004 -2.0821  1.0410
16631TIP3   OH271307   6.342   4.039   2.666  0.5931 -0.2466 -0.3767
16631TIP3    H171308   6.329   4.113   2.606  0.3670 -0.0688 -0.1068
16631TIP3    H271309   6.435   4.018   2.657  0.4525 -0.5612 -1.1857
16632TIP3   OH271310   1.353   0.191   3.725 -0.5873 -0.0786  0.3533
16632TIP3    H171311   1.436   0.207   3.680 -0.8882 -0.5139 -0.3778
16632TIP3    H271312   1.378   0.141   3.803 -0.2654 -1.1906 -0.4419
16633TIP3   OH271313   1.722   1.560   2.318  0.2185  0.1613  0.3977
16633TIP3    H171314   1.800   1.504   2.310 -0.4908 -0.6677 -1.1159
16633TIP3    H271315   1.702   1.585   2.227  0.1190  2.3311  0.9983
16634TIP3   OH271316   1.879   6.146  11.844  0.8084 -0.2513  0.0073
16634TIP3    H171317   1.925   6.172  11.765  0.7199  1.6582  0.5658
16634TIP3    H271318   1.805   6.206  11.850  1.3035  0.1867  1.9927
16635TIP3   OH271319   5.106   6.312   4.102  0.1382  0.6156  0.4446
16635TIP3    H171320   5.039   6.315   4.033 -0.5511 -1.3260  0.9888
16635TIP3    H271321   5.095   6.226   4.142  3.1925  0.1346  0.3548
16636TIP3   OH271322   6.320   3.805   0.139  0.0738  0.0931 -0.1145
16636TIP3    H171323   6.264   3.855   0.198  0.1130  0.4132 -0.3508
16636TIP3    H271324   6.301   3.839   0.052  1.1229  0.6692 -0.1208
16637TIP3   OH271325   2.464   4.360   1.120 -0.2836 -0.4993 -0.6137
16637TIP3    H171326   2.430   4.292   1.062  2.0464 -2.4059  0.1601
16637TIP3    H271327   2.559   4.358   1.106  0.2557 -0.3697  2.5291
16638TIP3   OH271328   5.492   1.756  16.467  0.1759 -0.0826 -0.2822
16638TIP3    H171329   5.497   1.660  16.468  1.3062 -0.0981 -3.3915
16638TIP3    H271330   5.580   1.784  16.439 -0.9738  1.7258 -2.2087
16639TIP3   OH271331   5.427   3.885  14.080  0.3088  0.2329  0.4339
16639TIP3    H171332   5.457   3.943  14.009  0.1476  1.6360  1.4891
16639TIP3    H271333   5.359   3.936  14.125 -0.6185 -1.2192  0.7206
16640TIP3   OH271334   0.920   6.783   5.016 -0.0644 -0.3015  0.3858
16640TIP3    H171335   0.880   6.831   4.943 -0.9957 -0.3192  0.8824
16640TIP3    H271336   0.849   6.730   5.052 -0.2574  1.5656  2.8705
16641TIP3   OH271337   2.317   4.111   2.036 -0.0376  0.7782  0.3644
16641TIP3    H171338   2.406   4.120   2.069 -0.6207  0.6302  2.0000
16641TIP3    H271339   2.325   4.048   1.963  0.7938 -1.2031  2.1158
16642TIP3   OH271340   6.537   2.685  16.333  0.7152  0.1310 -0.0305
16642TIP3    H171341   6.473   2.641  16.278  0.9903  1.5975 -1.5642
16642TIP3    H271342   6.485   2.730  16.400  0.3018 -0.6838  0.1936
16643TIP3   OH271343   4.147   4.936  11.554 -0.2007 -0.5420  0.0871
16643TIP3    H171344   4.193   5.018  11.535 -0.9610  0.2250  1.4693
16643TIP3    H271345   4.101   4.915  11.472  1.0351 -0.2888 -0.6845
16644TIP3   OH271346   0.086   2.878  14.063  0.3264  0.0513 -0.1275
16644TIP3    H171347   0.140   2.853  14.138 -2.0442  0.7094  1.8682
16644TIP3    H271348   0.083   2.974  14.067  0.1674  0.0875 -1.0472
16645TIP3   OH271349   1.380   2.244   3.372 -0.3951  0.1059 -0.2205
16645TIP3    H171350   1.411   2.334   3.378  0.0065 -0.2099  4.5404
16645TIP3    H271351   1.287   2.249   3.397 -0.6584 -0.7046 -1.0003
16646TIP3   OH271352   5.204   5.954  15.951  0.6162 -0.0025  0.1080
16646TIP3    H171353   5.144   6.021  15.985 -0.0720 -0.4846 -0.1273
16646TIP3    H271354   5.288   5.998  15.944  0.4899  0.4553  1.2774
16647TIP3   OH271355   2.805   4.534   2.822 -0.4366 -0.1663  0.4498
16647TIP3    H171356   2.839   4.511   2.908  0.2485  1.6014  0.6757
16647TIP3    H271357   2.712   4.552   2.838 -0.1485  0.8928  0.9665
16648TIP3   OH271358   2.388   5.651   5.932 -0.0766 -0.7395 -0.2347
16648TIP3    H171359   2.452   5.596   5.977  0.1706 -1.1564 -1.0949
16648TIP3    H271360   2.433   5.735   5.920 -0.0096 -0.7479 -0.0438
16649TIP3   OH271361   5.364   0.464  16.667  0.0136 -0.3230  0.0455
16649TIP3    H171362   5.305   0.458  16.592 -2.0441  1.4023  1.4792
16649TIP3    H271363   5.435   0.521  16.636 -0.2483 -0.5352 -0.9574
16650TIP3   OH271364   6.328   1.507  15.834  0.7136  0.2439  0.3644
16650TIP3    H171365   6.345   1.600  15.849  1.8111  0.0394  0.3911
16650TIP3    H271366   6.403   1.476  15.784 -0.6085 -0.1992 -1.3595
16651TIP3   OH271367   5.852   1.256   4.147 -0.0776  0.0396 -0.2531
16651TIP3    H171368   5.889   1.183   4.197  1.5680  0.5233 -0.7662
16651TIP3    H271369   5.781   1.216   4.096  0.8690 -1.2165 -0.6074
16652TIP3   OH271370   6.371   0.648   2.208 -0.0112  0.1227  0.4356
16652TIP3    H171371   6.466   0.655   2.221  0.2769 -1.8010 -0.4241
16652TIP3    H271372   6.335   0.643   2.296  0.7490  0.1409  0.7500
16653TIP3   OH271373   3.859   0.724  16.538 -0.4486  0.2186  0.1466
16653TIP3    H171374   3.799   0.752  16.607 -2.5273 -0.4519 -1.3305
16653TIP3    H271375   3.897   0.806  16.505 -0.6156  0.6613  1.0227
16654TIP3   OH271376   2.082   5.673  16.999 -0.1173 -0.3997 -0.7457
16654TIP3    H171377   2.122   5.719  16.926 -1.4241 -0.0357 -1.2570
16654TIP3    H271378   1.989   5.667  16.975  0.0168 -3.2875 -0.6750
16655TIP3   OH271379   4.265   3.568  16.197 -0.1724  0.1637  0.1538
16655TIP3    H171380   4.183   3.594  16.240  0.8906  0.4972  2.0522
16655TIP3    H271381   4.331   3.628  16.234  1.1139 -0.8131 -0.5241
16656TIP3   OH271382   5.521   3.027   4.397 -0.0800 -0.2089  0.1970
16656TIP3    H171383   5.462   3.047   4.325  0.8389  0.5296 -0.3582
16656TIP3    H271384   5.485   3.074   4.472  0.0719  0.6368 -0.2555
16657TIP3   OH271385   6.459   4.722   2.414  0.4240 -0.2841 -0.3345
16657TIP3    H171386   6.465   4.640   2.365  1.3341  0.3331 -1.2739
16657TIP3    H271387   6.547   4.735   2.449  0.4512  0.6250 -0.7356
16658TIP3   OH271388   2.743   5.665  11.522 -0.3029  0.3888 -0.5709
16658TIP3    H171389   2.679   5.717  11.571  1.2863  1.8532 -0.0018
16658TIP3    H271390   2.796   5.622  11.589  0.9240  1.2174 -0.9818
16659TIP3   OH271391   0.741   3.369  14.253 -0.0854 -0.6853  0.0246
16659TIP3    H171392   0.713   3.451  14.293  0.9278 -0.5987  0.5856
16659TIP3    H271393   0.799   3.396  14.181 -1.8193 -0.8414 -1.4689
16660TIP3   OH271394   4.632   1.759  15.698 -0.5928 -0.4324 -0.3793
16660TIP3    H171395   4.568   1.781  15.765  0.3762 -1.0042  0.7375
16660TIP3    H271396   4.657   1.844  15.660 -1.6739 -0.1729 -0.5374
16661TIP3   OH271397   2.671   3.303   5.774  0.4200  0.0619  0.3993
16661TIP3    H171398   2.625   3.382   5.803  1.2691  0.5715  0.3832
16661TIP3    H271399   2.656   3.299   5.680 -0.7457 -0.5462  0.5942
16662TIP3   OH271400   3.990   1.048   5.858  0.0615 -0.2854  0.1564
16662TIP3    H171401   3.972   0.954   5.862  0.5976 -0.4354 -0.9208
16662TIP3    H271402   3.983   1.078   5.949  1.7031 -1.6965  0.7649
16663TIP3   OH271403   2.050   5.322  10.978 -0.0292 -0.1488 -0.3305
16663TIP3    H171404   2.103   5.245  10.956 -0.3521 -0.3868 -0.2802
16663TIP3    H271405   1.962   5.299  10.948 -0.0636  0.3242 -0.5912
16664TIP3   OH271406   0.963   2.466   0.669 -0.5503 -0.4392  0.3177
16664TIP3    H171407   1.018   2.509   0.603  0.4290  0.4555  1.6717
16664TIP3    H271408   0.875   2.501   0.654 -0.1939  0.3073 -0.0599
16665TIP3   OH271409   5.836   6.121   2.975 -0.4695 -0.0459 -0.2944
16665TIP3    H171410   5.774   6.081   3.037 -1.0910 -0.2000 -1.0177
16665TIP3    H271411   5.818   6.214   2.980 -0.8732 -0.1092 -0.6420
16666TIP3   OH271412   4.677   3.018   1.565  0.1141 -0.4149 -0.0590
16666TIP3    H171413   4.613   2.972   1.620  1.7500 -2.6938  0.0176
16666TIP3    H271414   4.692   2.959   1.491  1.5294  0.4540 -0.4955
16667TIP3   OH271415   1.909   4.127  12.573  0.2371 -0.1890 -0.1228
16667TIP3    H171416   1.814   4.128  12.567  0.2936  0.6587 -0.9314
16667TIP3    H271417   1.934   4.040  12.542 -0.3797 -1.1158  1.9070
16668TIP3   OH271418   5.540   5.900  14.328 -0.4691 -0.3207  0.7873
16668TIP3    H171419   5.543   5.940  14.414  2.2025  1.0339  0.1147
16668TIP3    H271420   5.546   5.973  14.266 -2.4029 -1.2605 -0.5846
16669TIP3   OH271421   2.295   3.741   3.939  0.6944 -0.4151  0.0704
16669TIP3    H171422   2.283   3.646   3.943 -0.6411 -0.2645 -0.3245
16669TIP3    H271423   2.217   3.778   3.980 -0.3566  0.5608 -2.6852
16670TIP3   OH271424   6.427   0.274  12.309  0.3879  0.7297 -0.5246
16670TIP3    H171425   6.359   0.332  12.344 -0.1802  0.2522 -0.8358
16670TIP3    H271426   6.466   0.325  12.238  1.4043  1.6183  0.6348
16671TIP3   OH271427   3.606   2.671   2.949 -0.0428 -0.2162  0.2795
16671TIP3    H171428   3.645   2.689   2.863 -1.5515  0.7231 -0.2388
16671TIP3    H271429   3.566   2.585   2.939 -1.2866  0.4266 -0.3659
16672TIP3   OH271430   3.595   1.447   0.303 -0.3332 -0.5133 -0.3197
16672TIP3    H171431   3.535   1.386   0.347 -0.6519 -0.5680 -0.8284
16672TIP3    H271432   3.538   1.519   0.276 -0.3657 -1.0814 -1.7941
16673TIP3   OH271433   6.094   4.513   1.205  0.2159  0.0317  0.1086
16673TIP3    H171434   6.165   4.577   1.212 -0.2399  0.4721  0.6977
16673TIP3    H271435   6.042   4.526   1.284 -0.0866 -0.8166  0.0493
16674TIP3   OH271436   0.579   4.470   1.267 -0.0191  0.0678  0.4172
16674TIP3    H171437   0.517   4.539   1.243  0.5251  0.4175  0.0104
16674TIP3    H271438   0.550   4.394   1.216  0.4310  0.4851 -0.4677
16675TIP3   OH271439   4.218   3.988  14.662 -0.6431  0.1734 -0.3742
16675TIP3    H171440   4.279   4.060  14.643  2.1854 -1.5499  1.7304
16675TIP3    H271441   4.216   3.936  14.582  1.9881 -0.6307  0.0294
16676TIP3   OH271442   1.225   1.060   1.721 -0.5299  0.5410  0.0552
16676TIP3    H171443   1.172   0.987   1.751  1.6987 -1.6621 -1.1732
16676TIP3    H271444   1.307   1.020   1.693  1.7077  3.7745  1.6420
16677TIP3   OH271445   6.742   2.633  11.518 -0.0560 -0.0539  0.2616
16677TIP3    H171446   6.823   2.634  11.467 -0.2866 -1.5520 -0.1584
16677TIP3    H271447   6.684   2.693  11.472  0.2096 -0.3565 -0.4801
16678TIP3   OH271448   6.415   6.222   4.180  0.4132  0.4133  0.6773
16678TIP3    H171449   6.441   6.269   4.101 -0.8417 -1.6179 -0.9724
16678TIP3    H271450   6.354   6.281   4.224 -2.9076 -0.5086 -2.5150
16679TIP3   OH271451   1.371   4.431  12.528 -0.7112 -0.1511 -0.2244
16679TIP3    H171452   1.316   4.477  12.591  0.7161  1.6779 -0.2592
16679TIP3    H271453   1.401   4.353  12.574  0.9310  1.5519  1.6556
16680TIP3   OH271454   3.565   3.131  13.430  0.2160  0.4277  0.1992
16680TIP3    H171455   3.575   3.149  13.524  2.5540 -0.7572  0.2216
16680TIP3    H271456   3.655   3.133  13.396 -0.4734 -0.6439 -1.7312
16681TIP3   OH271457   0.643   1.072   0.065 -0.0416 -0.2838 -0.1934
16681TIP3    H171458   0.684   1.027  -0.009 -0.3212 -1.1171  0.1609
16681TIP3    H271459   0.558   1.101   0.031  0.6790  1.1492 -0.8217
16682TIP3   OH271460   5.401   3.999  12.842  0.3278  0.2628 -0.4518
16682TIP3    H171461   5.312   4.031  12.828  0.1939  0.1592  0.1594
16682TIP3    H271462   5.429   3.967  12.757 -0.3098  0.0703 -0.5876
16683TIP3   OH271463   0.504   4.143   5.196 -0.1900 -0.2144 -0.4360
16683TIP3    H171464   0.549   4.059   5.210 -0.4336 -0.0484  1.5156
16683TIP3    H271465   0.411   4.122   5.205 -0.2734  0.1685 -0.4236
16684TIP3   OH271466   6.404   5.599   4.453 -0.2310 -1.2956 -0.3445
16684TIP3    H171467   6.325   5.573   4.501  0.7316  0.5952  2.3592
16684TIP3    H271468   6.467   5.529   4.470  0.1875 -0.5251  1.4705
16685TIP3   OH271469   2.195   5.098   3.612 -0.1016 -0.0032  0.4912
16685TIP3    H171470   2.253   5.152   3.667 -0.4938  0.2791  0.6301
16685TIP3    H271471   2.255   5.052   3.553  0.1196  2.1792 -1.0436
16686TIP3   OH271472   4.055   0.432   0.474 -0.1289  0.1530  0.1659
16686TIP3    H171473   4.071   0.455   0.565  1.4377 -1.3746  0.2917
16686TIP3    H271474   4.000   0.353   0.478  0.6046 -0.3879 -0.1832
16687TIP3   OH271475   6.429   0.845  11.470 -0.0071  0.5660  0.4861
16687TIP3    H171476   6.438   0.809  11.382  1.6234 -1.8951  1.5879
16687TIP3    H271477   6.448   0.939  11.460  1.4098  0.0870 -1.5795
16688TIP3   OH271478   1.041   0.827   0.066 -0.2407  0.2961 -0.4159
16688TIP3    H171479   1.134   0.812   0.048 -0.2101  1.6198 -1.4483
16688TIP3    H271480   1.039   0.909   0.115 -0.9065  0.6288 -0.9866
16689TIP3   OH271481   5.534   4.716  14.579 -0.3610 -0.1687  0.6452
16689TIP3    H171482   5.588   4.712  14.658  0.8135  0.6951 -0.0825
16689TIP3    H271483   5.465   4.778  14.601 -0.3522 -0.3430  1.1789
16690TIP3   OH271484   1.797   6.716   3.051 -0.9400  0.2503  0.0883
16690TIP3    H171485   1.744   6.789   3.021 -0.5704  0.4919  0.0116
16690TIP3    H271486   1.882   6.755   3.072  0.3126 -0.6159 -3.0659
16691TIP3   OH271487   0.360   5.391   2.317 -0.0780 -0.0137 -0.4478
16691TIP3    H171488   0.362   5.390   2.221  0.2902 -2.3587 -0.4487
16691TIP3    H271489   0.331   5.303   2.341 -0.7622  0.7507  1.5957
16692TIP3   OH271490   2.540   6.786  16.723 -0.7669  0.0205  0.6532
16692TIP3    H171491   2.446   6.784  16.740 -1.6564  2.2697 -3.4388
16692TIP3    H271492   2.561   6.879  16.710  1.7224 -0.5704  0.0250
16693TIP3   OH271493   4.553   0.289   2.491 -0.0604 -0.0169 -0.1825
16693TIP3    H171494   4.477   0.249   2.448  0.0044  0.1482 -0.4556
16693TIP3    H271495   4.611   0.216   2.511  0.0911 -0.0564 -0.7482
16694TIP3   OH271496   1.844   5.006  10.387 -0.1660 -0.1975  0.3382
16694TIP3    H171497   1.755   4.976  10.405 -0.7130 -0.2140 -2.3246
16694TIP3    H271498   1.889   4.929  10.354  0.4490  0.1695  0.3238
16695TIP3   OH271499   3.067   3.819  11.793  0.3667  0.1517  0.8313
16695TIP3    H171500   2.982   3.810  11.750  0.4886  0.8820  0.4254
16695TIP3    H271501   3.126   3.847  11.724  0.8690 -0.0149  1.1866
16696TIP3   OH271502   0.932   4.040  15.432  0.3612 -0.0985 -0.4615
16696TIP3    H171503   1.002   4.065  15.492 -2.5117  1.4036  2.4699
16696TIP3    H271504   0.955   4.081  15.349  1.5622  2.7485  1.2200
16697TIP3   OH271505   3.683   3.245   1.084  0.2798 -0.6592  0.0976
16697TIP3    H171506   3.649   3.189   1.154 -3.1161 -0.4250 -1.2644
16697TIP3    H271507   3.663   3.334   1.113  0.0281 -0.4946 -0.5749
16698TIP3   OH271508   5.952   4.872  15.450 -0.1274  0.0537  0.0046
16698TIP3    H171509   5.865   4.911  15.461 -0.1603  0.4023 -1.4109
16698TIP3    H271510   5.955   4.845  15.358  0.8160 -1.0601  0.3425
16699TIP3   OH271511   2.668   3.117  16.102  0.1756 -0.1958  0.0251
16699TIP3    H171512   2.650   3.050  16.168  0.4782 -0.9584 -0.6401
16699TIP3    H271513   2.760   3.101  16.077  1.0897  2.1591  1.7302
16700TIP3   OH271514   2.482   2.768  11.428 -0.4815  0.0141 -0.1656
16700TIP3    H171515   2.515   2.856  11.410  0.1710 -0.1344  0.2686
16700TIP3    H271516   2.436   2.743  11.348 -0.8316  0.8226 -0.2184
16701TIP3   OH271517   4.602   2.456   5.188  0.0939 -0.2166 -0.3821
16701TIP3    H171518   4.686   2.417   5.212  1.4094  1.7617 -1.5223
16701TIP3    H271519   4.539   2.418   5.248  2.3124  0.4109  2.4390
16702TIP3   OH271520   5.268   1.349  17.112 -0.6401  0.3558 -0.1067
16702TIP3    H171521   5.255   1.271  17.165  0.6029 -1.6595 -2.6130
16702TIP3    H271522   5.183   1.393  17.113 -1.3699 -1.0235  1.3554
16703TIP3   OH271523   0.652   5.265   0.135  0.1936  0.1985 -0.7074
16703TIP3    H171524   0.576   5.314   0.166 -0.1960 -0.4869 -0.5577
16703TIP3    H271525   0.617   5.178   0.113  1.0820 -0.4038  0.2192
16704TIP3   OH271526   1.990   2.416  13.261  0.0657 -0.4150 -0.2479
16704TIP3    H171527   2.075   2.372  13.253 -0.5947 -1.6875 -0.4220
16704TIP3    H271528   1.970   2.412  13.354 -0.3373 -1.1445 -0.3639
16705TIP3   OH271529   6.297   1.671   1.934 -0.4235 -0.3873 -0.3230
16705TIP3    H171530   6.204   1.654   1.919 -0.4855 -0.7353  0.4319
16705TIP3    H271531   6.332   1.689   1.847 -1.0228 -1.1054 -0.7193
16706TIP3   OH271532   0.043   3.140  13.996  0.4269 -0.1724  0.0568
16706TIP3    H171533  -0.040   3.093  13.986 -1.1127  2.1777  1.4965
16706TIP3    H271534   0.063   3.172  13.908  0.6590 -2.0791 -0.6141
16707TIP3   OH271535   2.669   5.604  13.189  0.0643  0.6260  0.7686
16707TIP3    H171536   2.626   5.690  13.184  0.4770  0.8831  1.5602
16707TIP3    H271537   2.627   5.561  13.263 -1.1416 -0.4239 -0.4985
16708TIP3   OH271538   0.013   2.607  12.861 -0.1428 -0.5395  0.6892
16708TIP3    H171539  -0.038   2.594  12.782 -0.9243  0.5161  1.0178
16708TIP3    H271540   0.100   2.633  12.830 -0.8480  1.2581  0.2044
16709TIP3   OH271541   3.035   4.151  16.062 -0.3558  0.5975  0.8995
16709TIP3    H171542   2.972   4.135  16.133 -0.2992 -4.4759 -0.0337
16709TIP3    H271543   2.982   4.147  15.982  0.0826  3.3662  0.4167
16710TIP3   OH271544   5.259   0.970   1.401  0.3421 -0.0086 -0.1369
16710TIP3    H171545   5.246   0.973   1.496  0.0499 -1.9615 -0.0900
16710TIP3    H271546   5.179   1.008   1.365  0.7418  1.3827  0.3964
16711TIP3   OH271547   4.087   1.432  11.056  0.2588  0.0550  0.1820
16711TIP3    H171548   4.069   1.460  10.966 -1.8128 -0.4328  0.4210
16711TIP3    H271549   4.123   1.344  11.047  0.7627  0.2966 -0.2008
16712TIP3   OH271550   6.152   3.460   0.206  0.0001  0.3042 -0.1516
16712TIP3    H171551   6.209   3.401   0.156 -0.9720 -0.7724 -0.0229
16712TIP3    H271552   6.095   3.499   0.141  1.3572  1.9543 -0.3765
16713TIP3   OH271553   0.978   1.383   3.201 -0.2853 -0.1450 -0.2443
16713TIP3    H171554   0.928   1.390   3.120  0.2621  1.6660 -0.4393
16713TIP3    H271555   0.992   1.473   3.229 -0.0844 -0.7420  1.6333
16714TIP3   OH271556   0.884   4.158  12.049  0.2689  0.2055 -0.0438
16714TIP3    H171557   0.894   4.223  11.979 -1.2995  2.1454  1.4642
16714TIP3    H271558   0.972   4.122  12.061  0.8427  0.8640 -2.0259
16715TIP3   OH271559   0.177   4.239   5.001  0.4682  0.4740 -1.1503
16715TIP3    H171560   0.226   4.249   4.920  0.0703  1.9570 -1.2202
16715TIP3    H271561   0.190   4.321   5.048  0.5214 -0.2911  0.1949
16716TIP3   OH271562   6.483   4.477  12.533  0.1168  0.5295 -0.0232
16716TIP3    H171563   6.542   4.535  12.485  0.2578  0.1151 -0.3623
16716TIP3    H271564   6.493   4.502  12.624 -0.5847  1.7136 -0.2650
16717TIP3   OH271565   0.079   0.166  12.271 -0.1831 -0.1068  0.4490
16717TIP3    H171566   0.045   0.183  12.359 -1.0316  0.1369  0.0838
16717TIP3    H271567   0.033   0.086  12.244  1.0755 -0.9386  0.7475
16718TIP3   OH271568   3.429   6.746  16.039 -0.5703  0.2092  0.0643
16718TIP3    H171569   3.419   6.764  16.133 -2.3302 -0.7953  0.1019
16718TIP3    H271570   3.476   6.663  16.035  0.5778  0.8586  0.0346
16719TIP3   OH271571   1.593   3.049   1.369 -0.2020  0.0700  0.1485
16719TIP3    H171572   1.524   3.115   1.359 -0.1991  0.2531  1.3258
16719TIP3    H271573   1.673   3.100   1.381  0.3625 -0.1219 -2.4240
16720TIP3   OH271574   4.102   1.051  16.869 -0.1625 -0.4877 -0.1145
16720TIP3    H171575   4.014   1.033  16.838 -0.2810  1.5393 -1.0147
16720TIP3    H271576   4.111   0.998  16.948 -1.2598 -2.6675 -1.3940
16721TIP3   OH271577   5.541   1.180  10.614 -0.5618 -0.2353  0.3314
16721TIP3    H171578   5.499   1.223  10.689 -0.6194  0.5282 -0.1329
16721TIP3    H271579   5.634   1.197  10.626 -0.7123  1.5852 -0.7907
16722TIP3   OH271580   0.517   3.818   0.796 -0.1947  0.4437 -0.1441
16722TIP3    H171581   0.488   3.778   0.715  1.2994 -2.0482  0.4965
16722TIP3    H271582   0.606   3.847   0.778 -1.0419  3.0040 -0.4092
16723TIP3   OH271583   5.898   3.231  15.579  0.4285  0.2689 -0.5903
16723TIP3    H171584   5.867   3.141  15.591  0.7736  0.1241 -0.7794
16723TIP3    H271585   5.844   3.265  15.508  1.0417 -0.1495 -1.2617
16724TIP3   OH271586   2.852   6.279  14.688  0.6999 -0.7881 -0.3351
16724TIP3    H171587   2.928   6.278  14.629 -0.4215  0.7068 -1.8582
16724TIP3    H271588   2.833   6.187  14.703  1.8219 -1.1970 -1.2525
16725TIP3   OH271589   4.420   3.348  15.842  0.4303 -0.1532  0.4072
16725TIP3    H171590   4.500   3.301  15.866 -0.3132 -1.0807  1.1413
16725TIP3    H271591   4.425   3.357  15.747  1.6047  0.1798  0.4934
16726TIP3   OH271592   1.154   6.107   5.448 -0.4337  0.0265  0.2491
16726TIP3    H171593   1.193   6.170   5.388  1.5960 -0.6515  0.8132
16726TIP3    H271594   1.228   6.073   5.498 -1.7857 -1.1911  1.4583
16727TIP3   OH271595   1.340   1.830   5.240 -0.0415 -0.0594  0.2687
16727TIP3    H171596   1.372   1.855   5.153  0.8991  0.2340  0.6911
16727TIP3    H271597   1.406   1.863   5.300 -0.9131  0.1346  1.1377
16728TIP3   OH271598   5.936   1.358   5.820  1.0066  0.2294 -0.4593
16728TIP3    H171599   5.953   1.279   5.768  2.1691  1.2865 -1.6829
16728TIP3    H271600   5.960   1.333   5.909 -1.5999 -1.8022 -0.2650
16729TIP3   OH271601   2.213   3.161  11.762 -0.2608  1.0489 -0.1138
16729TIP3    H171602   2.256   3.148  11.678 -0.9450  1.8193 -0.5896
16729TIP3    H271603   2.265   3.230  11.804 -0.5118  1.3627 -0.3199
16730TIP3   OH271604   0.114   2.629   5.664 -0.0995 -0.0986 -0.1072
16730TIP3    H171605   0.161   2.662   5.741  0.9252 -0.9562 -0.3543
16730TIP3    H271606   0.025   2.663   5.674  0.6634  1.8988  0.1559
16731TIP3   OH271607   0.397   4.559  15.666 -0.0256 -0.4597 -0.3248
16731TIP3    H171608   0.405   4.653  15.682 -1.6253 -0.5028  0.8040
16731TIP3    H271609   0.331   4.530  15.727  0.4234 -2.3351 -0.7058
16732TIP3   OH271610   5.208   0.699   3.033 -0.1122 -0.2584 -0.2599
16732TIP3    H171611   5.241   0.748   2.958 -0.6827  0.4357 -0.0709
16732TIP3    H271612   5.144   0.758   3.074  0.4991 -0.4505  1.0115
16733TIP3   OH271613   3.421   6.577   2.111  0.1180 -0.5785  0.2118
16733TIP3    H171614   3.398   6.612   2.026  1.7553  0.6982  0.2738
16733TIP3    H271615   3.430   6.483   2.097  1.2653 -0.2687 -1.2507
16734TIP3   OH271616   5.975   4.906   2.462 -0.4159 -0.1803  0.0789
16734TIP3    H171617   6.027   4.842   2.413  1.2969  0.6409  0.7603
16734TIP3    H271618   5.930   4.957   2.395 -1.5079 -1.8628 -0.4708
16735TIP3   OH271619   5.952   3.077   2.940  0.1687  0.8538  0.3897
16735TIP3    H171620   5.966   3.011   2.872 -0.1253  0.5309  0.6403
16735TIP3    H271621   5.990   3.039   3.019 -4.3388 -1.1757  1.7068
16736TIP3   OH271622   6.591   5.546   1.897 -0.0133 -0.1603  0.2953
16736TIP3    H171623   6.615   5.623   1.948  0.2341  1.0133 -1.5100
16736TIP3    H271624   6.674   5.513   1.863 -0.0034 -1.9192  1.9942
16737TIP3   OH271625   0.030   5.532  13.103 -0.1744 -0.4767 -0.1532
16737TIP3    H171626   0.004   5.620  13.077  1.1624 -0.4164 -1.3690
16737TIP3    H271627   0.124   5.540  13.123 -0.0718 -1.6014 -0.1353
16738TIP3   OH271628   1.139   5.299  12.694  0.0128 -0.2166  0.4456
16738TIP3    H171629   1.194   5.288  12.616  0.6777 -4.1280  1.3556
16738TIP3    H271630   1.050   5.306  12.661  0.4670  0.0620 -0.7298
16739TIP3   OH271631   4.191   6.514   2.075 -0.6881 -0.1860 -0.2163
16739TIP3    H171632   4.130   6.521   2.148 -0.6452 -0.9012 -0.1082
16739TIP3    H271633   4.179   6.595   2.026 -1.6493 -0.2833 -0.1439
16740TIP3   OH271634   2.589   0.859  12.057 -0.0479  0.6236 -0.4425
16740TIP3    H171635   2.548   0.927  12.112  0.3359  0.9733 -0.5896
16740TIP3    H271636   2.534   0.857  11.978 -0.9366 -0.2753  0.1889
16741TIP3   OH271637   5.064   1.959  12.213 -0.4132 -0.3192  0.1557
16741TIP3    H171638   5.015   1.925  12.288 -3.0722  0.4087 -1.2101
16741TIP3    H271639   5.030   2.047  12.200  1.1227  0.1237 -0.9601
16742TIP3   OH271640   6.290   1.882  13.057  0.0507  0.1724  0.2028
16742TIP3    H171641   6.292   1.969  13.017  0.3241 -0.4375 -1.1130
16742TIP3    H271642   6.352   1.888  13.130 -1.0788  1.5324  1.0918
16743TIP3   OH271643   1.418   3.210   1.107 -0.4383  0.1234 -0.4598
16743TIP3    H171644   1.408   3.222   1.202  0.6581 -0.6281 -0.2432
16743TIP3    H271645   1.367   3.282   1.069  1.0352  1.8689  0.7447
16744TIP3   OH271646   0.523   5.775   1.243 -0.1390  0.2839 -0.5182
16744TIP3    H171647   0.480   5.831   1.308  0.2331 -1.8714  1.6706
16744TIP3    H271648   0.456   5.709   1.222 -0.1949  0.8688 -2.2216
16745TIP3   OH271649   5.465   4.374  15.256  0.5493 -0.0486  0.5019
16745TIP3    H171650   5.420   4.458  15.246 -0.4896 -0.7379 -0.8517
16745TIP3    H271651   5.401   4.318  15.301 -0.1675 -1.1492 -1.7665
16746TIP3   OH271652   1.069   3.687  14.682  0.5747  0.3292  0.0176
16746TIP3    H171653   1.068   3.758  14.618  1.7973  0.0497 -0.3282
16746TIP3    H271654   1.156   3.692  14.721  0.5356 -0.7486  0.2491
16747TIP3   OH271655   6.399   2.419  12.818  0.1546 -0.4637 -0.0568
16747TIP3    H171656   6.370   2.339  12.776 -1.6688  1.3446 -2.4162
16747TIP3    H271657   6.338   2.431  12.891  0.0190 -0.8936 -0.0989
16748TIP3   OH271658   3.868   3.274  12.492 -0.4653  0.1691  0.3235
16748TIP3    H171659   3.817   3.216  12.437  1.2052 -0.4778 -0.5918
16748TIP3    H271660   3.831   3.361  12.478  1.0191  0.3083 -3.2031
16749TIP3   OH271661   6.111   5.646   2.994  0.6007  0.0756  0.0163
16749TIP3    H171662   6.172   5.573   2.982 -0.9848 -1.3962  0.6422
16749TIP3    H271663   6.124   5.701   2.917  0.3069 -2.0206 -1.5949
16750TIP3   OH271664   1.037   6.082   1.616  0.1020  0.4954  0.4484
16750TIP3    H171665   1.124   6.099   1.580 -0.3221 -1.0175 -1.3753
16750TIP3    H271666   0.977   6.093   1.542 -1.1637  0.5599  1.4556
16751TIP3   OH271667   5.608   2.083  12.646 -0.7443  0.2563 -0.1266
16751TIP3    H171668   5.594   2.070  12.740 -0.7366  0.2775 -0.1223
16751TIP3    H271669   5.646   2.171  12.639  0.2201 -0.1462 -0.0570
16752TIP3   OH271670   5.366   2.063   1.979 -0.1868 -0.2142  0.0381
16752TIP3    H171671   5.453   2.101   1.981 -1.4440  2.7987  0.0987
16752TIP3    H271672   5.316   2.111   2.045 -1.7450 -2.3353  0.4820
16753TIP3   OH271673   1.088   1.518   4.591 -0.3447  0.3843  0.0264
16753TIP3    H171674   1.150   1.511   4.518 -0.8533  1.0597 -0.4725
16753TIP3    H271675   1.058   1.609   4.588 -3.0974 -0.5318 -1.1478
16754TIP3   OH271676   2.705   3.866  13.300 -0.0730 -0.9874  0.4479
16754TIP3    H171677   2.676   3.956  13.307 -1.1100 -1.0993 -1.7562
16754TIP3    H271678   2.650   3.828  13.231  3.5226 -1.9352 -2.0703
16755TIP3   OH271679   5.003   2.281  17.056 -0.9400 -0.6825 -0.2350
16755TIP3    H171680   4.933   2.216  17.063 -1.1962 -0.4314 -0.4678
16755TIP3    H271681   5.023   2.304  17.147 -1.8317 -0.0353 -0.1994
16756TIP3   OH271682   4.511   1.497   3.299 -0.4392 -0.4072 -0.2950
16756TIP3    H171683   4.541   1.416   3.341  0.0494 -0.5223 -0.8571
16756TIP3    H271684   4.474   1.548   3.371 -3.1817 -2.2159 -0.3318
16757TIP3   OH271685   0.446   2.057  12.713  0.0635  0.4763  0.1236
16757TIP3    H171686   0.360   2.084  12.744 -0.3778  0.5981 -1.1967
16757TIP3    H271687   0.428   2.000  12.638  1.0388 -1.8497  1.6212
16758TIP3   OH271688   5.681   4.324  15.714  0.5993 -0.0357  0.2995
16758TIP3    H171689   5.586   4.317  15.712  0.6942 -1.8909  1.5345
16758TIP3    H271690   5.704   4.356  15.627 -1.0267 -1.5457 -0.7266
16759TIP3   OH271691   2.783   1.355   2.782  0.4482  0.2005 -0.3024
16759TIP3    H171692   2.821   1.390   2.863  0.1502 -1.4090  0.5494
16759TIP3    H271693   2.859   1.334   2.727  0.6629  0.7210 -0.2105
16760TIP3   OH271694   6.001   2.513   2.878 -0.4563 -0.1643 -0.3215
16760TIP3    H171695   5.999   2.590   2.821 -0.0356 -0.1708 -0.3452
16760TIP3    H271696   5.951   2.539   2.955  0.0982  0.2948 -0.1239
16761TIP3   OH271697   4.094   4.136  15.008 -0.0789  0.6140 -0.4429
16761TIP3    H171698   4.054   4.221  14.986 -0.3458  0.4213 -0.7041
16761TIP3    H271699   4.032   4.096  15.069 -0.7540 -0.0973 -1.5878
16762TIP3   OH271700   6.411   1.920   5.896 -0.1830  0.1827  0.0212
16762TIP3    H171701   6.338   1.960   5.945  0.0031  0.6529 -0.0789
16762TIP3    H271702   6.487   1.932   5.953 -0.2418 -0.5878  0.2623
16763TIP3   OH271703   3.843   4.020  15.226  0.1489  0.2212  0.2807
16763TIP3    H171704   3.804   3.983  15.305  3.2545  0.5243  2.0174
16763TIP3    H271705   3.884   4.101  15.255  2.0869 -0.0937 -1.4437
16764TIP3   OH271706   5.454   2.062  14.479 -0.5976  0.3811  0.2237
16764TIP3    H171707   5.417   2.043  14.393  0.6631 -0.7610 -0.0816
16764TIP3    H271708   5.544   2.089  14.462  0.3904 -2.0557  1.2983
16765TIP3   OH271709   5.242   4.296  14.554 -0.0448  0.3777 -0.2191
16765TIP3    H171710   5.153   4.324  14.531  0.4245  1.8361 -0.2903
16765TIP3    H271711   5.291   4.378  14.564  1.4064 -0.4333 -0.6378
16766TIP3   OH271712   2.085   6.100   1.330  0.0223  0.3100 -0.0380
16766TIP3    H171713   2.043   6.112   1.415  0.2314  0.7629  0.0021
16766TIP3    H271714   2.128   6.184   1.312 -1.8147  1.0012 -1.5576
16767TIP3   OH271715   4.291   1.866  13.428 -0.3886  0.1225 -0.0083
16767TIP3    H171716   4.294   1.921  13.349  0.4403  0.6641  0.3963
16767TIP3    H271717   4.210   1.817  13.419 -2.2355  2.9315  0.6430
16768TIP3   OH271718   1.353   3.482   0.771 -0.1172  0.0060 -0.3149
16768TIP3    H171719   1.309   3.471   0.687 -1.6886 -1.2378  0.6195
16768TIP3    H271720   1.342   3.397   0.815  2.2525  0.0542  0.4168
16769TIP3   OH271721   3.655   3.217  13.108  0.5293 -0.1316  0.0728
16769TIP3    H171722   3.603   3.137  13.102  0.4016 -0.0988  0.7136
16769TIP3    H271723   3.741   3.188  13.139 -0.2128  0.2364  2.6079
16770TIP3   OH271724   3.732   3.596  14.497 -0.1859  0.0067 -0.2085
16770TIP3    H171725   3.720   3.589  14.592 -0.4712 -0.2965 -0.2638
16770TIP3    H271726   3.732   3.691  14.480  1.2877  0.0941  0.2617
16771TIP3   OH271727   2.297   5.594   5.644 -0.2184 -0.4987  0.2002
16771TIP3    H171728   2.354   5.596   5.721 -0.4609  0.3661  0.3586
16771TIP3    H271729   2.211   5.570   5.678  0.1457 -2.2638 -0.1029
16772TIP3   OH271730   3.443   6.254  13.284 -0.2390 -0.3895 -0.3019
16772TIP3    H171731   3.362   6.304  13.294 -1.5222 -2.3972 -0.3827
16772TIP3    H271732   3.492   6.271  13.365 -0.4445  1.3069 -0.5088
16773TIP3   OH271733   6.519   0.964  17.025  0.3818 -0.1793 -0.5696
16773TIP3    H171734   6.557   1.045  16.991 -0.6744  0.8562  0.7164
16773TIP3    H271735   6.531   0.970  17.120 -1.0294 -0.8582 -0.3460
16774TIP3   OH271736   3.354   0.184  13.028 -0.3318 -0.2355  0.1527
16774TIP3    H171737   3.423   0.184  13.095 -0.3870  2.6799  0.2602
16774TIP3    H271738   3.339   0.091  13.010  3.4221 -0.9822  0.3324
16775TIP3   OH271739   1.504   4.114   4.037  0.0462 -0.3824  0.0767
16775TIP3    H171740   1.466   4.196   4.006 -0.0633  0.1319  1.5438
16775TIP3    H271741   1.502   4.121   4.133  1.4575 -1.4490  0.1958
16776TIP3   OH271742   5.683   1.238  11.814  0.1884  0.0679 -0.3686
16776TIP3    H171743   5.712   1.283  11.893  3.2077 -0.3575 -1.1669
16776TIP3    H271744   5.747   1.262  11.748 -1.3528 -0.9131 -2.2542
16777TIP3   OH271745   6.573   2.796  11.798  0.2414 -0.0730 -0.4152
16777TIP3    H171746   6.495   2.790  11.854 -0.5689  0.4765 -1.4661
16777TIP3    H271747   6.547   2.753  11.717  0.5975  1.2646 -1.2425
16778TIP3   OH271748   0.688   4.979   5.976 -0.1535 -0.1508 -0.1596
16778TIP3    H171749   0.771   4.931   5.977 -0.2429 -0.3504 -1.3915
16778TIP3    H271750   0.684   5.022   6.062  1.6463  0.5994 -0.4271
16779TIP3   OH271751   6.462   3.223  13.509 -0.3921 -0.0089 -0.3828
16779TIP3    H171752   6.502   3.148  13.466  0.1057  0.9911 -1.7128
16779TIP3    H271753   6.476   3.296  13.449 -0.0979  1.3415  1.2625
16780TIP3   OH271754   6.593   0.458  11.399 -0.5031 -0.5330  0.3290
16780TIP3    H171755   6.524   0.481  11.460 -0.1343 -0.9196  0.9014
16780TIP3    H271756   6.548   0.414  11.327 -0.9946  0.3884  0.0820
16781TIP3   OH271757   0.202   3.687  13.937 -0.7345  0.1521 -0.3599
16781TIP3    H171758   0.265   3.724  13.875 -0.0669 -1.4224 -0.6421
16781TIP3    H271759   0.135   3.646  13.882 -1.1581  0.4104 -0.0433
16782TIP3   OH271760   1.617   1.712   3.519  0.3331  0.0785 -0.2416
16782TIP3    H171761   1.643   1.789   3.468 -1.2301  1.0285  0.3624
16782TIP3    H271762   1.571   1.748   3.595  2.2184 -1.3536  1.6202
16783TIP3   OH271763   3.926   0.605  14.704  0.1702 -0.7169  0.0324
16783TIP3    H171764   4.012   0.565  14.686  0.0401 -0.5208 -1.0577
16783TIP3    H271765   3.870   0.574  14.633  0.1561  1.7154 -1.0637
16784TIP3   OH271766   0.758   1.310   5.954 -0.4019 -0.3755  0.6228
16784TIP3    H171767   0.760   1.394   5.908  0.7759 -1.8545 -2.1360
16784TIP3    H271768   0.813   1.324   6.031 -0.4741  1.4646  0.3548
16785TIP3   OH271769   2.132   1.410   5.393  0.4202 -0.0756 -0.3806
16785TIP3    H171770   2.040   1.422   5.419  0.5519  0.0806  0.0162
16785TIP3    H271771   2.182   1.457   5.460  0.8803 -1.8415  0.5555
16786TIP3   OH271772   5.056   3.494  11.962  0.2385  0.2576 -0.2858
16786TIP3    H171773   5.097   3.464  12.043 -0.5404  0.9819  0.3971
16786TIP3    H271774   4.969   3.523  11.989 -0.5824 -0.9035 -1.6414
16787TIP3   OH271775   5.886   2.752   1.413  0.5121 -0.3824 -0.0698
16787TIP3    H171776   5.888   2.836   1.460  0.8693 -0.1356 -0.5201
16787TIP3    H271777   5.979   2.729   1.403  0.3880 -1.3616  1.0012
16788TIP3   OH271778   1.404   4.699  15.755  0.6175  0.7242  0.1162
16788TIP3    H171779   1.495   4.726  15.770  0.4433  0.5750  1.4668
16788TIP3    H271780   1.362   4.777  15.718  0.9851  1.1911  0.6687
16789TIP3   OH271781   0.036   0.923  11.579 -0.3018 -0.4998 -0.1606
16789TIP3    H171782  -0.050   0.944  11.616 -0.0248  0.7170 -0.1890
16789TIP3    H271783   0.058   0.838  11.615  0.7446  1.3876  3.9087
16790TIP3   OH271784   5.130   5.536  16.426  0.2834 -0.4327 -0.1452
16790TIP3    H171785   5.211   5.486  16.432  0.0271 -0.7618  0.5858
16790TIP3    H271786   5.145   5.613  16.480  0.4421 -0.0392 -0.7487
16791TIP3   OH271787   5.190   4.764   2.762 -0.2770 -0.2692 -0.5296
16791TIP3    H171788   5.238   4.723   2.691  1.8539 -0.0202  0.7437
16791TIP3    H271789   5.099   4.736   2.748  0.1511 -0.5547 -3.0855
16792TIP3   OH271790   4.503   6.064  10.995  0.1885 -0.0427 -0.3453
16792TIP3    H171791   4.440   5.994  11.010 -1.0918  1.1817  0.1316
16792TIP3    H271792   4.541   6.081  11.081  1.1037 -0.7178 -0.6177
16793TIP3   OH271793   3.127   4.783  13.619 -0.1658  0.5521 -0.2816
16793TIP3    H171794   3.214   4.822  13.614 -0.5331  1.6844  1.5069
16793TIP3    H271795   3.069   4.857  13.639 -1.2182 -0.5282  0.7665
16794TIP3   OH271796   4.082   1.133   0.005  0.0202 -0.4244 -0.1843
16794TIP3    H171797   4.052   1.042   0.013  0.4003 -0.6193 -0.9222
16794TIP3    H271798   4.107   1.158   0.094  1.5459 -1.6165 -0.2449
16795TIP3   OH271799   3.014   2.449  13.339 -0.2443  0.0916  0.0954
16795TIP3    H171800   3.096   2.435  13.292  0.2980 -0.5995  1.2170
16795TIP3    H271801   2.981   2.532  13.305 -1.0126 -1.4553 -3.1099
16796TIP3   OH271802   4.978   1.923  16.607 -0.7504 -0.0787 -0.5292
16796TIP3    H171803   4.963   1.834  16.638 -4.5692  0.4018 -0.6649
16796TIP3    H271804   4.932   1.978  16.670  1.8249  1.8397 -0.2846
16797TIP3   OH271805   4.719   3.663   4.619 -0.1228 -0.1137 -0.3831
16797TIP3    H171806   4.792   3.600   4.622  0.1595  0.2158 -0.3478
16797TIP3    H271807   4.695   3.677   4.710 -0.4079 -0.4276 -0.4088
16798TIP3   OH271808   0.439   4.688   2.901 -0.3257  0.3960 -0.5401
16798TIP3    H171809   0.502   4.618   2.916 -0.7147  0.3519  0.9804
16798TIP3    H271810   0.420   4.722   2.989 -0.3728  2.1956 -1.2389
16799TIP3   OH271811   6.313   4.723   5.030  0.3084  0.2864 -0.0504
16799TIP3    H171812   6.250   4.651   5.023 -0.6754  0.9866  1.3335
16799TIP3    H271813   6.398   4.681   5.021 -0.2818 -0.9470 -0.0641
16800TIP3   OH271814   1.884   2.622  16.928 -0.2606  0.0275 -0.1502
16800TIP3    H171815   1.913   2.677  17.001  0.6341 -1.3450  0.5517
16800TIP3    H271816   1.867   2.537  16.967  0.9362 -0.9325 -1.6490
16801TIP3   OH271817   1.250   3.422  11.942  0.1230 -0.3180 -0.6303
16801TIP3    H171818   1.192   3.445  12.015 -2.9144  2.3137 -3.6753
16801TIP3    H271819   1.209   3.346  11.901  0.3217 -0.1504 -1.1493
16802TIP3   OH271820   3.168   3.183  16.669 -0.1281  0.2140 -0.3522
16802TIP3    H171821   3.075   3.181  16.689  0.2387  1.1964  1.4818
16802TIP3    H271822   3.176   3.129  16.590 -1.8780 -2.0419  0.9597
16803TIP3   OH271823   6.590   0.828  12.702  0.0901  0.2294  0.4004
16803TIP3    H171824   6.507   0.781  12.716 -0.3724  1.2429  1.1843
16803TIP3    H271825   6.642   0.808  12.780  0.0920  0.5975  0.4949
16804TIP3   OH271826   1.063   2.254  11.971  0.3982  0.8119  0.3482
16804TIP3    H171827   1.072   2.348  11.987 -2.0910  1.1532 -0.0490
16804TIP3    H271828   1.004   2.224  12.039  0.4263 -0.2953 -0.1048
16805TIP3   OH271829   5.420   6.592   2.935 -0.2132  0.3196 -0.7295
16805TIP3    H171830   5.432   6.610   2.841 -0.5811  0.1639 -0.8084
16805TIP3    H271831   5.505   6.610   2.974  0.2680 -0.6958 -1.2705
16806TIP3   OH271832   5.582   6.737  12.468  0.1931  0.7944  0.4310
16806TIP3    H171833   5.593   6.821  12.423  0.2602 -0.9561 -2.9765
16806TIP3    H271834   5.546   6.678  12.401  0.1822 -1.9155  2.7227
16807TIP3   OH271835   3.755   1.211  16.340 -0.1024  0.0321  0.0097
16807TIP3    H171836   3.724   1.262  16.414  0.7110  0.2824  0.1820
16807TIP3    H271837   3.692   1.140  16.332 -1.6009  1.4011 -0.6175
16808TIP3   OH271838   3.357   5.825   0.266 -0.0088 -0.0800 -0.1697
16808TIP3    H171839   3.329   5.753   0.323 -1.7099  1.4591  0.9981
16808TIP3    H271840   3.314   5.902   0.303  1.5141  1.4773 -1.6142
16809TIP3   OH271841   0.083   3.981   6.615 -0.0665  0.2873 -0.6289
16809TIP3    H171842   0.151   3.984   6.548  0.9989 -1.4526  0.3443
16809TIP3    H271843   0.034   3.901   6.597 -0.2981  0.2429  0.1670
16810TIP3   OH271844   4.081   6.612   3.797  0.1373 -0.1192  0.6056
16810TIP3    H171845   4.122   6.695   3.823 -0.7918  0.4021  0.4086
16810TIP3    H271846   4.115   6.548   3.861 -0.6360  0.7829  1.9433
16811TIP3   OH271847   6.133   2.622   1.332  0.6742  0.5607  0.1874
16811TIP3    H171848   6.097   2.542   1.293 -1.2770  0.9902  1.0457
16811TIP3    H271849   6.197   2.591   1.395  1.7707 -0.2353 -1.2675
16812TIP3   OH271850   2.039   4.584   1.365 -0.3428  0.5356 -0.2744
16812TIP3    H171851   2.008   4.607   1.277 -0.7072  0.5582 -0.1375
16812TIP3    H271852   2.132   4.564   1.352 -0.5539 -0.1307 -0.7866
16813TIP3   OH271853   6.263   5.306  16.701 -0.4879  0.3795 -0.1254
16813TIP3    H171854   6.262   5.241  16.630 -0.5225  0.2312  0.0111
16813TIP3    H271855   6.229   5.386  16.661  0.4823  0.5873 -0.5592
16814TIP3   OH271856   5.630   2.968   0.085 -0.2354 -0.1708  0.2741
16814TIP3    H171857   5.714   2.990   0.126 -0.3300  1.8258 -0.5545
16814TIP3    H271858   5.567   2.972   0.157  0.0777  0.2205  0.5309
16815TIP3   OH271859   2.850   6.535  15.237 -0.1467  0.2578 -0.1054
16815TIP3    H171860   2.781   6.546  15.172 -0.3603  1.5119  0.3158
16815TIP3    H271861   2.903   6.615  15.230  0.4361 -0.0667  0.5271
16816TIP3   OH271862   1.383   3.250   0.179  0.2865  0.1411  0.4205
16816TIP3    H171863   1.368   3.343   0.194  0.6400  0.3324 -0.3588
16816TIP3    H271864   1.476   3.244   0.157  0.5545 -0.5618  1.7271
16817TIP3   OH271865   5.855   6.370   4.273 -0.3098  0.0123 -0.3318
16817TIP3    H171866   5.864   6.337   4.184 -0.6417 -0.7581 -0.0927
16817TIP3    H271867   5.763   6.394   4.281 -0.3995 -0.4118 -0.0407
16818TIP3   OH271868   0.895   1.094   0.222  0.4006 -0.2963  0.2380
16818TIP3    H171869   0.938   1.172   0.187 -1.6650  1.0369  0.5632
16818TIP3    H271870   0.823   1.077   0.162  1.8883 -3.0880 -0.8473
16819TIP3   OH271871   1.768   2.896   0.287  0.4170 -0.1742 -0.3129
16819TIP3    H171872   1.735   2.985   0.283  0.5556 -0.1915 -2.5283
16819TIP3    H271873   1.863   2.905   0.289  0.3765 -0.2106  2.4902
16820TIP3   OH271874   0.266   1.076  11.657 -0.4709 -0.9064 -0.4645
16820TIP3    H171875   0.184   1.032  11.633 -0.4444 -1.0697 -0.2492
16820TIP3    H271876   0.253   1.167  11.628 -1.5077 -0.4582  1.3580
16821TIP3   OH271877   2.450   5.988   0.790 -0.0469  0.9077 -0.1132
16821TIP3    H171878   2.543   5.973   0.809 -0.7821 -2.4305  1.0771
16821TIP3    H271879   2.439   5.959   0.699  0.3055  2.4687 -0.6666
16822TIP3   OH271880   0.359   0.671   2.769  0.0347 -0.0230  0.1785
16822TIP3    H171881   0.341   0.763   2.789  0.5626  0.0209  0.4483
16822TIP3    H271882   0.334   0.624   2.848  1.5998  0.0943  0.7541
16823TIP3   OH271883   1.848   2.787   2.442  0.4495  0.0361  0.2042
16823TIP3    H171884   1.890   2.869   2.468  1.2274 -0.3980  0.3285
16823TIP3    H271885   1.914   2.743   2.388 -0.1565 -0.2767 -0.2840
16824TIP3   OH271886   4.065   1.523  16.858  0.1328 -0.1494 -0.0422
16824TIP3    H171887   4.057   1.460  16.787  1.8289 -1.8659  1.2263
16824TIP3    H271888   4.076   1.469  16.937  1.2185  1.7097  1.1256
16825TIP3   OH271889   3.256   2.793  17.107 -0.1998 -0.1658 -0.3562
16825TIP3    H171890   3.185   2.750  17.154 -0.7755  2.2421  1.0732
16825TIP3    H271891   3.269   2.740  17.029 -4.0699 -0.2775 -1.0207
16826TIP3   OH271892   4.212   1.949   4.013  0.0369 -0.1430 -0.2100
16826TIP3    H171893   4.171   1.864   4.030 -0.0991 -0.2869 -1.2654
16826TIP3    H271894   4.171   2.008   4.078 -1.1270 -0.5057 -0.5973
16827TIP3   OH271895   6.059   4.165  17.026 -0.0579 -0.2207 -0.0797
16827TIP3    H171896   6.116   4.094  16.996  0.9598  0.5419  0.0120
16827TIP3    H271897   6.085   4.180  17.117  1.1108  1.5629 -0.6644
16828TIP3   OH271898   2.069   5.480   1.391 -0.0553  0.2314 -0.5488
16828TIP3    H171899   2.074   5.385   1.406 -0.0606  0.1668 -0.9650
16828TIP3    H271900   2.018   5.489   1.311  0.3172  0.5722 -0.7439
16829TIP3   OH271901   1.936   2.590   1.560  0.0139  0.2975  0.0875
16829TIP3    H171902   1.935   2.502   1.522  0.8982 -0.6668  2.2037
16829TIP3    H271903   1.861   2.634   1.519  0.4677 -0.9075 -2.1449
16830TIP3   OH271904   3.485   0.856  14.240 -0.1865  0.5766  0.9367
16830TIP3    H171905   3.396   0.822  14.252 -0.7461  1.6896 -0.0302
16830TIP3    H271906   3.504   0.840  14.147  0.3177  1.0812  0.9536
16831TIP3   OH271907   5.297   6.567   3.823 -0.2736 -0.6179  0.2301
16831TIP3    H171908   5.202   6.563   3.830 -0.3502  1.3524  0.3648
16831TIP3    H271909   5.322   6.647   3.869  1.2442  0.0185 -1.6352
16832TIP3   OH271910   4.748   1.538  13.399 -0.8833  0.2761 -0.7955
16832TIP3    H171911   4.817   1.595  13.431 -0.2564 -0.3566 -0.9913
16832TIP3    H271912   4.667   1.580  13.426 -0.4571  1.6181 -1.5593
16833TIP3   OH271913   0.229   6.430   2.222  0.3742  0.1686 -0.0744
16833TIP3    H171914   0.238   6.381   2.304  1.0715  0.5556  0.0897
16833TIP3    H271915   0.318   6.432   2.187 -0.2096 -1.4699 -1.7064
16834TIP3   OH271916   1.770   4.840   5.755 -0.1173 -0.1045 -0.1779
16834TIP3    H171917   1.702   4.887   5.707  0.5134 -0.9953 -1.9805
16834TIP3    H271918   1.724   4.798   5.828 -1.4672 -0.5590 -1.2764
16835TIP3   OH271919   2.748   2.905   5.730  0.3324 -0.3748 -0.4578
16835TIP3    H171920   2.733   2.965   5.803  1.2189 -1.9285  1.0268
16835TIP3    H271921   2.661   2.886   5.696 -0.2976 -1.6140  1.8052
16836TIP3   OH271922   4.149   6.296   5.105 -0.3162  0.1242 -0.2850
16836TIP3    H171923   4.186   6.334   5.185 -2.7781  0.6985  0.6227
16836TIP3    H271924   4.220   6.242   5.069  1.9781  2.5590  0.4269
16837TIP3   OH271925   0.693   0.919  13.393  0.0632 -0.4781 -0.6001
16837TIP3    H171926   0.656   0.891  13.310  0.3710 -2.3349 -0.1348
16837TIP3    H271927   0.628   0.894  13.459  0.3581 -0.1238 -0.1661
16838TIP3   OH271928   3.130   4.933   5.121  0.6857 -0.3021 -0.0373
16838TIP3    H171929   3.151   4.847   5.086  1.1019 -0.0297 -0.4644
16838TIP3    H271930   3.064   4.968   5.061  1.3548  0.1404 -0.5220
16839TIP3   OH271931   2.500   5.915  15.327 -0.3089  0.1481 -1.2075
16839TIP3    H171932   2.579   5.968  15.335 -0.0217  0.0405 -3.1697
16839TIP3    H271933   2.507   5.850  15.398 -0.1342  1.9988  0.5199
16840TIP3   OH271934   4.006   4.882  10.594  0.2003 -0.1687  0.5356
16840TIP3    H171935   3.933   4.829  10.563  0.8581 -0.5360 -0.4141
16840TIP3    H271936   3.965   4.958  10.634 -0.6786  0.3075 -1.2294
16841TIP3   OH271937   5.495   0.091   0.254  1.0469  0.4180 -0.4563
16841TIP3    H171938   5.463   0.181   0.263  0.4954  0.3259 -1.3604
16841TIP3    H271939   5.587   0.100   0.231  0.7422  0.7972 -1.5943
16842TIP3   OH271940   1.421   4.002  14.115  0.0068  0.1950  0.4875
16842TIP3    H171941   1.392   3.978  14.203  1.1271 -1.1651  0.5034
16842TIP3    H271942   1.404   4.096  14.109 -1.9859 -0.0821  1.4022
16843TIP3   OH271943   2.377   5.124  15.019 -0.1913  0.2218 -0.5884
16843TIP3    H171944   2.368   5.105  14.926 -0.8993  0.6696 -0.6123
16843TIP3    H271945   2.296   5.169  15.043  0.1361  0.4243  0.1642
16844TIP3   OH271946   6.473   2.526   5.099 -0.2916 -0.2300  0.1287
16844TIP3    H171947   6.554   2.487   5.133  0.1410  1.1843  0.8045
16844TIP3    H271948   6.433   2.458   5.046  1.4025 -0.9281 -0.2810
16845TIP3   OH271949   3.543   1.912  13.570  0.0468 -0.3608  0.5941
16845TIP3    H171950   3.534   1.977  13.501 -0.4724 -0.6779  0.3658
16845TIP3    H271951   3.523   1.960  13.651 -0.0824 -0.1773  0.4524
16846TIP3   OH271952   3.022   6.310   3.125 -0.2053 -0.4548 -0.6155
16846TIP3    H171953   3.090   6.324   3.059  2.3137  5.4840  2.7717
16846TIP3    H271954   2.964   6.386   3.116  1.0373  1.3618  4.6247
16847TIP3   OH271955   3.084   2.002   0.992 -0.1374 -0.4622  0.3794
16847TIP3    H171956   3.093   2.029   1.083  0.4055  0.7334 -0.0231
16847TIP3    H271957   2.990   1.986   0.981 -0.6307  2.2325  0.3622
16848TIP3   OH271958   0.822   4.308   3.013 -0.1149 -0.3830 -0.2681
16848TIP3    H171959   0.846   4.268   2.930  0.1656  2.4779 -1.6309
16848TIP3    H271960   0.906   4.336   3.051 -0.5161  1.4967 -0.7316
16849TIP3   OH271961   0.851   3.935   3.709  0.3431  0.0087 -0.1963
16849TIP3    H171962   0.934   3.920   3.754 -0.6628  1.5081  2.2375
16849TIP3    H271963   0.804   3.852   3.717  0.5847 -0.0482  0.6490
16850TIP3   OH271964   3.871   2.803   4.796  0.1307  0.2011 -0.2685
16850TIP3    H171965   3.815   2.729   4.820 -1.3325  1.3574  0.0012
16850TIP3    H271966   3.910   2.832   4.879 -0.5335  0.6950 -0.1192
16851TIP3   OH271967   1.398   5.316  10.710  0.2657  0.5816  0.0832
16851TIP3    H171968   1.436   5.228  10.711  0.8270  0.8204  0.2218
16851TIP3    H271969   1.430   5.357  10.790  0.6648  1.1807 -0.3733
16852TIP3   OH271970   3.186   5.168   4.438 -0.3437  0.2027  0.0779
16852TIP3    H171971   3.181   5.145   4.345 -1.6051  0.1192  0.1515
16852TIP3    H271972   3.193   5.263   4.439  0.9652  0.1197 -0.1266
16853TIP3   OH271973   1.077   3.888  11.839  0.1690 -0.3864 -0.1189
16853TIP3    H171974   1.080   3.956  11.772 -1.6740  0.4384  0.5875
16853TIP3    H271975   1.127   3.924  11.912  0.6102 -0.5042 -0.3602
16854TIP3   OH271976   3.858   4.030   1.623  0.1419  0.1718  0.3383
16854TIP3    H171977   3.816   4.073   1.548 -0.4812  0.9633  1.1252
16854TIP3    H271978   3.822   3.941   1.623 -1.0075  0.6195  0.5625
16855TIP3   OH271979   3.716   3.949  16.262  0.3284 -0.2118 -0.0482
16855TIP3    H171980   3.676   3.991  16.338  0.5102 -0.9822  0.4764
16855TIP3    H271981   3.654   3.880  16.237 -0.6867  1.3084 -1.8119
16856TIP3   OH271982   6.713   3.588   4.499  0.4004  0.4722  0.2454
16856TIP3    H171983   6.622   3.559   4.501 -0.2276  2.3400 -0.9447
16856TIP3    H271984   6.712   3.673   4.542  1.7300  0.1783  0.8946
16857TIP3   OH271985   1.867   6.630  11.600 -0.5377 -0.0752  0.3079
16857TIP3    H171986   1.914   6.713  11.593  0.6614 -0.5272  2.5170
16857TIP3    H271987   1.930   6.571  11.643 -1.7057 -1.8452 -0.3934
16858TIP3   OH271988   3.365   4.602   5.922 -0.0524 -0.4217  0.4168
16858TIP3    H171989   3.339   4.668   5.986 -2.4789 -0.7573 -0.1712
16858TIP3    H271990   3.368   4.521   5.971 -1.0210 -0.5233  0.3279
16859TIP3   OH271991   5.262   0.917  14.283  0.1749  0.7208 -0.0447
16859TIP3    H171992   5.274   0.877  14.369  0.9781  1.8236  0.3719
16859TIP3    H271993   5.331   0.878  14.229 -1.7038 -1.6420 -0.8264
16860TIP3   OH271994   0.920   3.726  16.597  0.1790  0.5958 -0.0019
16860TIP3    H171995   0.944   3.809  16.556  1.6150  0.2477  0.0817
16860TIP3    H271996   1.002   3.695  16.637 -0.9098  0.3361  2.0994
16861TIP3   OH271997   5.462   0.550   5.056  0.0273 -0.0391 -0.0571
16861TIP3    H171998   5.457   0.558   5.151 -0.0779 -0.0823 -0.0587
16861TIP3    H271999   5.475   0.639   5.024  0.2599 -0.0465  0.0100
16862TIP3   OH272000   5.365   2.010  12.110  0.8249 -0.0007  0.1629
16862TIP3    H172001   5.335   2.081  12.168  2.0730  1.0521 -0.4581
16862TIP3    H272002   5.401   2.055  12.034 -0.1589 -1.3660 -1.1381
16863TIP3   OH272003   1.610   1.494  11.508 -0.0058  0.0086 -0.0917
16863TIP3    H172004   1.596   1.586  11.531 -0.0120  0.1666 -0.7185
16863TIP3    H272005   1.596   1.447  11.590 -3.5421  0.2334 -0.4660
16864TIP3   OH272006   5.237   0.141  16.446 -0.1279 -0.6732 -0.6613
16864TIP3    H172007   5.279   0.152  16.361  0.1766  1.4376 -0.2764
16864TIP3    H272008   5.186   0.222  16.458  2.8077  0.7914  2.7550
16865TIP3   OH272009   2.887   4.244   2.316  0.1849 -0.3373  0.0290
16865TIP3    H172010   2.897   4.339   2.312 -0.3195 -0.3634 -2.1401
16865TIP3    H272011   2.852   4.219   2.230 -1.6283 -2.2551  1.2631
16866TIP3   OH272012   0.828   5.948  10.783  0.5818 -0.2509  0.1764
16866TIP3    H172013   0.853   5.952  10.691 -4.0824  0.1392 -1.1932
16866TIP3    H272014   0.826   5.855  10.803 -1.7208 -0.5393 -1.1944
16867TIP3   OH272015   6.583   2.392   2.450  0.4157  0.2669 -0.2508
16867TIP3    H172016   6.643   2.357   2.385 -0.7967  1.4228 -2.0193
16867TIP3    H272017   6.604   2.486   2.454 -0.3570  0.4293  0.1268
16868TIP3   OH272018   6.369   5.392   3.700  0.8938 -0.2550 -0.4466
16868TIP3    H172019   6.297   5.331   3.717  0.7824 -0.3185 -1.1389
16868TIP3    H272020   6.401   5.368   3.613 -0.1677  1.6782 -1.3879
16869TIP3   OH272021   4.681   1.425  13.662  0.4835 -0.5222  0.5380
16869TIP3    H172022   4.726   1.340  13.659 -0.0038 -0.8093  1.0863
16869TIP3    H272023   4.702   1.466  13.579  0.6135 -1.2476  0.2042
16870TIP3   OH272024   1.010   2.173  15.496 -0.0292 -0.6179  0.1668
16870TIP3    H172025   0.933   2.195  15.445 -0.4176  0.6657  1.2580
16870TIP3    H272026   1.004   2.229  15.573  1.5311 -1.1421  0.6916
16871TIP3   OH272027   0.429   1.213  16.387  0.0456  0.0953  0.4012
16871TIP3    H172028   0.463   1.282  16.443  1.2377  0.1053 -0.2992
16871TIP3    H272029   0.396   1.147  16.448  1.0525  0.2350  1.1161
16872TIP3   OH272030   0.953   6.518   5.199 -0.0114  0.1644 -0.2008
16872TIP3    H172031   0.899   6.440   5.213  1.3344 -1.0445 -1.5752
16872TIP3    H272032   0.889   6.589   5.188 -1.2249 -0.5470  2.0185
16873TIP3   OH272033   6.737   4.399  14.019  0.0973  0.1873  0.0699
16873TIP3    H172034   6.790   4.473  13.992 -0.4597  0.7091  0.3751
16873TIP3    H272035   6.791   4.322  14.002  0.4683  0.6279 -0.7545
16874TIP3   OH272036   4.430   2.694   4.036 -0.3468  0.3773 -0.0346
16874TIP3    H172037   4.454   2.778   3.996  0.2298  1.1616  1.8637
16874TIP3    H272038   4.487   2.687   4.113 -0.6913 -1.5620  0.0711
16875TIP3   OH272039   3.578   4.948   1.576 -0.2046 -0.4944 -0.2006
16875TIP3    H172040   3.591   4.991   1.492 -0.5034 -2.3219 -1.2112
16875TIP3    H272041   3.618   5.007   1.640 -1.3017  1.6203 -1.4323
16876TIP3   OH272042   5.668   6.652   3.497  0.4429 -0.5860  0.3010
16876TIP3    H172043   5.748   6.688   3.459 -2.1314  1.9032 -3.0773
16876TIP3    H272044   5.639   6.717   3.561 -0.0044 -0.4261 -0.0571
16877TIP3   OH272045   2.862   4.395   3.074 -0.1892 -0.3197 -0.0355
16877TIP3    H172046   2.915   4.462   3.116 -0.8625 -0.1383  0.5510
16877TIP3    H272047   2.814   4.354   3.147  0.4852 -1.6855 -0.3382
16878TIP3   OH272048   3.320   2.902   1.406  0.1810 -0.1246  0.0506
16878TIP3    H172049   3.355   2.901   1.495  0.4046 -0.1495 -0.0355
16878TIP3    H272050   3.354   2.822   1.366 -0.3498 -0.3781  0.1051
16879TIP3   OH272051   1.212   0.553  13.199 -0.1235  0.0948  0.0214
16879TIP3    H172052   1.245   0.492  13.264  1.3414  0.2191 -0.5871
16879TIP3    H272053   1.206   0.502  13.118  0.9534  0.7073 -0.4515
16880TIP3   OH272054   1.504   4.325  12.180  0.4989 -0.3754  0.1320
16880TIP3    H172055   1.569   4.284  12.123  0.5046  1.4334 -1.2312
16880TIP3    H272056   1.421   4.314  12.134  0.3582  0.2644  0.2270
16881TIP3   OH272057   4.423   5.324   0.794 -0.5462  0.1236  0.3395
16881TIP3    H172058   4.450   5.318   0.702 -0.1637  3.3720  0.1869
16881TIP3    H272059   4.505   5.312   0.842 -0.4669  0.0959  0.2008
16882TIP3   OH272060   1.517   2.764  13.408 -0.7196 -0.2571  0.8289
16882TIP3    H172061   1.497   2.798  13.321  1.8567 -1.0079 -0.0983
16882TIP3    H272062   1.441   2.788  13.461 -1.7919  1.2658 -1.3205
16883TIP3   OH272063   0.190   1.016   5.844  0.0720  0.2073 -0.2815
16883TIP3    H172064   0.165   0.970   5.924 -2.2732  1.9269  0.0313
16883TIP3    H272065   0.248   1.086   5.874  0.2633  0.0351 -0.2480
16884TIP3   OH272066   6.716   2.315  11.279  0.1940  0.1362 -0.0033
16884TIP3    H172067   6.741   2.271  11.361  0.3687  1.1876  0.5222
16884TIP3    H272068   6.799   2.349  11.244  0.0283  0.2670 -0.2716
16885TIP3   OH272069   0.437   6.675   3.446  0.0705  0.3042  0.1299
16885TIP3    H172070   0.403   6.599   3.493  2.8550 -0.7840  0.4753
16885TIP3    H272071   0.420   6.655   3.354 -0.4357 -0.0940  0.3063
16886TIP3   OH272072   1.263   3.267  11.696 -0.1171  0.3793 -0.0831
16886TIP3    H172073   1.254   3.172  11.688 -0.8117  0.3038  1.4243
16886TIP3    H272074   1.355   3.280  11.720 -0.2122  0.0376  0.4637
16887TIP3   OH272075   0.661   2.320  14.292 -0.4047 -0.1268 -0.1018
16887TIP3    H172076   0.723   2.266  14.243 -0.7377  0.3355 -1.0550
16887TIP3    H272077   0.715   2.382  14.341 -0.0876 -0.0070 -0.5971
16888TIP3   OH272078   6.096   0.370  10.999  0.3743 -0.0212  0.3216
16888TIP3    H172079   6.158   0.335  10.935  1.6662  0.4454  1.2796
16888TIP3    H272080   6.075   0.295  11.055  0.6214 -0.0232  0.4137
16889TIP3   OH272081   5.000   4.751   4.550  0.1808  0.2160 -0.2534
16889TIP3    H172082   5.012   4.661   4.578  1.2987  0.6207  0.5979
16889TIP3    H272083   5.084   4.775   4.511  0.1978  1.1762  0.3596
16890TIP3   OH272084   3.710   3.374  13.949 -0.4421  0.1056  0.1789
16890TIP3    H172085   3.741   3.383  13.858  0.2024  0.6340  0.4481
16890TIP3    H272086   3.628   3.422  13.951 -0.4688  0.0745 -0.1307
16891TIP3   OH272087   3.770   2.256  16.442  0.2878 -0.5256 -0.1994
16891TIP3    H172088   3.777   2.296  16.355  1.2579  1.2912  0.6998
16891TIP3    H272089   3.713   2.315  16.491 -2.3586 -2.8530 -0.3059
16892TIP3   OH272090   6.087   2.036   4.388  0.8330 -0.5624 -0.2127
16892TIP3    H172091   6.129   2.074   4.311  1.0997  0.2693  0.3393
16892TIP3    H272092   6.141   2.066   4.462 -0.7190  0.5228  0.5101
16893TIP3   OH272093   2.413   3.276   0.312 -0.6221  0.4964  0.4644
16893TIP3    H172094   2.472   3.306   0.243 -0.9972 -0.1218 -0.1276
16893TIP3    H272095   2.387   3.356   0.358 -1.2205  1.0249 -0.7867
16894TIP3   OH272096   6.017   5.316   4.096  0.1881 -0.0724  0.5489
16894TIP3    H172097   5.964   5.268   4.033 -0.4262  0.5386  0.5980
16894TIP3    H272098   6.005   5.269   4.178 -0.3566  0.1314  0.5837
16895TIP3   OH272099   0.467   3.318   5.546  0.0471  0.0222 -0.2107
16895TIP3    H172100   0.451   3.228   5.518  1.3429 -0.3396  0.1565
16895TIP3    H272101   0.454   3.370   5.467  1.6333 -0.7658 -1.0220
16896TIP3   OH272102   0.515   2.976   0.023 -0.5053  0.1159 -0.5355
16896TIP3    H172103   0.595   2.964  -0.029 -1.5554 -0.8986 -1.9677
16896TIP3    H272104   0.493   2.887   0.053  1.2171  0.9070  3.4619
16897TIP3   OH272105   0.719   3.542  10.875 -0.2858  0.7403  0.1079
16897TIP3    H172106   0.762   3.488  10.809 -0.5433  0.8352 -0.1347
16897TIP3    H272107   0.675   3.479  10.932  2.8888  0.3895  2.3330
16898TIP3   OH272108   3.327   2.889  16.688 -0.0361 -0.0884  0.1310
16898TIP3    H172109   3.301   2.956  16.624 -0.0340  1.3640  1.6192
16898TIP3    H272110   3.417   2.866  16.664  0.1939  0.9267  0.0043
16899TIP3   OH272111   2.648   0.798  16.549 -0.2977 -0.4074 -0.1400
16899TIP3    H172112   2.565   0.846  16.546  0.0392  0.2759  1.1149
16899TIP3    H272113   2.692   0.832  16.627  1.1499 -0.7983 -0.7804
16900TIP3   OH272114   5.399   2.585   3.881  0.6067  0.0545 -0.2213
16900TIP3    H172115   5.479   2.610   3.835  0.1496  0.2961 -0.8901
16900TIP3    H272116   5.357   2.521   3.823  0.4682 -0.3159  0.2762
16901TIP3   OH272117   4.504   3.852  17.039 -0.0306 -0.3672  0.4424
16901TIP3    H172118   4.553   3.776  17.071 -1.2290 -0.2016  2.7748
16901TIP3    H272119   4.423   3.814  17.003 -0.9764 -0.1588  2.3138
16902TIP3   OH272120   1.739   5.190  13.291  0.0085 -0.0458  0.0428
16902TIP3    H172121   1.760   5.239  13.371 -1.2019  1.0255 -0.2779
16902TIP3    H272122   1.650   5.217  13.269  0.0970 -0.8179 -1.3184
16903TIP3   OH272123   5.234   2.354   0.230  0.5279 -0.0393 -0.3330
16903TIP3    H172124   5.276   2.398   0.304  2.3705 -1.7425 -0.3117
16903TIP3    H272125   5.145   2.336   0.260  1.0605 -0.1438  1.2448
16904TIP3   OH272126   0.171   1.718   1.049 -0.2332  0.3856  0.2345
16904TIP3    H172127   0.202   1.808   1.038 -0.4784  0.4276 -0.1233
16904TIP3    H272128   0.167   1.705   1.144 -0.8517  0.9780  0.2883
16905TIP3   OH272129   3.329   0.123   4.764  0.1522  0.2167 -0.6327
16905TIP3    H172130   3.285   0.097   4.845  0.0632 -0.2717 -0.8368
16905TIP3    H272131   3.341   0.218   4.773  0.5206  0.1018  0.1376
16906TIP3   OH272132   4.146   3.820   1.427 -0.4591 -0.4575  0.4179
16906TIP3    H172133   4.230   3.798   1.387 -0.6743  1.0931 -0.9068
16906TIP3    H272134   4.084   3.759   1.388 -0.5312  0.5515 -1.0488
16907TIP3   OH272135   1.971   2.936  11.699  0.2675 -0.5015 -0.0540
16907TIP3    H172136   1.892   2.934  11.644 -0.6059  0.0896  1.1551
16907TIP3    H272137   2.036   2.981  11.645 -0.8023  0.7225 -0.3530
16908TIP3   OH272138   2.241   0.252   6.039  0.1806  0.2767  0.7542
16908TIP3    H172139   2.175   0.304   5.993 -0.1058 -0.0444  0.8002
16908TIP3    H272140   2.323   0.299   6.024  0.2281 -0.2537 -0.7704
16909TIP3   OH272141   1.047   1.029  15.172  0.6265 -0.3604 -0.3480
16909TIP3    H172142   1.077   0.955  15.119 -0.3137 -0.0578 -1.3088
16909TIP3    H272143   0.964   1.055  15.133  0.6454  0.8137  0.3621
16910TIP3   OH272144   0.030   0.901  14.690  0.8501  0.8102  0.0179
16910TIP3    H172145   0.051   0.831  14.751 -0.6319  1.5065  1.3532
16910TIP3    H272146   0.007   0.976  14.745  2.0701  2.2648 -1.3707
16911TIP3   OH272147   1.099   1.129   3.907  0.6875  0.4393  0.7811
16911TIP3    H172148   1.084   1.193   3.838 -0.2140  0.7966  1.2906
16911TIP3    H272149   1.083   1.177   3.989  0.7523 -0.2275  1.1924
16912TIP3   OH272150   4.104   2.566  14.331  0.6902 -0.3125 -0.1064
16912TIP3    H172151   4.090   2.527  14.245  0.9974 -0.7783  0.0530
16912TIP3    H272152   4.015   2.586  14.362  0.4546 -1.7647  0.2097
16913TIP3   OH272153   3.218   4.950  16.857 -0.5832  0.1548 -0.4048
16913TIP3    H172154   3.194   4.933  16.766 -0.7097  1.2398 -0.5841
16913TIP3    H272155   3.312   4.932  16.862 -0.5030  0.4393 -0.8430
16914TIP3   OH272156   2.453   0.330   0.387  0.1060 -0.0882 -0.2233
16914TIP3    H172157   2.406   0.282   0.318  1.4436  0.2569 -1.3890
16914TIP3    H272158   2.526   0.273   0.410  0.3311  0.3274  0.1004
16915TIP3   OH272159   4.894   3.120  14.703 -0.1622  0.7324 -0.2998
16915TIP3    H172160   4.841   3.052  14.663  3.0640 -2.2734  0.3281
16915TIP3    H272161   4.957   3.145  14.635 -0.1271  1.7553  0.0971
16916TIP3   OH272162   6.125   1.051  13.432 -0.0927 -0.1558  0.7301
16916TIP3    H172163   6.108   1.077  13.342 -1.2578 -1.1766  0.6419
16916TIP3    H272164   6.196   1.108  13.461 -0.5904  1.0605 -0.4134
16917TIP3   OH272165   2.909   0.657  17.079 -0.4835  0.0756 -0.6999
16917TIP3    H172166   2.882   0.601  17.152  1.5336  0.1695  0.1787
16917TIP3    H272167   2.985   0.612  17.041  0.0309  1.2806 -1.1269
16918TIP3   OH272168   2.878   3.185  13.770 -0.0873 -0.2165 -0.4584
16918TIP3    H172169   2.922   3.100  13.772  0.2047 -0.0589 -0.1105
16918TIP3    H272170   2.949   3.248  13.757 -0.1663  0.0620  0.3998
16919TIP3   OH272171   4.641   3.324   1.130  0.4463 -0.6875  0.1591
16919TIP3    H172172   4.699   3.286   1.064  1.6160  0.3454  0.5801
16919TIP3    H272173   4.553   3.298   1.103  1.0528 -1.6216 -0.9100
16920TIP3   OH272174   5.708   1.696  13.118  0.2157  0.1691  0.1608
16920TIP3    H172175   5.636   1.744  13.160 -0.2723 -0.4310  0.0190
16920TIP3    H272176   5.689   1.702  13.024 -0.6082 -1.4690  0.2060
16921TIP3   OH272177   4.749   1.744  16.578  0.4173  0.7958  0.3019
16921TIP3    H172178   4.742   1.800  16.500 -0.7448  1.3235  0.7625
16921TIP3    H272179   4.669   1.763  16.627 -0.0599 -1.4072  0.3989
16922TIP3   OH272180   6.353   5.645  17.080  0.0156  0.3234 -0.5196
16922TIP3    H172181   6.412   5.720  17.078  1.3999 -0.6425  2.3345
16922TIP3    H272182   6.320   5.642  17.170 -2.7386 -0.4588 -1.4766
16923TIP3   OH272183   3.521   3.730  11.954 -0.5467  0.2406  0.5572
16923TIP3    H172184   3.460   3.731  12.028 -0.8273 -0.3419  0.3392
16923TIP3    H272185   3.505   3.812  11.908 -0.1939  0.7223  1.2826
16924TIP3   OH272186   5.775   0.351  12.200  0.1713  0.1022  0.1439
16924TIP3    H172187   5.795   0.445  12.201  0.9787 -0.0671  0.1767
16924TIP3    H272188   5.798   0.321  12.288  0.4423 -0.2359 -0.0427
16925TIP3   OH272189   3.826   0.323   2.364 -0.4576  0.3972 -0.2980
16925TIP3    H172190   3.865   0.303   2.279 -0.7436  1.0566 -0.5822
16925TIP3    H272191   3.898   0.309   2.427 -0.4037 -0.6416 -0.5819
16926TIP3   OH272192   2.364   4.333  17.076 -0.0565 -0.6503  0.4982
16926TIP3    H172193   2.313   4.409  17.103 -0.1960 -1.1956  1.7832
16926TIP3    H272194   2.409   4.362  16.996 -2.1919 -0.0819 -0.5520
16927TIP3   OH272195   0.941   4.592   0.206 -0.2229 -0.6695  0.3153
16927TIP3    H172196   0.978   4.668   0.251  0.5914 -0.8225 -0.0736
16927TIP3    H272197   0.996   4.519   0.235 -0.5965 -1.0020  0.1890
16928TIP3   OH272198   0.651   2.674   3.752 -0.1915 -0.0627  0.2022
16928TIP3    H172199   0.587   2.678   3.680  0.6412 -1.2096 -0.6272
16928TIP3    H272200   0.733   2.704   3.713  0.0628  0.1836  0.9214
16929TIP3   OH272201   1.354   1.503  15.401  0.4997  0.2198  0.4655
16929TIP3    H172202   1.420   1.572  15.401  0.7962 -0.0671 -0.0399
16929TIP3    H272203   1.319   1.503  15.312 -1.4607  1.6066  1.1971
16930TIP3   OH272204   5.915   2.852   0.446 -0.7112  0.3210 -0.4792
16930TIP3    H172205   5.977   2.874   0.376 -0.9419 -0.7169 -1.0121
16930TIP3    H272206   5.874   2.936   0.467  0.7338  0.9973 -0.2365
16931TIP3   OH272207   0.826   3.044  13.192 -0.3346 -0.5672 -0.6591
16931TIP3    H172208   0.748   3.085  13.230 -0.3023  2.1164 -3.2560
16931TIP3    H272209   0.821   3.067  13.099  2.9791 -1.3379 -1.0731
16932TIP3   OH272210   5.714   2.091  13.581 -0.4470  0.1508  0.0534
16932TIP3    H172211   5.767   2.011  13.581 -1.0947 -0.3143 -2.5503
16932TIP3    H272212   5.659   2.083  13.659 -0.0766 -1.6501  0.1488
16933TIP3   OH272213   2.122   4.675  12.510 -0.1157 -0.5540  0.1106
16933TIP3    H172214   2.136   4.769  12.523  0.4041 -0.9913  2.9842
16933TIP3    H272215   2.028   4.667  12.493  0.2077  0.6897 -2.6482
16934TIP3   OH272216   4.428   5.067  10.719 -0.1723 -0.3479 -0.2253
16934TIP3    H172217   4.464   4.987  10.682 -0.3874  0.5484 -2.4688
16934TIP3    H272218   4.504   5.121  10.739 -0.0761 -0.6120  0.1236
16935TIP3   OH272219   2.762   5.120   2.315 -0.0868  0.2617  0.1040
16935TIP3    H172220   2.750   5.074   2.398 -1.1566  0.5680  0.1287
16935TIP3    H272221   2.852   5.153   2.319  0.9529 -2.4127 -0.2286
16936TIP3   OH272222   3.622   1.766   6.018  0.4378 -0.3773  0.3965
16936TIP3    H172223   3.677   1.798   5.947  0.3823 -1.8516 -0.3331
16936TIP3    H272224   3.664   1.685   6.046 -0.6557 -0.8523  0.6957
16937TIP3   OH272225   4.930   3.092  11.621 -0.2405 -0.2533  0.2610
16937TIP3    H172226   4.913   3.180  11.655  0.8714  0.0648  0.0308
16937TIP3    H272227   5.011   3.102  11.570  0.2195 -1.5385  0.7293
16938TIP3   OH272228   1.914   6.080  17.094  0.3890 -0.4884  0.3121
16938TIP3    H172229   1.894   6.164  17.051  0.8719 -0.7488 -0.4258
16938TIP3    H272230   1.991   6.047  17.048  0.1808 -1.3638  0.5832
16939TIP3   OH272231   5.831   3.597   1.821 -0.0531  0.2026  0.0488
16939TIP3    H172232   5.808   3.505   1.833  1.2805 -0.2496 -0.7108
16939TIP3    H272233   5.898   3.614   1.887  0.5839  0.2788 -0.6027
16940TIP3   OH272234   6.624   0.767   1.307 -0.3165  0.2982  0.2507
16940TIP3    H172235   6.556   0.781   1.241  0.7557  1.3657 -0.6455
16940TIP3    H272236   6.635   0.672   1.309  0.4057  0.3164 -1.9179
16941TIP3   OH272237   5.383   5.224   1.429  0.2031 -0.5639 -0.5493
16941TIP3    H172238   5.321   5.259   1.365 -0.5632 -0.8049  0.0479
16941TIP3    H272239   5.453   5.289   1.434  0.2272 -0.5141 -1.5760
16942TIP3   OH272240   5.289   1.056   5.499  0.0764 -0.7053  0.2976
16942TIP3    H172241   5.232   1.129   5.477  1.5282 -0.1699 -1.8572
16942TIP3    H272242   5.377   1.088   5.481  0.7567 -2.9032 -0.5299
16943TIP3   OH272243   6.560   2.312  13.253 -0.3062 -0.3345 -0.0736
16943TIP3    H172244   6.604   2.393  13.229  0.1528 -0.6839 -0.4301
16943TIP3    H272245   6.468   2.327  13.232  0.0503 -0.5463 -1.8317
16944TIP3   OH272246   6.582   1.660  16.929  0.4671 -0.7759  0.3566
16944TIP3    H172247   6.553   1.639  16.840  0.6618  0.1652  0.0671
16944TIP3    H272248   6.660   1.605  16.943 -0.5333 -2.1611  0.5725
16945TIP3   OH272249   3.457   4.291   6.634 -0.9344  0.0457  0.1793
16945TIP3    H172250   3.454   4.351   6.708 -0.1275 -1.1035  1.1685
16945TIP3    H272251   3.550   4.285   6.611 -0.9797 -0.9681  0.2176
16946TIP3   OH272252   4.029   0.327  13.192 -0.3271  0.1495  0.0530
16946TIP3    H172253   3.994   0.330  13.281  0.5788  1.9810  0.3757
16946TIP3    H272254   4.081   0.247  13.190  0.1134  0.3872  1.3602
16947TIP3   OH272255   1.442   6.283  12.689  0.0099 -0.4719  0.3672
16947TIP3    H172256   1.348   6.264  12.687 -0.1818  0.3818  0.9675
16947TIP3    H272257   1.471   6.249  12.773 -0.3740  2.0183  1.5321
16948TIP3   OH272258   5.785   6.496  16.439 -0.4322 -0.6339 -0.0904
16948TIP3    H172259   5.790   6.533  16.527 -0.7362  0.4816 -0.5345
16948TIP3    H272260   5.822   6.408  16.448 -0.6964 -0.6281  1.2001
16949TIP3   OH272261   5.617   3.107  12.937 -0.3553  0.4250  0.6668
16949TIP3    H172262   5.537   3.123  12.888  0.0554 -1.5027 -0.6909
16949TIP3    H272263   5.656   3.030  12.895  3.0026  2.2313  0.2646
16950TIP3   OH272264   3.379   0.321  15.285  0.0749 -0.2307  0.3941
16950TIP3    H172265   3.314   0.386  15.260 -0.1797 -1.2267 -1.6611
16950TIP3    H272266   3.401   0.342  15.376 -1.2350  1.6639  0.2987
16951TIP3   OH272267   3.521   5.837  11.321 -0.3126  0.1097  0.3385
16951TIP3    H172268   3.617   5.836  11.311 -0.3302  1.8776 -0.2808
16951TIP3    H272269   3.489   5.776  11.255  0.3044  1.0735 -0.8740
16952TIP3   OH272270   0.603   3.869   4.400 -0.0292  0.2999 -0.0945
16952TIP3    H172271   0.532   3.812   4.370  0.4979 -0.2648 -0.2785
16952TIP3    H272272   0.657   3.813   4.456  1.6973  0.0043 -2.0096
16953TIP3   OH272273   0.905   3.227  12.555 -0.2251  0.1733  0.2478
16953TIP3    H172274   0.973   3.164  12.579  0.2990  0.6270 -0.0517
16953TIP3    H272275   0.853   3.182  12.489  2.3578  1.3942 -2.7091
16954TIP3   OH272276   3.815   1.382   5.723  0.0921  0.1530  0.4193
16954TIP3    H172277   3.904   1.353   5.702  0.2236  0.9671 -0.1837
16954TIP3    H272278   3.803   1.357   5.815  0.9521  0.0704  0.5187
16955TIP3   OH272279   6.301   2.749  13.765 -0.0034  0.0207  0.0572
16955TIP3    H172280   6.381   2.791  13.734  1.0618 -2.3178 -0.5243
16955TIP3    H272281   6.323   2.718  13.853 -0.6279  0.3438  0.3265
16956TIP3   OH272282   6.176   6.171   1.148  0.3288  0.5175  0.3439
16956TIP3    H172283   6.133   6.168   1.063  1.3457  0.9819 -0.2038
16956TIP3    H272284   6.216   6.084   1.157 -0.8443  0.0291  0.9293
16957TIP3   OH272285   1.238   3.766  14.006 -0.1035  0.2848 -0.1828
16957TIP3    H172286   1.176   3.695  13.986  1.4257 -1.7184  1.9421
16957TIP3    H272287   1.298   3.728  14.070  1.2441  3.2917  0.4137
16958TIP3   OH272288   1.767   6.047   0.482  0.1359  0.0766  0.1186
16958TIP3    H172289   1.830   6.119   0.477 -0.8893  0.8288 -2.6620
16958TIP3    H272290   1.771   6.005   0.396 -1.9685 -0.8763  0.4505
16959TIP3   OH272291   2.239   1.302   0.963 -0.4184  0.5982 -0.3827
16959TIP3    H172292   2.167   1.327   0.904 -0.5151 -1.3759 -1.1117
16959TIP3    H272293   2.244   1.207   0.957  1.1039  0.5622  1.0399
16960TIP3   OH272294   1.617   0.593   2.636  0.6869 -0.1626  0.3215
16960TIP3    H172295   1.712   0.603   2.637  0.5148  1.3798  1.4078
16960TIP3    H272296   1.590   0.612   2.726 -0.8752  1.6879 -0.5205
16961TIP3   OH272297   0.106   3.423  12.285  0.7833 -0.6386  0.1799
16961TIP3    H172298   0.062   3.482  12.224  0.7232 -1.5832 -0.6997
16961TIP3    H272299   0.183   3.392  12.238  0.5271 -1.6727  0.4374
16962TIP3   OH272300   5.250   1.616   5.156  0.5089 -0.1855  0.3938
16962TIP3    H172301   5.253   1.694   5.211  1.5470  0.0456  0.0175
16962TIP3    H272302   5.337   1.611   5.117 -0.0404 -0.6689 -0.7783
16963TIP3   OH272303   6.093   4.722   2.232 -0.3741  0.5018  0.3691
16963TIP3    H172304   6.144   4.757   2.305  0.6824 -0.1743 -0.0317
16963TIP3    H272305   6.150   4.657   2.191 -0.3372  1.9550 -2.0175
16964TIP3   OH272306   5.348   5.770  15.739  0.4549 -0.3033 -0.2810
16964TIP3    H172307   5.259   5.737  15.737  0.3208 -0.0204  1.0417
16964TIP3    H272308   5.339   5.864  15.756  1.0182 -0.3218  0.1237
16965TIP3   OH272309   4.223   6.110   3.012 -0.0526  0.4068  0.1288
16965TIP3    H172310   4.202   6.039   3.073 -0.2122  1.7709  1.6979
16965TIP3    H272311   4.307   6.084   2.974 -0.0878 -0.5954  0.7158
16966TIP3   OH272312   1.713   4.133   6.617 -0.0280 -0.2487  0.4885
16966TIP3    H172313   1.806   4.150   6.601  0.3018 -0.1973  2.4168
16966TIP3    H272314   1.676   4.220   6.633 -0.5408 -0.2028 -0.8984
16967TIP3   OH272315   1.598   0.993   5.327 -0.1417  0.3783 -0.4794
16967TIP3    H172316   1.587   0.918   5.268  1.1946 -0.6102  0.4998
16967TIP3    H272317   1.530   0.982   5.393  0.7037 -0.5471  0.2445
16968TIP3   OH272318   6.246   0.043   1.563 -0.0992  0.1457  0.1120
16968TIP3    H172319   6.308   0.092   1.508 -0.6433 -0.1694 -0.7957
16968TIP3    H272320   6.161   0.082   1.543 -0.3222 -0.0801  0.6191
16969TIP3   OH272321   3.531   3.777   3.758 -0.3921 -0.3988 -0.3143
16969TIP3    H172322   3.543   3.682   3.753  1.5367 -0.2548  1.2067
16969TIP3    H272323   3.571   3.802   3.841  0.4121  1.9523 -1.3768
16970TIP3   OH272324   1.190   4.722   2.825  0.2984  0.1854  0.3098
16970TIP3    H172325   1.213   4.631   2.807 -4.6321 -0.9350 -1.0239
16970TIP3    H272326   1.177   4.761   2.738  0.7023  1.7088  0.9050
16971TIP3   OH272327   4.245   5.465  10.839 -0.1645 -0.5530  0.2212
16971TIP3    H172328   4.276   5.553  10.863  0.9143 -1.1267  0.9287
16971TIP3    H272329   4.162   5.456  10.886  0.7616 -0.7342  1.8370
16972TIP3   OH272330   2.266   3.077  11.480  0.0431  0.4157  0.2909
16972TIP3    H172331   2.180   3.120  11.474  0.5688  1.5438  0.7883
16972TIP3    H272332   2.257   2.999  11.425 -1.4923  0.2059  0.8002
16973TIP3   OH272333   1.168   5.547  11.202 -0.0597  0.1803  0.6202
16973TIP3    H172334   1.263   5.549  11.193 -0.1277 -0.4128 -0.2360
16973TIP3    H272335   1.153   5.511  11.290  0.5082  0.9246  1.0323
16974TIP3   OH272336   0.912   0.990   5.171  0.3220 -0.3760  0.2258
16974TIP3    H172337   0.867   1.052   5.229 -0.2642 -1.7567  1.2720
16974TIP3    H272338   0.843   0.958   5.113  0.7059  0.2588 -0.5798
16975TIP3   OH272339   1.172   3.678  16.685  0.0491  0.0619 -0.7384
16975TIP3    H172340   1.178   3.774  16.693 -2.7792  0.0375  4.0141
16975TIP3    H272341   1.248   3.645  16.732  0.2188 -0.0162 -1.0703
16976TIP3   OH272342   1.677   2.270   4.931 -0.1984 -0.3056  0.5145
16976TIP3    H172343   1.759   2.320   4.924 -0.5870  0.0414 -1.9798
16976TIP3    H272344   1.695   2.187   4.889 -1.4733  0.2355 -1.1468
16977TIP3   OH272345   6.151   2.153  12.954 -0.0503 -0.1030 -0.0436
16977TIP3    H172346   6.075   2.126  13.006 -0.9148  1.3182 -0.5495
16977TIP3    H272347   6.152   2.092  12.880 -0.6292 -0.1872  0.0128
16978TIP3   OH272348   0.894   3.702  11.041 -0.3635 -0.0111  0.4301
16978TIP3    H172349   0.844   3.765  11.094 -1.3678 -0.5411  0.1411
16978TIP3    H272350   0.826   3.651  10.996  0.4350 -1.6250  1.0425
16979TIP3   OH272351   0.009   5.253  12.062 -0.5612  0.0190 -0.2768
16979TIP3    H172352  -0.076   5.266  12.105 -0.0704  1.4458  0.2851
16979TIP3    H272353  -0.010   5.263  11.969 -0.5044  3.3626  0.0235
16980TIP3   OH272354   5.510   0.547   2.873 -0.2295 -0.2831  0.0886
16980TIP3    H172355   5.505   0.642   2.865  1.1624 -0.0385  1.9505
16980TIP3    H272356   5.478   0.515   2.788  0.4558  1.8400 -1.0193
16981TIP3   OH272357   2.308   2.810  17.085  0.1012 -0.3743 -0.2537
16981TIP3    H172358   2.371   2.868  17.128 -1.5993 -0.4187  2.4236
16981TIP3    H272359   2.257   2.867  17.028  1.7773 -0.1491 -1.5589
16982TIP3   OH272360   4.621   6.445   4.724  0.1168  0.1380 -0.0118
16982TIP3    H172361   4.698   6.426   4.778 -1.6939 -2.9050  1.6452
16982TIP3    H272362   4.571   6.363   4.723 -3.0344  1.9568 -1.1455
16983TIP3   OH272363   4.922   5.908   5.249  0.3241  0.0409  0.7077
16983TIP3    H172364   4.911   5.847   5.176 -0.8021 -0.4793  1.3148
16983TIP3    H272365   4.969   5.858   5.316 -0.6459 -0.1834  1.2253
16984TIP3   OH272366   4.068   5.932  16.285  0.3332 -0.2730 -0.0660
16984TIP3    H172367   4.011   5.944  16.361 -0.9658 -2.5673 -0.6384
16984TIP3    H272368   4.008   5.932  16.210  0.9332 -3.4472 -0.6243
16985TIP3   OH272369   3.958   0.604   4.144 -0.1915  0.3721 -0.1725
16985TIP3    H172370   3.990   0.589   4.232 -0.7381  2.9622  0.5216
16985TIP3    H272371   3.864   0.587   4.149 -0.2257  0.5326 -0.2530
16986TIP3   OH272372   1.028   1.408   2.610 -0.3676  0.2343  0.7577
16986TIP3    H172373   1.121   1.429   2.604 -1.1865  3.7171 -1.1541
16986TIP3    H272374   1.002   1.390   2.520 -2.1194  2.2963  0.8030
16987TIP3   OH272375   5.848   4.431   4.435  0.4708  0.0176 -0.0105
16987TIP3    H172376   5.926   4.377   4.421  0.8375  0.5555 -0.0478
16987TIP3    H272377   5.795   4.381   4.498  0.7725 -0.4177 -0.0995
16988TIP3   OH272378   6.268   2.363   1.795 -0.2956  0.2471  0.3709
16988TIP3    H172379   6.278   2.453   1.764  1.1197 -0.4120 -1.1623
16988TIP3    H272380   6.319   2.360   1.876  1.0866  0.4031 -0.4695
16989TIP3   OH272381   0.403   5.205  13.517 -0.2248 -0.2566 -0.1359
16989TIP3    H172382   0.391   5.112  13.501 -1.5613 -0.3227  1.1426
16989TIP3    H272383   0.333   5.229  13.578  1.2693  1.1566  1.1050
16990TIP3   OH272384   3.907   2.743   5.614  0.3404 -0.1500 -0.1739
16990TIP3    H172385   3.908   2.836   5.589 -0.3808 -0.2170 -0.4525
16990TIP3    H272386   3.820   2.729   5.651  0.1785 -0.9010 -0.8294
16991TIP3   OH272387   2.475   1.760  13.694 -0.0817 -0.1840 -0.6707
16991TIP3    H172388   2.393   1.726  13.730  0.0023 -0.3728 -0.6542
16991TIP3    H272389   2.458   1.769  13.600  0.5681 -2.3368 -1.0308
16992TIP3   OH272390   1.592   5.232   0.222  0.2667 -0.4715 -0.2578
16992TIP3    H172391   1.661   5.281   0.266  0.4298  0.3834 -1.4475
16992TIP3    H272392   1.510   5.271   0.254  0.3492 -1.0611  0.6664
16993TIP3   OH272393   1.960   2.785   4.326 -0.0777 -0.4422  0.1310
16993TIP3    H172394   1.897   2.843   4.369  0.7139 -0.1288  0.8853
16993TIP3    H272395   1.927   2.697   4.344  0.5531 -0.3322  1.8798
16994TIP3   OH272396   2.736   2.536   2.003  0.6352 -0.0571  0.2272
16994TIP3    H172397   2.755   2.623   1.970  0.2809 -0.5024 -1.1740
16994TIP3    H272398   2.694   2.491   1.930  2.6209 -2.0445  0.2497
16995TIP3   OH272399   4.125   1.023  15.289 -0.2955 -0.4200  0.4972
16995TIP3    H172400   4.157   0.964  15.357 -0.9863 -0.0842  1.1168
16995TIP3    H272401   4.030   1.008  15.287 -0.2133 -0.8111 -0.7546
16996TIP3   OH272402   1.146   5.385  15.902 -0.3510 -0.8730 -0.2944
16996TIP3    H172403   1.215   5.361  15.839 -0.7508 -2.3279 -0.1912
16996TIP3    H272404   1.190   5.384  15.987  0.1667  0.9982 -0.5113
16997TIP3   OH272405   6.080   3.580  15.017  0.2732 -0.1285 -0.9613
16997TIP3    H172406   6.158   3.551  14.969  0.0114 -0.3961 -1.2211
16997TIP3    H272407   6.113   3.605  15.103  0.5503 -0.8531 -0.8545
16998TIP3   OH272408   1.039   3.033  13.674 -0.0710 -0.0913 -0.2040
16998TIP3    H172409   1.012   3.123  13.690  0.1959 -0.1330  0.4723
16998TIP3    H272410   0.957   2.983  13.671 -0.2096  0.1495 -0.4532
16999TIP3   OH272411   6.103   1.336  10.943  0.6771  0.3122  0.4375
16999TIP3    H172412   6.169   1.347  11.011 -0.6507 -0.2399  1.8556
16999TIP3    H272413   6.055   1.419  10.942  0.7738  0.3665  0.0752
17000TIP3   OH272414   1.597   0.527   1.690 -0.3805  0.3433 -0.4126
17000TIP3    H172415   1.554   0.601   1.733  0.3870  0.0177  0.9619
17000TIP3    H272416   1.527   0.464   1.675 -0.5236  0.0609  1.2767
17001TIP3   OH272417   5.661   6.063   1.000  0.3023  0.2703  0.4713
17001TIP3    H172418   5.737   6.122   1.001  2.0746 -1.9514  0.0014
17001TIP3    H272419   5.645   6.045   0.908  0.6654 -1.0855  0.6637
17002TIP3   OH272420   0.198   4.741  13.263 -0.2927 -0.3181 -0.3272
17002TIP3    H172421   0.138   4.807  13.230 -0.4652 -0.5799 -0.5407
17002TIP3    H272422   0.260   4.728  13.191 -0.3776 -0.5346 -0.3602
17003TIP3   OH272423   2.037   0.704   0.583 -0.0705  0.4500 -0.0121
17003TIP3    H172424   2.086   0.785   0.569  0.2945  0.1569 -0.4647
17003TIP3    H272425   1.996   0.714   0.669 -0.0694  1.1338 -0.0902
17004TIP3   OH272426   6.021   4.498   1.714  0.1357 -0.0598  0.1167
17004TIP3    H172427   5.972   4.498   1.796  1.1261 -0.9357  0.7213
17004TIP3    H272428   6.079   4.574   1.721 -0.0817  0.1145  0.0412
17005TIP3   OH272429   2.250   3.069   0.379 -0.1012  0.7810  0.2533
17005TIP3    H172430   2.312   3.038   0.445 -0.1883  1.0632  0.4658
17005TIP3    H272431   2.297   3.136   0.331  0.6547 -0.8031 -1.2670
17006TIP3   OH272432   2.749   6.765  13.501  0.5708 -0.0798 -0.2934
17006TIP3    H172433   2.818   6.820  13.464  0.7249  1.1261  1.7376
17006TIP3    H272434   2.710   6.818  13.570 -0.9392 -1.5939  0.0491
17007TIP3   OH272435   2.305   1.927  11.835  0.0743  0.1196  0.1736
17007TIP3    H172436   2.375   1.890  11.888  1.4466  1.3125 -0.7754
17007TIP3    H272437   2.251   1.977  11.896  0.4349 -0.2400  0.7825
17008TIP3   OH272438   5.245   0.868   4.110  0.3333  0.2125  0.3083
17008TIP3    H172439   5.202   0.937   4.161  0.2253  0.6040 -0.3160
17008TIP3    H272440   5.190   0.857   4.033  1.0583  0.3157 -0.2193
17009TIP3   OH272441   1.879   2.418  11.009  0.1725  0.3638 -0.0857
17009TIP3    H172442   1.899   2.430  11.102  2.7303 -0.8668 -0.4318
17009TIP3    H272443   1.965   2.412  10.967 -0.9602 -2.0308 -2.1323
17010TIP3   OH272444   2.584   1.127  15.595 -0.2481  0.2247  0.3500
17010TIP3    H172445   2.661   1.126  15.652 -0.1888 -0.5387  0.2635
17010TIP3    H272446   2.567   1.219  15.579  2.2023  0.3937 -1.6737
17011TIP3   OH272447   1.295   5.169   5.565 -0.6051  0.4193 -0.6841
17011TIP3    H172448   1.204   5.195   5.583 -1.0735 -2.5551  1.7574
17011TIP3    H272449   1.348   5.230   5.616 -1.3760  0.3827  0.1668
17012TIP3   OH272450   1.227   5.694   1.277 -0.1635 -0.4991  0.1384
17012TIP3    H172451   1.273   5.699   1.193 -1.6937 -0.5510 -0.7137
17012TIP3    H272452   1.297   5.696   1.343  0.9894  0.5433 -1.0957
17013TIP3   OH272453   4.367   1.133  13.428 -0.6092  0.0557  0.5873
17013TIP3    H172454   4.414   1.215  13.421  0.2861 -0.5428 -0.4981
17013TIP3    H272455   4.331   1.118  13.341 -0.7683 -0.6935  0.7803
17014TIP3   OH272456   1.413   5.492   1.010  0.3263 -0.6488  0.3269
17014TIP3    H172457   1.331   5.473   1.055 -0.0069  3.2501  1.5704
17014TIP3    H272458   1.390   5.494   0.917 -0.7702 -0.6062  0.5970
17015TIP3   OH272459   0.808   3.781   1.632 -0.8303  0.0596 -0.1820
17015TIP3    H172460   0.884   3.727   1.610 -2.3561 -1.4787 -1.8698
17015TIP3    H272461   0.846   3.864   1.662  1.5188 -0.8550 -0.4838
17016TIP3   OH272462   6.055   2.657   2.009  0.0135 -0.3934  0.0937
17016TIP3    H172463   6.001   2.607   1.948 -0.2212 -1.3338  1.0708
17016TIP3    H272464   6.062   2.602   2.086 -0.1540  1.0308  1.1431
17017TIP3   OH272465   0.592   3.338   4.432 -0.2317 -0.1462  0.2318
17017TIP3    H172466   0.630   3.394   4.365  0.0009  0.7435  1.0872
17017TIP3    H272467   0.500   3.328   4.406  0.0311 -0.4359 -0.6101
17018TIP3   OH272468   2.395   1.905  17.225 -0.2444  0.2010  0.4882
17018TIP3    H172469   2.398   1.949  17.310 -2.2483  0.0191  0.6729
17018TIP3    H272470   2.382   1.976  17.162  2.2724  0.4560  0.1790
17019TIP3   OH272471   6.738   0.552   4.612  0.1110 -0.4096  0.2741
17019TIP3    H172472   6.739   0.467   4.568 -2.4396 -1.0195  1.3499
17019TIP3    H272473   6.826   0.560   4.650  1.3870 -1.1800 -2.3819
17020TIP3   OH272474   2.251   5.040   1.142  0.3007 -0.4814 -0.6445
17020TIP3    H172475   2.343   5.067   1.135  0.5411 -1.1057 -0.0341
17020TIP3    H272476   2.256   4.945   1.154 -0.4113 -0.4633 -0.1991
17021TIP3   OH272477   1.558   4.926   5.633 -0.0916  0.5423  0.1289
17021TIP3    H172478   1.533   4.979   5.709 -1.0690 -2.4180  1.9552
17021TIP3    H272479   1.488   4.862   5.624  1.1987 -0.6474 -1.7924
17022TIP3   OH272480   1.298   3.077  13.827  0.2615 -0.1595  0.2382
17022TIP3    H172481   1.321   3.166  13.853  0.4272  0.3122 -1.4348
17022TIP3    H272482   1.212   3.085  13.786 -0.4098 -1.0225  1.4600
17023TIP3   OH272483   4.601   3.835   3.739 -0.0394  0.2273  0.3224
17023TIP3    H172484   4.539   3.818   3.668 -0.6984  0.7380  0.7720
17023TIP3    H272485   4.551   3.882   3.805  0.6775  0.1317  0.9520
17024TIP3   OH272486   6.084   2.039  12.681  0.6144 -0.2070 -0.0868
17024TIP3    H172487   6.025   2.035  12.606  1.1039 -0.7769 -0.4460
17024TIP3    H272488   6.121   1.951  12.688 -0.4957 -0.5693  1.7122
17025TIP3   OH272489   5.140   2.729   0.765  0.0391 -0.0649  0.9487
17025TIP3    H172490   5.152   2.723   0.670  0.9225  1.4191  0.9431
17025TIP3    H272491   5.229   2.737   0.800 -0.3483  0.6522  1.7899
17026TIP3   OH272492   1.510   4.610   2.883  0.3697  0.1792  0.2539
17026TIP3    H172493   1.574   4.579   2.947  1.9193 -1.0168 -1.8259
17026TIP3    H272494   1.459   4.532   2.861 -0.5761  0.7232  0.4857
17027TIP3   OH272495   2.842   4.228   2.865  0.0374  0.4254  0.3877
17027TIP3    H172496   2.848   4.304   2.922 -0.0272  2.1286 -1.8302
17027TIP3    H272497   2.808   4.262   2.782 -0.3261 -2.0679 -0.5460
17028TIP3   OH272498   2.574   6.088  12.656  0.1315  0.5742  0.3260
17028TIP3    H172499   2.637   6.049  12.716 -2.2081 -1.2391  1.6820
17028TIP3    H272500   2.553   6.173  12.695  0.9046  0.7367  0.4091
17029TIP3   OH272501   0.759   0.606   3.073 -0.1650  0.7410  0.4283
17029TIP3    H172502   0.829   0.670   3.065  0.2100  0.1049 -1.8895
17029TIP3    H272503   0.706   0.619   2.995 -0.5206 -1.2334  0.3126
17030TIP3   OH272504   6.248   5.232   3.376 -0.3457  0.8383 -0.0840
17030TIP3    H172505   6.343   5.248   3.379 -0.2993  0.4237  0.9584
17030TIP3    H272506   6.209   5.318   3.389 -0.1106  0.8735  0.4001
17031TIP3   OH272507   4.500   2.434   0.380 -0.2080  0.0914  0.0014
17031TIP3    H172508   4.482   2.380   0.303 -1.6231 -0.7839  0.9262
17031TIP3    H272509   4.417   2.439   0.426 -0.6427  4.7270 -1.0491
17032TIP3   OH272510   0.633   5.430  15.185  0.0432  0.3518  0.5855
17032TIP3    H172511   0.612   5.520  15.210  3.5989  1.8465 -1.4781
17032TIP3    H272512   0.548   5.390  15.166 -1.6258  3.1473  1.8669
17033TIP3   OH272513   2.353   6.723  11.155 -0.0498 -0.1104 -0.7090
17033TIP3    H172514   2.267   6.738  11.193 -0.2887 -1.3855 -0.7197
17033TIP3    H272515   2.402   6.804  11.172 -1.0927  0.4338 -0.2867
17034TIP3   OH272516   4.092   0.337   4.011  0.3948  0.3811  1.0932
17034TIP3    H172517   4.012   0.390   4.016  0.6117  0.7860  0.4154
17034TIP3    H272518   4.064   0.255   3.971  0.2367  0.3617  1.2448
17035TIP3   OH272519   1.963   4.371  11.622  0.3070  0.3707 -0.4725
17035TIP3    H172520   2.009   4.447  11.656 -0.7963  0.9244 -0.1866
17035TIP3    H272521   1.923   4.401  11.540 -0.7492  0.3256  0.0180
17036TIP3   OH272522   5.628   3.206   5.797 -0.4030  0.2281 -0.4776
17036TIP3    H172523   5.657   3.197   5.888 -0.5777  0.6812 -0.3805
17036TIP3    H272524   5.533   3.205   5.802 -0.4127  0.1898 -0.6654
17037TIP3   OH272525   4.312   2.756  14.953  0.2792 -0.3442  0.0950
17037TIP3    H172526   4.384   2.736  14.894  0.3998 -0.7245  0.3693
17037TIP3    H272527   4.282   2.843  14.926 -0.5850 -1.0991 -1.4461
17038TIP3   OH272528   5.886   4.061   1.270  0.0163  0.5212  0.3589
17038TIP3    H172529   5.916   4.133   1.214  0.2615 -0.3177 -0.6180
17038TIP3    H272530   5.879   4.099   1.357  1.6196  1.3454  0.1474
17039TIP3   OH272531   3.297   6.385   1.761  0.6012 -0.3133  0.4781
17039TIP3    H172532   3.386   6.364   1.732  0.2674 -1.4667  0.2714
17039TIP3    H272533   3.297   6.362   1.854 -0.1803 -2.6490 -0.0651
17040TIP3   OH272534   3.493   3.816   6.317 -0.5114  0.2038 -0.4010
17040TIP3    H172535   3.434   3.879   6.361 -0.0123  0.8761 -0.6795
17040TIP3    H272536   3.435   3.746   6.288 -1.2329  1.0060 -0.9435
17041TIP3   OH272537   0.859   3.457   6.173  0.7006  0.2059  0.2832
17041TIP3    H172538   0.793   3.522   6.199 -1.4487 -1.8185  0.0307
17041TIP3    H272539   0.871   3.404   6.252  0.4336 -0.7440 -0.3151
17042TIP3   OH272540   4.852   5.504   3.709  1.1611 -0.1261  0.2778
17042TIP3    H172541   4.893   5.442   3.770 -0.5276 -1.9585 -0.3684
17042TIP3    H272542   4.858   5.462   3.624 -2.1768 -0.6138  0.1901
17043TIP3   OH272543   1.916   1.732  15.980 -0.3714  0.2930  0.1298
17043TIP3    H172544   1.865   1.718  15.901 -0.0318 -1.3581  0.1693
17043TIP3    H272545   1.898   1.655  16.034  1.0165  0.3900  0.7580
17044TIP3   OH272546   0.513   6.475   2.190  0.1930  0.2387  0.1155
17044TIP3    H172547   0.520   6.396   2.136 -0.3370 -0.8073  1.5353
17044TIP3    H272548   0.575   6.461   2.262 -0.2414  0.9027  0.6287
17045TIP3   OH272549   6.485   6.349  11.104  0.1349 -0.0318  0.3861
17045TIP3    H172550   6.443   6.321  11.023 -0.3220 -1.0246  0.9664
17045TIP3    H272551   6.458   6.441  11.114  0.6224  0.2546 -0.8513
17046TIP3   OH272552   6.160   4.932   1.064  0.2130  0.5773  0.1022
17046TIP3    H172553   6.156   4.839   1.042 -0.4902  0.3997  0.9382
17046TIP3    H272554   6.106   4.975   0.998 -0.3910  0.2587  0.3800
17047TIP3   OH272555   0.636   6.503   2.955 -0.0910  0.1507 -0.1801
17047TIP3    H172556   0.558   6.535   2.910  0.7547  0.4490 -1.4616
17047TIP3    H272557   0.647   6.413   2.922  1.7876  1.1087 -2.3228
17048TIP3   OH272558   2.729   5.757   1.410 -0.2398 -0.1035 -0.0639
17048TIP3    H172559   2.637   5.775   1.430  0.0014  0.6465  0.3704
17048TIP3    H272560   2.726   5.708   1.328 -1.2064 -2.5830  1.3807
17049TIP3   OH272561   1.230   3.602  16.048 -0.8134  0.3341 -0.1198
17049TIP3    H172562   1.147   3.560  16.069 -0.5990 -0.1891 -0.2989
17049TIP3    H272563   1.279   3.535  15.999  0.1625  0.2279  0.9698
17050TIP3   OH272564   6.748   6.008   4.731 -0.1922 -0.5237 -0.2675
17050TIP3    H172565   6.841   6.029   4.734 -0.3756  0.2121  0.4919
17050TIP3    H272566   6.705   6.085   4.768 -0.9129 -2.0225  2.1651
17051TIP3   OH272567   5.469   1.436  13.215 -0.6791  0.2392  0.7596
17051TIP3    H172568   5.375   1.445  13.201 -0.4265  1.6706 -0.0680
17051TIP3    H272569   5.509   1.457  13.131  0.4517  0.9484  1.4516
17052TIP3   OH272570   1.615   3.844  15.009  0.6628  0.4831 -0.0530
17052TIP3    H172571   1.685   3.791  15.047  0.2971  1.8260  2.5709
17052TIP3    H272572   1.535   3.794  15.025  0.8901 -0.7137 -2.4244
17053TIP3   OH272573   1.796   3.337  11.336 -0.0376  0.0363  0.6144
17053TIP3    H172574   1.815   3.295  11.251 -0.7963 -1.4082  1.1403
17053TIP3    H272575   1.799   3.431  11.317  3.7796 -0.1305 -0.1745
17054TIP3   OH272576   4.251   2.817   2.855  0.5794  0.1346  0.1325
17054TIP3    H172577   4.236   2.893   2.799 -2.4154  0.5631  1.4301
17054TIP3    H272578   4.243   2.742   2.796  0.4874  0.7024 -0.5814
17055TIP3   OH272579   0.049   1.529   2.570 -0.4818  0.2139  0.5390
17055TIP3    H172580  -0.024   1.588   2.588 -0.4542  0.4889 -0.2579
17055TIP3    H272581   0.100   1.573   2.502 -0.3738 -0.6598  0.0455
17056TIP3   OH272582   4.239   6.118  11.654  0.2016 -0.4628  0.0357
17056TIP3    H172583   4.252   6.024  11.644  0.6341 -0.5031  0.8358
17056TIP3    H272584   4.325   6.156  11.634 -0.1900 -0.1703 -1.0916
17057TIP3   OH272585   6.058   2.355   5.102  0.1884  0.4525  0.6907
17057TIP3    H172586   6.117   2.431   5.099  0.4240  0.3894  2.8159
17057TIP3    H272587   6.109   2.287   5.147  0.8096 -1.7754 -3.1965
17058TIP3   OH272588   2.972   2.282  11.775 -0.0073  0.0022 -0.2281
17058TIP3    H172589   2.958   2.255  11.865  1.8629 -0.4078 -0.0363
17058TIP3    H272590   3.064   2.310  11.772  0.2316 -0.8785 -2.1959
17059TIP3   OH272591   6.123   2.617  15.319 -0.0678  0.4425 -0.0220
17059TIP3    H172592   6.181   2.672  15.371  0.7597 -1.2293  0.8671
17059TIP3    H272593   6.038   2.621  15.363  0.3249 -0.0026  0.7908
17060TIP3   OH272594   1.049   0.208  13.511  0.0947  0.7778  0.2729
17060TIP3    H172595   1.073   0.292  13.548  0.4810  0.2781  1.1629
17060TIP3    H272596   1.021   0.228  13.421  0.9904  1.7397  0.2064
17061TIP3   OH272597   6.639   1.686   3.118 -0.2224  0.0873 -0.6728
17061TIP3    H172598   6.660   1.642   3.201 -0.1824 -0.3104 -0.8923
17061TIP3    H272599   6.581   1.758   3.143  2.1178  1.7432  0.0448
17062TIP3   OH272600   3.518   2.789  12.270 -0.5963  0.1003  0.6966
17062TIP3    H172601   3.489   2.878  12.250  0.5679  0.3334 -0.0199
17062TIP3    H272602   3.597   2.777  12.217  0.4395 -0.6171  2.3532
17063TIP3   OH272603   6.150   4.696  12.723  0.4874  0.6542 -0.1208
17063TIP3    H172604   6.222   4.759  12.712  0.8325 -0.3363 -4.3558
17063TIP3    H272605   6.159   4.636  12.649 -2.6573 -1.6002  1.2094
17064TIP3   OH272606   5.209   5.300  13.208 -0.1111  0.8305 -0.1643
17064TIP3    H172607   5.296   5.265  13.187 -0.5090  0.0872 -0.6286
17064TIP3    H272608   5.219   5.395  13.201  0.9071  0.8060  0.7743
17065TIP3   OH272609   0.707   1.713   0.200  0.0492  0.5421  0.1383
17065TIP3    H172610   0.714   1.680   0.290 -0.1868  0.5471  0.1581
17065TIP3    H272611   0.737   1.640   0.146 -1.7287 -0.1941  0.1071
17066TIP3   OH272612   0.495   1.420  15.716  0.1155 -0.0019 -0.3103
17066TIP3    H172613   0.562   1.411  15.649  0.0867  1.0740 -0.4970
17066TIP3    H272614   0.537   1.392  15.797  1.5656  2.8602  0.0029
17067TIP3   OH272615   0.510   1.844  15.811  0.4155  0.7263 -0.0930
17067TIP3    H172616   0.468   1.877  15.890 -1.7083  0.0627 -0.9094
17067TIP3    H272617   0.489   1.909  15.744  1.6318  0.9371 -0.2814
17068TIP3   OH272618   6.226   6.441   4.099  0.2357  0.4640 -0.1941
17068TIP3    H172619   6.139   6.450   4.059 -0.7593  3.6606  2.4175
17068TIP3    H272620   6.280   6.505   4.054  1.1072 -1.0479 -1.3474
17069TIP3   OH272621   6.629   3.809  13.665 -0.1578  0.1697 -0.0100
17069TIP3    H172622   6.704   3.863  13.639  0.4086 -1.6460 -2.3676
17069TIP3    H272623   6.559   3.837  13.605 -0.5971  0.0190  0.4323
17070TIP3   OH272624   5.499   6.364  11.102 -1.0307 -0.0967  0.9566
17070TIP3    H172625   5.525   6.323  11.020  2.8097  2.1713  0.8966
17070TIP3    H272626   5.548   6.316  11.169 -1.4846  0.2550  1.5465
17071TIP3   OH272627   5.173   3.804   1.844  0.4513 -0.2753  0.2085
17071TIP3    H172628   5.103   3.810   1.908  0.1692  1.1379 -0.2027
17071TIP3    H272629   5.184   3.894   1.812  2.9248 -0.3422  0.7818
17072TIP3   OH272630   4.504   4.107   2.770  0.2152 -0.5461 -0.3607
17072TIP3    H172631   4.433   4.158   2.809 -1.3985 -2.4066 -0.7457
17072TIP3    H272632   4.517   4.034   2.831 -0.9164 -2.3427 -2.1942
17073TIP3   OH272633   5.857   4.437  17.182  0.4222 -0.6235  0.1748
17073TIP3    H172634   5.826   4.491  17.110  0.5870 -1.1747 -0.3095
17073TIP3    H272635   5.950   4.456  17.188  0.2730 -0.0507  0.6980
17074TIP3   OH272636   0.154   1.540   4.878  0.4171  0.3805 -0.0216
17074TIP3    H172637   0.089   1.520   4.810 -0.1376  2.4534 -0.1386
17074TIP3    H272638   0.104   1.537   4.960  0.8528 -1.0398  0.2055
17075TIP3   OH272639   3.204   0.761  12.939 -0.9141 -0.3538 -0.1252
17075TIP3    H172640   3.169   0.784  12.852 -0.7940  0.8223  0.1256
17075TIP3    H272641   3.299   0.761  12.927 -0.7951  1.9111  0.4753
17076TIP3   OH272642   4.918   2.763  15.325 -0.3351 -0.2715  0.4068
17076TIP3    H172643   4.839   2.744  15.376 -0.3536 -1.2407  0.0428
17076TIP3    H272644   4.973   2.815  15.383  0.0566 -2.1687  1.7705
17077TIP3   OH272645   6.124   5.790  14.732 -0.2220 -0.1900 -0.4282
17077TIP3    H172646   6.208   5.819  14.695 -0.3221  1.5664  0.6550
17077TIP3    H272647   6.069   5.868  14.730 -1.5497 -1.1023 -0.2990
17078TIP3   OH272648   1.395   4.898  14.000  0.1040  0.1732 -0.1511
17078TIP3    H172649   1.487   4.913  13.980  0.9370 -2.8987  1.1151
17078TIP3    H272650   1.396   4.848  14.082 -2.7749  2.2237  1.2134
17079TIP3   OH272651   5.380   6.724  17.206 -0.6075  0.5064 -0.1576
17079TIP3    H172652   5.342   6.639  17.227  2.4123 -0.9514 -0.2457
17079TIP3    H272653   5.470   6.718  17.239  0.6288  2.4982 -2.9688
17080TIP3   OH272654   6.690   6.298   5.166 -0.2795  0.1257 -0.1853
17080TIP3    H172655   6.664   6.311   5.258  2.1703 -3.1186  1.0577
17080TIP3    H272656   6.610   6.268   5.123 -0.8223 -1.0066  1.5365
17081TIP3   OH272657   1.585   3.517   2.598 -0.5360  0.3283 -0.2980
17081TIP3    H172658   1.617   3.598   2.558 -1.0518 -0.1670 -1.7165
17081TIP3    H272659   1.493   3.512   2.573 -0.3920 -0.9303 -0.6157
17082TIP3   OH272660   1.464   0.762  12.304  0.5582  0.5015  0.7934
17082TIP3    H172661   1.539   0.708  12.280  0.9590  0.9440  1.0521
17082TIP3    H272662   1.488   0.851  12.278 -1.2257  0.1559 -2.1613
17083TIP3   OH272663   4.380   1.545   0.291  0.3984 -0.2055 -0.4170
17083TIP3    H172664   4.318   1.510   0.356  0.1618  0.4148 -0.3066
17083TIP3    H272665   4.446   1.476   0.282  1.1727  0.2395  1.4880
17084TIP3   OH272666   4.014   0.777   1.262 -0.1371  0.0262  0.4553
17084TIP3    H172667   4.086   0.817   1.211 -0.5277  0.7008  0.4249
17084TIP3    H272668   4.051   0.764   1.349  0.0161  0.4261  0.4551
17085TIP3   OH272669   4.264   1.476  15.054 -0.4021 -0.4665  0.4008
17085TIP3    H172670   4.335   1.505  15.112 -0.2225 -0.8958  0.3980
17085TIP3    H272671   4.191   1.460  15.113 -0.3666 -0.4335  0.4552
17086TIP3   OH272672   3.649   6.524   0.438 -0.0624 -0.0877  0.2316
17086TIP3    H172673   3.642   6.545   0.531 -0.2240  1.1645 -0.0669
17086TIP3    H272674   3.690   6.437   0.437 -1.4071 -0.7562  1.5100
17087TIP3   OH272675   3.041   6.103   5.280 -0.2836  0.0458 -0.6770
17087TIP3    H172676   3.081   6.018   5.296 -1.4307 -0.6429 -1.4199
17087TIP3    H272677   2.991   6.121   5.360 -0.3846 -0.1778 -0.6893
17088TIP3   OH272678   3.560   3.731  13.803 -0.0617  0.2535  0.1678
17088TIP3    H172679   3.646   3.745  13.843  0.3955  0.7203 -0.9418
17088TIP3    H272680   3.577   3.734  13.708 -1.5668  2.1066 -0.0760
17089TIP3   OH272681   4.628   6.768   1.408  0.0985  0.2020  0.0509
17089TIP3    H172682   4.579   6.793   1.486 -3.3880 -0.8406 -1.7129
17089TIP3    H272683   4.636   6.849   1.357 -2.4223 -0.1898 -1.0153
17090TIP3   OH272684   5.000   3.781   2.583 -0.1991 -0.6495 -0.6153
17090TIP3    H172685   4.998   3.798   2.677  1.3493  1.6491 -0.9516
17090TIP3    H272686   5.082   3.821   2.554  0.2296 -2.9185 -2.6656
17091TIP3   OH272687   4.341   4.528   3.867 -0.4789  0.1911 -0.3954
17091TIP3    H172688   4.428   4.567   3.860 -0.1469 -0.6361 -0.8270
17091TIP3    H272689   4.338   4.490   3.955 -0.6026  0.6856 -0.1816
17092TIP3   OH272690   1.746   5.258  11.774 -0.0866 -0.5662  0.4414
17092TIP3    H172691   1.792   5.269  11.858 -1.4140  0.2281  1.0793
17092TIP3    H272692   1.815   5.267  11.708  0.4745  1.9502  1.3321
17093TIP3   OH272693   2.610   4.698  17.147 -0.4002 -0.0488  0.5502
17093TIP3    H172694   2.676   4.744  17.199  1.1092  0.0478 -1.4011
17093TIP3    H272695   2.580   4.762  17.083  2.5533 -2.0073 -2.9445
17094TIP3   OH272696   2.488   2.130  12.567 -0.6431  0.4538  0.2664
17094TIP3    H172697   2.569   2.090  12.598 -0.7333  0.0409 -0.0305
17094TIP3    H272698   2.419   2.072  12.598 -0.8757  1.1654  1.1083
17095TIP3   OH272699   3.615   6.311   6.594 -0.0627  0.1804  0.2121
17095TIP3    H172700   3.586   6.401   6.578  1.1413  0.1642 -2.1485
17095TIP3    H272701   3.556   6.257   6.541 -0.3427 -0.4046  1.0954
17096TIP3   OH272702   5.101   0.387   0.968 -0.6609  0.0827 -0.1287
17096TIP3    H172703   5.042   0.331   0.918 -0.5619  0.9344 -1.2078
17096TIP3    H272704   5.106   0.345   1.054  0.5647 -2.3794 -1.3579
17097TIP3   OH272705   3.779   1.086   0.665 -0.0183 -0.2312  0.0510
17097TIP3    H172706   3.766   1.078   0.571  1.3302 -2.7772  0.0256
17097TIP3    H272707   3.806   1.177   0.678 -1.5223  0.5021 -1.8362
17098TIP3   OH272708   3.402   3.423  12.666  0.0862  0.2622  0.3341
17098TIP3    H172709   3.462   3.393  12.734  2.0600  1.8009 -0.6803
17098TIP3    H272710   3.396   3.348  12.606  0.4958 -0.1220  0.7598
17099TIP3   OH272711   0.961   6.519   1.353 -0.0247  0.5620 -0.2025
17099TIP3    H172712   0.969   6.476   1.438 -0.3201 -0.9030 -0.9052
17099TIP3    H272713   0.916   6.601   1.372 -1.4267 -0.4266  0.8585
17100TIP3   OH272714   6.260   2.475  14.834 -0.0036  0.3723  0.6869
17100TIP3    H172715   6.293   2.561  14.809 -0.3758  0.6383  1.0907
17100TIP3    H272716   6.337   2.425  14.861  0.0749  0.9732  1.5889
17101TIP3   OH272717   0.445   4.239   4.015  0.3065  0.0574 -0.3511
17101TIP3    H172718   0.482   4.264   4.100  0.2319 -0.3468 -0.2009
17101TIP3    H272719   0.419   4.323   3.975 -2.0741  0.0843  1.1470
17102TIP3   OH272720   4.829   0.501   1.020 -0.2771  0.7588 -0.0680
17102TIP3    H172721   4.917   0.532   1.039 -0.7072  1.2937  1.1518
17102TIP3    H272722   4.800   0.554   0.946 -1.0574  3.4581  2.0759
17103TIP3   OH272723   4.047   6.530   1.212  0.5738 -0.0480 -0.2044
17103TIP3    H172724   4.081   6.585   1.141  0.6358 -1.2404 -1.1078
17103TIP3    H272725   4.051   6.586   1.289  2.7246  0.5117 -0.6791
17104TIP3   OH272726   0.412   4.699  11.377  0.1414 -0.2274  0.2771
17104TIP3    H172727   0.330   4.656  11.401  0.1972 -0.5887 -0.1618
17104TIP3    H272728   0.409   4.703  11.281  1.1889 -1.3370  0.2027
17105TIP3   OH272729   1.648   5.934  11.763  0.0350  0.4950 -0.9791
17105TIP3    H172730   1.663   5.966  11.674 -1.9517  4.4714  0.0227
17105TIP3    H272731   1.554   5.943  11.777  0.1214 -1.3520  1.0768
17106TIP3   OH272732   1.211   0.288  12.512  0.0398 -0.1195 -0.8730
17106TIP3    H172733   1.172   0.376  12.509  2.3632  1.0375  1.0702
17106TIP3    H272734   1.159   0.241  12.576  0.2869  0.6431 -0.0976
17107TIP3   OH272735   1.636   5.030   1.728  0.3053  0.3950  0.1329
17107TIP3    H172736   1.559   4.984   1.759  0.7241  0.4080  1.1912
17107TIP3    H272737   1.632   5.021   1.632 -0.0929 -1.0603  0.2799
17108TIP3   OH272738   6.258   0.006   5.154 -0.2532  0.2031  0.2288
17108TIP3    H172739   6.300   0.017   5.240 -1.6828  2.1303  0.7344
17108TIP3    H272740   6.277   0.087   5.108 -1.0392 -0.0630 -0.5739
17109TIP3   OH272741   0.639   0.966   2.280  0.2924  0.2514 -0.0604
17109TIP3    H172742   0.730   0.993   2.269 -0.0024  0.6037 -1.7506
17109TIP3    H272743   0.644   0.876   2.312  1.2402  1.1423  2.4108
17110TIP3   OH272744   0.451   5.133  15.272  0.2421 -0.1475  0.4250
17110TIP3    H172745   0.542   5.111  15.252 -0.1719 -1.5404  0.0022
17110TIP3    H272746   0.434   5.089  15.355  0.0888  0.4777  0.7252
17111TIP3   OH272747   3.975   0.859   3.050 -0.1701 -0.1383 -0.8470
17111TIP3    H172748   3.975   0.872   2.955  0.3713 -2.1241 -1.1431
17111TIP3    H272749   3.995   0.766   3.061  2.3664  0.6112  1.2752
17112TIP3   OH272750   2.748   5.414   1.863  0.3761 -0.3470  0.3816
17112TIP3    H172751   2.675   5.366   1.825 -0.5462  1.6017 -0.3673
17112TIP3    H272752   2.727   5.420   1.956 -1.5141  2.0155 -0.1455
17113TIP3   OH272753   1.136   3.132   2.465  0.1783  0.2178  0.5090
17113TIP3    H172754   1.211   3.121   2.523  0.6351  1.3739  0.1444
17113TIP3    H272755   1.105   3.221   2.482  0.8008  0.8725 -1.5681
17114TIP3   OH272756   3.708   1.640  14.403 -0.4205 -0.6272  0.2431
17114TIP3    H172757   3.785   1.695  14.417 -0.5458 -0.6445  1.0107
17114TIP3    H272758   3.656   1.651  14.483 -0.6272 -1.5734  0.2404
17115TIP3   OH272759   0.226   4.081   5.801 -0.1106  0.5547 -0.1634
17115TIP3    H172760   0.242   4.022   5.727  0.3472 -0.9780  1.1156
17115TIP3    H272761   0.130   4.086   5.806 -0.1418  1.3720 -1.3890
17116TIP3   OH272762   3.399   4.804   0.847  0.2788 -0.6599 -0.3964
17116TIP3    H172763   3.338   4.732   0.833  0.7358 -1.0714 -0.2934
17116TIP3    H272764   3.482   4.773   0.811  0.7490 -0.6105  0.6177
17117TIP3   OH272765   6.504   3.082  14.948  0.3372 -0.8309 -0.1645
17117TIP3    H172766   6.586   3.033  14.946  1.4926  1.0152  0.2704
17117TIP3    H272767   6.511   3.142  14.873 -0.6941 -0.8050 -0.2438
17118TIP3   OH272768   0.013   4.824  14.619 -0.3782  0.6252 -0.6337
17118TIP3    H172769   0.098   4.843  14.660 -1.5238 -0.0416  2.1128
17118TIP3    H272770   0.035   4.762  14.549  1.1192 -1.6637  1.7528
17119TIP3   OH272771   5.987   4.568   5.916 -0.2693  0.2130  0.3447
17119TIP3    H172772   5.974   4.538   6.005 -0.6713  0.5141  0.3902
17119TIP3    H272773   6.074   4.610   5.917 -0.7549  1.2322  0.8749
17120TIP3   OH272774   1.269   6.484   4.928  0.5551  0.3480  0.0487
17120TIP3    H172775   1.176   6.464   4.917  0.4272  0.5369  0.8077
17120TIP3    H272776   1.312   6.429   4.862 -0.2028  1.4413 -1.3947
17121TIP3   OH272777   4.533   4.929  14.749 -0.2272  0.1092  0.4539
17121TIP3    H172778   4.557   4.932  14.841  2.2872  0.1992 -0.1710
17121TIP3    H272779   4.536   5.020  14.720  3.4219 -0.3380 -0.7657
17122TIP3   OH272780   6.622   2.193  13.494  0.4032  0.0253  0.2728
17122TIP3    H172781   6.708   2.153  13.500 -0.7617 -2.8572 -0.9905
17122TIP3    H272782   6.628   2.251  13.418  0.8040 -1.3740 -0.7918
17123TIP3   OH272783   1.913   0.137  16.967 -0.9400 -0.3544  0.0976
17123TIP3    H172784   1.853   0.073  17.004  0.7375 -0.8489  2.0601
17123TIP3    H272785   1.899   0.132  16.873 -1.8950 -2.5095  0.3365
17124TIP3   OH272786   3.512   3.596  16.882  0.2710  0.2506  0.2230
17124TIP3    H172787   3.448   3.608  16.811  1.7103  1.3948 -0.8947
17124TIP3    H272788   3.474   3.642  16.956 -0.6530  0.1234 -0.1612
17125TIP3   OH272789   3.821   1.903  11.713 -0.1423  0.3672  0.1714
17125TIP3    H172790   3.866   1.967  11.769  0.3192 -1.8929  2.4848
17125TIP3    H272791   3.740   1.883  11.759  0.6222 -2.1437  0.5411
17126TIP3   OH272792   5.134   2.398  12.677 -0.1274  0.3192  0.5179
17126TIP3    H172793   5.179   2.454  12.614 -0.4958 -1.3462 -1.3056
17126TIP3    H272794   5.100   2.457  12.743  0.0361  2.1568 -1.0128
17127TIP3   OH272795   0.058   5.225   5.424  0.0473 -0.3678 -0.1351
17127TIP3    H172796   0.004   5.204   5.348 -0.0350  2.3084 -0.8615
17127TIP3    H272797   0.088   5.315   5.409 -0.3444  0.4119  3.1806
17128TIP3   OH272798   0.495   5.214   5.441  0.5096  0.3740 -0.3262
17128TIP3    H172799   0.427   5.158   5.480  0.7877 -0.4725 -1.0268
17128TIP3    H272800   0.471   5.221   5.348  0.5902  1.2579 -0.2853
17129TIP3   OH272801   5.885   4.459   0.368  0.2746 -0.4897 -0.7099
17129TIP3    H172802   5.804   4.508   0.359 -1.0164 -2.0604  1.8097
17129TIP3    H272803   5.891   4.409   0.286 -2.8392 -2.5164  0.1949
17130TIP3   OH272804   3.453   4.635   5.222 -0.0669  0.3444  0.3847
17130TIP3    H172805   3.540   4.595   5.222 -0.5393 -0.6901 -0.0596
17130TIP3    H272806   3.394   4.566   5.191 -0.9803  1.1877  0.2099
17131TIP3   OH272807   0.123   3.428  16.349 -0.3856  0.0158 -0.6112
17131TIP3    H172808   0.089   3.371  16.280  0.5382  0.7278 -1.6778
17131TIP3    H272809   0.213   3.398  16.362 -0.8120 -0.6531  0.8827
17132TIP3   OH272810   3.521   2.921  15.977  0.3383 -0.5630  0.1280
17132TIP3    H172811   3.594   2.865  15.952  0.6874  0.8741 -2.1606
17132TIP3    H272812   3.443   2.872  15.952  0.5701 -1.1912  0.6344
17133TIP3   OH272813   2.996   4.743   5.397 -0.3186 -0.0173  0.0283
17133TIP3    H172814   2.936   4.690   5.345 -0.0402 -0.9901  0.6695
17133TIP3    H272815   3.002   4.697   5.481  1.6025 -0.1532 -0.1458
17134TIP3   OH272816   0.113   4.795  17.026 -0.3846  0.3688 -0.3327
17134TIP3    H172817   0.048   4.731  17.055  1.3425 -0.6361  1.4275
17134TIP3    H272818   0.065   4.878  17.024 -2.8624 -1.0518 -3.4411
17135TIP3   OH272819   6.593   0.523   0.826 -0.0197 -0.0602 -0.1826
17135TIP3    H172820   6.682   0.539   0.793  0.5838 -1.0988  0.9034
17135TIP3    H272821   6.547   0.606   0.812  0.9690  0.3296 -1.2268
17136TIP3   OH272822   4.113   1.270   0.250  0.1159  0.3948 -0.0427
17136TIP3    H172823   4.125   1.353   0.204 -2.6727  0.2868 -1.0476
17136TIP3    H272824   4.030   1.280   0.296 -0.4010 -1.9178 -0.3986
17137TIP3   OH272825   5.691   6.618   3.005  0.0589 -0.2245  0.0051
17137TIP3    H172826   5.787   6.628   3.003 -0.3086  3.8962 -0.3866
17137TIP3    H272827   5.662   6.678   3.074 -2.1513 -3.1342  1.7528
17138TIP3   OH272828   4.133   5.847  11.934 -0.4318  0.1585  0.5361
17138TIP3    H172829   4.097   5.930  11.906 -1.8764 -1.3273 -2.2093
17138TIP3    H272830   4.177   5.812  11.856 -2.1263 -2.8384  0.8540
17139TIP3   OH272831   3.951   1.575  11.861  0.2073  0.2509  0.1016
17139TIP3    H172832   3.901   1.592  11.941  0.0492  0.7936 -0.1071
17139TIP3    H272833   3.960   1.480  11.858  2.0183  0.3254  1.8489
17140TIP3   OH272834   4.377   4.751  14.579  0.0808 -0.6250  0.4400
17140TIP3    H172835   4.352   4.803  14.503  1.8997 -0.1527  0.1471
17140TIP3    H272836   4.440   4.805  14.626  0.4504 -1.7089  1.2299
17141TIP3   OH272837   1.650   3.609   6.110  0.1153  0.3996 -0.3211
17141TIP3    H172838   1.610   3.658   6.038  0.4912  1.6363  0.2832
17141TIP3    H272839   1.736   3.585   6.078 -0.8049 -1.5840 -1.3377
17142TIP3   OH272840   2.699   0.697   5.643  0.4107 -0.4942 -0.2491
17142TIP3    H172841   2.727   0.683   5.734  1.8976 -0.6825 -0.7123
17142TIP3    H272842   2.609   0.728   5.650  0.5076 -0.5064  1.2944
17143TIP3   OH272843   5.162   4.436   5.064  0.0060 -0.0866  0.0558
17143TIP3    H172844   5.136   4.349   5.032 -0.5173  0.3779 -0.7786
17143TIP3    H272845   5.150   4.494   4.989  1.2928  0.5389  0.3302
17144TIP3   OH272846   4.549   0.880  14.542  0.2420 -0.1696  0.0306
17144TIP3    H172847   4.623   0.885  14.602 -0.3941  2.6585  0.6483
17144TIP3    H272848   4.480   0.930  14.584 -1.8766 -2.3061 -0.8003
17145TIP3   OH272849   1.917   3.629  13.318 -0.9179  0.3972 -0.1148
17145TIP3    H172850   1.870   3.646  13.400 -0.6184  1.8786 -0.2443
17145TIP3    H272851   1.850   3.638  13.250 -0.6733  1.5505 -0.2188
17146TIP3   OH272852   1.782   5.045   5.979 -0.3587 -0.2038  0.1868
17146TIP3    H172853   1.792   4.959   6.020  2.4236 -0.0663 -0.1234
17146TIP3    H272854   1.706   5.084   6.023 -1.0721 -2.4295  0.9761
17147TIP3   OH272855   5.008   1.261   6.609 -0.1098 -0.4823  0.0944
17147TIP3    H172856   5.054   1.339   6.640 -0.8118 -0.1138  0.2247
17147TIP3    H272857   5.076   1.194   6.602  0.3550 -0.0883  0.7679
17148TIP3   OH272858   1.045   3.445  12.662  0.0503 -0.0663  0.1920
17148TIP3    H172859   1.059   3.503  12.586 -1.6800  0.2966  0.1343
17148TIP3    H272860   1.004   3.367  12.625 -0.1047 -0.2058  0.6687
17149TIP3   OH272861   0.983   2.832  12.719  0.2377 -0.7316  0.1790
17149TIP3    H172862   1.044   2.758  12.713  0.3764 -0.5852 -0.2165
17149TIP3    H272863   1.035   2.902  12.759  0.0643 -0.8922  0.6887
17150TIP3   OH272864   1.581   5.405   3.001 -0.4714  0.1049 -0.5739
17150TIP3    H172865   1.614   5.403   3.091 -0.0185  0.8899 -0.7178
17150TIP3    H272866   1.577   5.313   2.975 -1.5448 -0.2019  0.5835
17151TIP3   OH272867   6.787   4.840  11.508 -0.4359 -0.0233  0.9874
17151TIP3    H172868   6.776   4.932  11.482 -0.1066 -0.1970  0.2187
17151TIP3    H272869   6.721   4.793  11.456  0.6110 -0.4478  0.0119
17152TIP3   OH272870   3.667   0.550  15.536 -0.3183  0.2470  0.0643
17152TIP3    H172871   3.630   0.592  15.458 -1.8475  2.5008  1.9377
17152TIP3    H272872   3.685   0.622  15.596  0.8866 -1.4438  1.8007
17153TIP3   OH272873   2.015   6.760  16.222 -0.3594  0.1567  0.0091
17153TIP3    H172874   2.056   6.716  16.296  2.9128  2.0734 -0.5494
17153TIP3    H272875   2.076   6.746  16.150 -1.5271  1.7146 -1.3128
17154TIP3   OH272876   0.180   2.891  12.587 -0.5536 -0.0235 -0.2469
17154TIP3    H172877   0.139   2.959  12.641  0.4930  0.1810  0.3127
17154TIP3    H272878   0.193   2.933  12.502 -0.5549  0.2493 -0.1136
17155TIP3   OH272879   2.492   2.732  12.056 -0.2139  0.2956 -1.1187
17155TIP3    H172880   2.446   2.662  12.010 -0.6588  1.4925 -2.5577
17155TIP3    H272881   2.569   2.690  12.093  0.0825 -0.7531 -2.8773
17156TIP3   OH272882   5.866   5.633  14.941  0.0522  0.0322  0.5414
17156TIP3    H172883   5.959   5.618  14.956 -0.4769 -3.1195  1.0904
17156TIP3    H272884   5.840   5.694  15.009  1.1132 -1.4170  2.2988
17157TIP3   OH272885   4.317   6.135  14.101 -0.2894 -0.0573 -0.0221
17157TIP3    H172886   4.404   6.100  14.121  0.5162  2.2866  0.6661
17157TIP3    H272887   4.299   6.197  14.172 -1.5811  1.1129 -1.3559
17158TIP3   OH272888   1.220   0.614   2.871 -0.1943 -0.0359  0.3432
17158TIP3    H172889   1.287   0.615   2.940  0.6792  1.1012 -0.5040
17158TIP3    H272890   1.164   0.690   2.891  0.3757  0.6140 -0.4859
17159TIP3   OH272891   2.921   3.919   1.272 -0.0931  0.1645  0.4613
17159TIP3    H172892   2.894   3.851   1.334 -1.5864 -0.1235 -0.4785
17159TIP3    H272893   2.973   3.980   1.324  1.9604 -2.1161  1.1444
17160TIP3   OH272894   6.051   2.121   3.483  0.3658  0.1202  0.2601
17160TIP3    H172895   6.073   2.048   3.424 -0.6933  0.7134 -0.9050
17160TIP3    H272896   6.004   2.080   3.555 -0.7410 -0.3067 -0.6826
17161TIP3   OH272897   0.456   2.292   3.570 -0.0497 -0.4672  0.1274
17161TIP3    H172898   0.461   2.217   3.511  3.6212 -1.6564  1.7481
17161TIP3    H272899   0.542   2.334   3.563 -0.5186  0.9895  2.5015
17162TIP3   OH272900   4.940   0.718  10.832  0.4896 -0.1534 -0.3619
17162TIP3    H172901   4.892   0.645  10.870 -3.4107  1.9856 -0.9014
17162TIP3    H272902   4.971   0.686  10.747  0.2108 -1.6507  0.0874
17163TIP3   OH272903   2.979   1.954   0.072 -0.2257 -0.2770 -0.1298
17163TIP3    H172904   2.930   1.962   0.154  0.0157  0.5081 -0.0528
17163TIP3    H272905   3.027   1.872   0.080  0.7555  0.3909  1.0418
17164TIP3   OH272906   2.916   3.428   5.861 -0.0973 -0.2390  0.1421
17164TIP3    H172907   2.861   3.349   5.864 -1.8523  0.9897  0.8339
17164TIP3    H272908   2.858   3.499   5.886  1.7691  1.1446  0.6457
17165TIP3   OH272909   3.793   1.653  12.641 -0.7623 -0.4575  0.5818
17165TIP3    H172910   3.755   1.583  12.587 -0.5061  0.2045 -0.4815
17165TIP3    H272911   3.767   1.631  12.730 -0.9874 -1.7203  0.2234
17166TIP3   OH272912   5.056   0.334  16.441  0.1239 -0.4520 -0.1400
17166TIP3    H172913   5.020   0.349  16.353 -0.1860  1.9649  0.3658
17166TIP3    H272914   4.980   0.344  16.499  0.5849 -0.7531  0.5167
17167TIP3   OH272915   6.351   3.018   0.945  0.4180 -0.3729  0.4169
17167TIP3    H172916   6.417   3.002   0.878 -1.2178 -1.1310 -1.0445
17167TIP3    H272917   6.395   3.075   1.008  1.7696  0.9407 -1.6523
17168TIP3   OH272918   0.209   3.003  14.471 -0.3675  0.2027 -0.7931
17168TIP3    H172919   0.155   3.007  14.549  0.1429  1.1949 -0.4742
17168TIP3    H272920   0.270   3.077  14.480 -0.2502  0.2840 -2.0785
17169TIP3   OH272921   4.226   2.938   3.731  0.1135  0.1198 -0.1626
17169TIP3    H172922   4.213   2.947   3.636 -0.8842 -0.4139 -0.0862
17169TIP3    H272923   4.279   2.859   3.740 -0.6930 -0.4394 -0.2289
17170TIP3   OH272924   6.673   1.569   2.881  0.0321  0.1979  0.5154
17170TIP3    H172925   6.651   1.616   2.961 -0.4674  1.1891 -0.2003
17170TIP3    H272926   6.632   1.619   2.811 -0.9186 -1.5580 -0.2299
17171TIP3   OH272927   4.289   4.517   3.304  0.3180 -0.3115  0.2614
17171TIP3    H172928   4.227   4.491   3.235 -0.3838  1.6867  0.1052
17171TIP3    H272929   4.236   4.518   3.384  0.8274 -1.3634  0.6146
17172TIP3   OH272930   2.027   2.354  13.649 -0.0294 -0.4971 -0.0352
17172TIP3    H172931   2.021   2.443  13.615  1.0946 -0.4458 -0.1140
17172TIP3    H272932   1.961   2.304  13.599 -0.6567  0.2766  0.0102
17173TIP3   OH272933   6.441   2.742   0.255 -0.4334 -0.1220  0.3197
17173TIP3    H172934   6.350   2.712   0.265 -0.2003 -0.4248  1.5762
17173TIP3    H272935   6.437   2.807   0.185 -1.6500 -0.0055  0.4912
17174TIP3   OH272936   2.550   4.340  11.610 -0.1365 -0.0615 -0.3375
17174TIP3    H172937   2.524   4.425  11.646 -0.4236 -0.2348 -0.1303
17174TIP3    H272938   2.639   4.353  11.579 -0.0669  0.2274 -0.0118
17175TIP3   OH272939   0.102   4.275  16.450  0.4916 -0.4735  0.2204
17175TIP3    H172940   0.180   4.251  16.500  0.6330  1.1415  0.8147
17175TIP3    H272941   0.104   4.218  16.374  2.6219 -0.0382 -0.0895
17176TIP3   OH272942   0.941   3.503  16.456 -0.0934  0.6332 -0.3246
17176TIP3    H172943   1.022   3.530  16.413  0.6252 -0.1356  0.5115
17176TIP3    H272944   0.910   3.581  16.502  0.0651  0.9809 -0.8106
17177TIP3   OH272945   6.779   3.508   0.701 -0.1199 -0.0614 -0.2314
17177TIP3    H172946   6.816   3.543   0.619 -1.2143  1.9692  0.1010
17177TIP3    H272947   6.783   3.413   0.690  3.0175  0.0906 -1.1732
17178TIP3   OH272948   0.210   5.170   2.443 -0.3028 -0.4395 -0.2478
17178TIP3    H172949   0.224   5.090   2.494  0.0839 -0.8859 -1.0426
17178TIP3    H272950   0.116   5.171   2.427  0.0629 -2.3814 -2.8522
17179TIP3   OH272951   3.898   4.858  10.922 -0.3481  0.0409 -0.1666
17179TIP3    H172952   3.993   4.870  10.917  0.0028 -2.1461  0.6624
17179TIP3    H272953   3.867   4.868  10.832  0.8590 -0.6494 -0.6697
17180TIP3   OH272954   5.844   5.898   1.750  0.0796  0.5715  0.5562
17180TIP3    H172955   5.877   5.808   1.740  0.2307  0.7730 -0.8428
17180TIP3    H272956   5.769   5.889   1.809 -1.4942 -0.8641 -1.5743
17181TIP3   OH272957   4.900   5.276   3.884  0.3656 -0.1859  0.3796
17181TIP3    H172958   4.897   5.181   3.888 -2.4206 -0.1701 -0.4913
17181TIP3    H272959   4.828   5.305   3.939  0.3273  1.3823 -0.4746
17182TIP3   OH272960   3.357   5.576   3.073  0.6277  0.1812 -0.7539
17182TIP3    H172961   3.385   5.486   3.091 -0.6566  0.0225  0.4876
17182TIP3    H272962   3.435   5.618   3.038  1.2255 -1.4434 -1.4630
17183TIP3   OH272963   6.475   4.471   2.896  0.0066 -0.1578  0.2497
17183TIP3    H172964   6.542   4.431   2.952 -0.0308  0.9592  1.1043
17183TIP3    H272965   6.412   4.509   2.957  0.8387  2.5551 -0.5100
17184TIP3   OH272966   0.857   5.488  16.234  0.5792  0.1544 -0.0062
17184TIP3    H172967   0.818   5.535  16.160 -0.9669 -2.2643 -0.7925
17184TIP3    H272968   0.792   5.498  16.304  0.4544 -0.3999 -0.0405
17185TIP3   OH272969   0.106   0.225  10.461 -0.0157  0.8670 -0.1521
17185TIP3    H172970   0.178   0.163  10.473 -2.0654 -1.2927  1.6548
17185TIP3    H272971   0.087   0.223  10.368  0.9681 -0.0474 -0.3364
17186TIP3   OH272972   2.711   4.114  12.787 -0.2575 -0.1127 -0.0173
17186TIP3    H172973   2.624   4.078  12.805 -0.5040  0.7506  0.5980
17186TIP3    H272974   2.694   4.200  12.748  0.3177 -0.3901 -0.8948
17187TIP3   OH272975   6.054   5.838  16.146 -0.2903 -0.3796 -0.0575
17187TIP3    H172976   6.142   5.873  16.155 -1.0321  1.6193 -0.4015
17187TIP3    H272977   5.998   5.915  16.135 -2.1677 -1.5730  0.8301
17188TIP3   OH272978   3.324   3.757  12.147 -0.3417  0.6122  0.2984
17188TIP3    H172979   3.326   3.828  12.211 -0.1409  1.3477 -0.5094
17188TIP3    H272980   3.234   3.754  12.116 -0.1958  0.9607 -0.1590
17189TIP3   OH272981   2.424   5.791   5.066 -0.3991  0.0410  0.4789
17189TIP3    H172982   2.485   5.833   5.004 -0.0952  0.4057  1.0158
17189TIP3    H272983   2.380   5.724   5.015 -0.4492  0.6179 -0.2447
17190TIP3   OH272984   3.450   6.531   5.226  0.3268  0.2756  0.1440
17190TIP3    H172985   3.376   6.475   5.245  0.4745 -0.6969 -1.9674
17190TIP3    H272986   3.525   6.487   5.267 -0.3247  1.5737  2.7956
17191TIP3   OH272987   2.997   1.482  12.904 -0.4533 -0.2895  0.2785
17191TIP3    H172988   2.973   1.575  12.904 -2.0816 -0.6816 -1.1300
17191TIP3    H272989   2.960   1.448  12.985  0.5874  0.3788  1.0530
17192TIP3   OH272990   1.149   4.731   2.519 -0.0122 -0.1734  0.3423
17192TIP3    H172991   1.187   4.658   2.470  0.3646 -0.5908  1.2417
17192TIP3    H272992   1.086   4.690   2.578 -0.7890  0.3723 -0.1068
17193TIP3   OH272993   0.149   5.572   0.264  0.4036 -0.0049  0.0316
17193TIP3    H172994   0.095   5.632   0.316  1.0369 -1.7023  2.7045
17193TIP3    H272995   0.108   5.487   0.275  2.5481 -1.0010  0.6383
17194TIP3   OH272996   6.355   5.989  11.029  0.3482 -0.7006  0.1526
17194TIP3    H172997   6.326   5.911  11.076 -0.4006 -0.4446  0.1159
17194TIP3    H272998   6.337   6.061  11.088 -1.9970 -0.2098 -1.0841
17195TIP3   OH272999   5.734   0.806  11.371 -0.2876  0.1557  0.2396
17195TIP3    H173000   5.752   0.846  11.286 -0.0270 -0.1745  0.1381
17195TIP3    H273001   5.644   0.832  11.391 -0.9982 -1.2951 -0.9959
17196TIP3   OH273002   6.674   3.230  14.551  0.5651 -0.0942 -0.1676
17196TIP3    H173003   6.730   3.184  14.613 -0.8279  0.1206  1.2798
17196TIP3    H273004   6.609   3.165  14.524 -0.1064  0.4052  0.2264
17197TIP3   OH273005   5.224   5.984   0.710  0.0435 -0.1415 -0.2562
17197TIP3    H173006   5.320   5.977   0.705  0.1612  0.7613  0.5463
17197TIP3    H273007   5.197   5.911   0.765  0.5415  1.2145  1.8256
17198TIP3   OH273008   1.996   0.552  11.461  0.1086 -0.0596 -0.0531
17198TIP3    H173009   1.986   0.469  11.415 -1.0313  0.8687 -1.5302
17198TIP3    H273010   2.057   0.602  11.406 -0.5573  0.7156 -0.0996
17199TIP3   OH273011   3.729   5.063  14.081 -0.3285 -0.1820 -0.1153
17199TIP3    H173012   3.712   5.051  14.175 -2.7671  0.7482 -0.4058
17199TIP3    H273013   3.670   5.000  14.039  2.7680 -2.6147 -0.9942
17200TIP3   OH273014   0.393   4.350   4.813 -0.2156  0.6307 -0.0778
17200TIP3    H173015   0.337   4.305   4.751  0.1255  0.3209 -0.1611
17200TIP3    H273016   0.460   4.286   4.836  0.3194  1.1160 -0.2666
17201TIP3   OH273017   6.563   0.971   6.006  0.8590  0.6395  0.1496
17201TIP3    H173018   6.588   1.062   5.993 -0.2563  1.0358  0.7000
17201TIP3    H273019   6.570   0.957   6.100 -1.9005  1.0622  0.4574
17202TIP3   OH273020   2.795   1.466   6.011 -0.0450 -0.2527  0.4256
17202TIP3    H173021   2.814   1.526   5.939  0.5602 -1.2895 -0.2986
17202TIP3    H273022   2.821   1.513   6.090  0.2868  0.4854 -0.1238
17203TIP3   OH273023   4.968   5.190  13.842  0.3849 -0.1613  0.2727
17203TIP3    H173024   4.902   5.156  13.782 -0.3153  1.3292  0.1784
17203TIP3    H273025   4.941   5.160  13.928 -0.2972  0.2523  0.2072
17204TIP3   OH273026   1.182   3.035  12.829 -0.1728 -0.2861  0.0945
17204TIP3    H173027   1.262   2.983  12.833 -0.4629 -0.7437  0.0039
17204TIP3    H273028   1.190   3.098  12.901 -0.3446 -1.2142  0.9402
17205TIP3   OH273029   2.852   2.432   4.596  0.2458 -0.3871 -0.6249
17205TIP3    H173030   2.771   2.482   4.586  0.4504  0.1979  0.5191
17205TIP3    H273031   2.907   2.487   4.653  0.8814 -1.4338 -0.2120
17206TIP3   OH273032   2.767   5.377   3.465  0.1764 -0.6092 -0.6331
17206TIP3    H173033   2.813   5.447   3.418  1.5951 -1.0087  0.1323
17206TIP3    H273034   2.747   5.415   3.551 -2.7847  0.2628 -1.6303
17207TIP3   OH273035   4.429   3.469   1.417  0.4359  0.2180  0.1714
17207TIP3    H173036   4.504   3.411   1.431 -0.8783 -1.3156  1.0715
17207TIP3    H273037   4.386   3.472   1.502 -0.7776  0.7215 -0.4561
17208TIP3   OH273038   4.970   0.778  12.178 -0.0350  0.0983  0.1178
17208TIP3    H173039   4.912   0.805  12.107  0.0755 -1.3376 -0.5216
17208TIP3    H273040   4.912   0.761  12.252 -0.1997  0.9805  0.2067
17209TIP3   OH273041   6.292   0.151  14.617  0.1440 -0.1713 -0.3786
17209TIP3    H173042   6.197   0.155  14.630  0.1648  1.6138 -0.6098
17209TIP3    H273043   6.320   0.077  14.671 -1.1512  0.3906  1.1105
17210TIP3   OH273044   1.037   0.180   3.783 -0.1534  0.2126 -0.3558
17210TIP3    H173045   0.963   0.141   3.828 -0.4222 -0.9051 -1.7601
17210TIP3    H273046   1.106   0.113   3.787  0.8310  1.2625  0.9998
17211TIP3   OH273047   5.797   5.401   2.236  0.0928 -0.2948  0.4566
17211TIP3    H173048   5.768   5.341   2.167  0.5227  0.2584 -0.2167
17211TIP3    H273049   5.739   5.383   2.310 -0.2323 -1.0484  0.0228
17212TIP3   OH273050   1.362   4.278   2.182  0.1204  0.1473 -0.4439
17212TIP3    H173051   1.372   4.364   2.142  1.8119 -0.4697 -1.4137
17212TIP3    H273052   1.450   4.255   2.212 -0.1135 -1.6619 -1.0673
17213TIP3   OH273053   5.830   3.900  16.922  0.2409  0.5399  0.1404
17213TIP3    H173054   5.797   3.906  16.833 -1.0748 -0.1108  0.5604
17213TIP3    H273055   5.925   3.893  16.913  0.1604  1.0099 -1.1723
17214TIP3   OH273056   2.228   4.612   2.695 -0.0207  0.4937  0.5302
17214TIP3    H173057   2.317   4.579   2.705 -0.1148  0.3607  0.9370
17214TIP3    H273058   2.224   4.644   2.605 -0.6338 -2.7626 -0.6862
17215TIP3   OH273059   6.117   2.660   2.315 -0.9139 -0.0789 -0.2641
17215TIP3    H173060   6.169   2.675   2.236 -0.2063 -0.7906  0.0572
17215TIP3    H273061   6.054   2.593   2.289  0.0784 -1.1753  0.0852
17216TIP3   OH273062   0.130   4.463  12.302  0.0905  0.0316 -0.0131
17216TIP3    H173063   0.186   4.461  12.380  0.9391 -1.0430 -0.6269
17216TIP3    H273064   0.096   4.374  12.294 -0.5271  0.3054 -0.4912
17217TIP3   OH273065   3.446   0.754   1.540 -0.5469  0.3640  0.0853
17217TIP3    H173066   3.406   0.810   1.472 -1.3163 -0.4512 -0.1441
17217TIP3    H273067   3.539   0.774   1.535 -0.7767  1.4032 -0.2126
17218TIP3   OH273068   4.770   3.033   3.812  0.1898 -0.3230  0.1147
17218TIP3    H173069   4.716   3.043   3.734  1.4194  0.4259 -0.6515
17218TIP3    H273070   4.860   3.032   3.779  0.7635  0.8210  1.5957
17219TIP3   OH273071   6.705   1.755   0.718 -0.7430  0.8745 -0.2179
17219TIP3    H173072   6.801   1.757   0.719 -0.7288  0.4071 -0.7885
17219TIP3    H273073   6.682   1.721   0.632 -1.3603 -2.5717  1.2401
17220TIP3   OH273074   5.992   2.921   5.531  0.0061 -0.3000 -0.2340
17220TIP3    H173075   5.955   2.834   5.517 -0.4583 -0.2125  0.4262
17220TIP3    H273076   5.953   2.951   5.613 -0.1802  0.7147 -0.6800
17221TIP3   OH273077   6.224   0.939  17.044  0.6229 -0.0732  0.2882
17221TIP3    H173078   6.192   0.885  17.116 -0.1208 -0.2857 -0.2056
17221TIP3    H273079   6.313   0.906  17.027  0.4772 -0.5892  0.5368
17222TIP3   OH273080   2.456   5.733   0.382  0.2142  0.0072 -0.8870
17222TIP3    H173081   2.376   5.717   0.332 -0.0364 -1.3768 -0.0824
17222TIP3    H273082   2.451   5.824   0.409 -0.6823  0.1577 -1.5687
17223TIP3   OH273083   5.909   6.280   4.017 -0.0684 -0.4248 -0.5200
17223TIP3    H173084   5.948   6.202   3.977  0.2512  1.2214 -3.5417
17223TIP3    H273085   5.822   6.286   3.978  0.3525  1.3691 -1.2403
17224TIP3   OH273086   3.839   1.339   4.993  0.0730 -0.3735 -0.1437
17224TIP3    H173087   3.874   1.325   5.081  0.8970  0.6523 -0.3078
17224TIP3    H273088   3.751   1.301   4.996  0.4120 -1.0902  0.8720
17225TIP3   OH273089   1.862   3.016   1.130 -0.1407 -0.0560 -0.5243
17225TIP3    H173090   1.822   3.095   1.167 -1.2551 -0.3995 -0.9592
17225TIP3    H273091   1.948   3.045   1.099  0.2793  0.5256  1.1257
17226TIP3   OH273092   2.682   4.948  16.088  0.3929 -0.6170 -0.5062
17226TIP3    H173093   2.766   4.910  16.113  0.8181  0.1222 -0.8074
17226TIP3    H273094   2.645   4.886  16.025  1.1935 -0.4089 -1.1816
17227TIP3   OH273095   5.689   6.438  11.995  0.1124 -0.3425  0.6163
17227TIP3    H173096   5.715   6.515  11.945 -1.2113 -0.5682 -0.4341
17227TIP3    H273097   5.651   6.473  12.076 -0.9710  0.1272 -0.0909
17228TIP3   OH273098   3.085   5.912  11.966 -0.3662  0.5395 -0.1339
17228TIP3    H173099   3.133   5.862  11.901  1.2397  0.0826  1.3501
17228TIP3    H273100   3.144   5.917  12.041 -2.0780  1.2123  1.2244
17229TIP3   OH273101   2.968   5.328   1.718 -0.1708 -0.3709 -0.5048
17229TIP3    H173102   3.002   5.244   1.748 -0.0868 -0.7576 -1.6565
17229TIP3    H273103   2.898   5.350   1.780 -1.5614 -2.2853 -1.3439
17230TIP3   OH273104   4.160   0.503  14.599 -0.1153  0.0587 -0.4548
17230TIP3    H173105   4.120   0.508  14.512  2.1284 -3.0099 -1.7310
17230TIP3    H273106   4.240   0.555  14.592  0.2695 -0.5152 -0.3415
17231TIP3   OH273107   5.161   6.517   2.854 -0.4777  0.4081  0.1435
17231TIP3    H173108   5.245   6.526   2.899  0.7672  0.4097 -2.1065
17231TIP3    H273109   5.110   6.594   2.881  1.0693  1.5574 -0.1468
17232TIP3   OH273110   1.933   4.197  15.430 -0.1657 -0.1854  0.1961
17232TIP3    H173111   1.985   4.263  15.476 -1.1581 -2.5428  4.9726
17232TIP3    H273112   1.847   4.236  15.421  0.0506  0.3160  0.2910
17233TIP3   OH273113   3.979   5.179   2.276  0.1945 -0.8670  0.5786
17233TIP3    H173114   3.971   5.085   2.255  2.1336 -1.1448  1.0107
17233TIP3    H273115   3.918   5.193   2.348  1.5469 -2.3212  2.0530
17234TIP3   OH273116   1.290   3.707   5.436  0.7309 -0.9062  0.1371
17234TIP3    H173117   1.199   3.682   5.421  0.5679 -0.0189 -0.3480
17234TIP3    H273118   1.321   3.738   5.350  0.7110  1.2752  0.9065
17235TIP3   OH273119   0.469   1.027  16.596  0.1571 -0.5217 -0.4880
17235TIP3    H173120   0.467   0.966  16.670 -0.6329  1.5825  1.2778
17235TIP3    H273121   0.554   1.070  16.603  0.1984 -0.5291 -0.9724
17236TIP3   OH273122   5.465   3.139   6.833 -0.0850 -0.3382 -0.4555
17236TIP3    H173123   5.546   3.180   6.863 -0.4666  0.0562  0.0452
17236TIP3    H273124   5.406   3.213   6.814 -1.7684 -0.6440  3.1964
17237TIP3   OH273125   5.109   2.211   4.714 -0.2069  0.4173 -0.1038
17237TIP3    H173126   5.198   2.239   4.734  0.0669  0.5920 -1.4887
17237TIP3    H273127   5.057   2.236   4.790  0.4577  2.6977 -0.3750
17238TIP3   OH273128   6.479   5.137   4.342  0.1156 -0.0281  0.1108
17238TIP3    H173129   6.477   5.080   4.265 -0.2123  1.3766 -0.9374
17238TIP3    H273130   6.440   5.085   4.411  0.2782 -1.2587 -0.7128
17239TIP3   OH273131   5.833   3.465   4.545  0.1034 -0.2076  0.2625
17239TIP3    H173132   5.846   3.417   4.627 -1.2057 -1.4348 -0.2307
17239TIP3    H273133   5.891   3.541   4.552 -0.6782  0.2141  2.7449
17240TIP3   OH273134   2.453   2.389  13.201 -0.0735  0.8777 -0.7289
17240TIP3    H173135   2.525   2.446  13.227  0.5068  0.4105 -1.3071
17240TIP3    H273136   2.479   2.356  13.115 -0.4024 -0.2825 -0.3799
17241TIP3   OH273137   3.022   6.168  15.210  0.1339  0.1047  0.1904
17241TIP3    H173138   2.982   6.219  15.281  0.6481  0.2367  0.3877
17241TIP3    H273139   2.989   6.209  15.130  0.1936  0.4660  0.3512
17242TIP3   OH273140   3.755   2.942  16.350  0.2426  0.1373 -0.6001
17242TIP3    H173141   3.706   2.927  16.431  0.3877  0.1964 -0.5009
17242TIP3    H273142   3.798   2.858  16.332  2.7333  0.9580  1.0801
17243TIP3   OH273143   5.401   0.303   6.325 -0.2254  0.7707 -0.0091
17243TIP3    H173144   5.355   0.385   6.339  0.4729  1.1797 -0.1050
17243TIP3    H273145   5.442   0.283   6.409  2.5560  2.3577 -0.9480
17244TIP3   OH273146   3.361   3.712   0.078 -0.1459  0.3720  0.2320
17244TIP3    H173147   3.379   3.632   0.126 -0.0222 -0.4397 -1.1540
17244TIP3    H273148   3.448   3.747   0.056 -0.1873 -0.6893 -1.7321
17245TIP3   OH273149   0.026   0.338  11.184  0.2056  0.7419  0.2638
17245TIP3    H173150  -0.002   0.336  11.276 -1.4020 -0.8857 -0.2479
17245TIP3    H273151  -0.055   0.335  11.134  1.1660 -2.2152 -1.2362
17246TIP3   OH273152   4.456   2.445  15.846  0.1647  0.5872  0.0059
17246TIP3    H173153   4.436   2.526  15.800  1.0218  0.7062 -0.1644
17246TIP3    H273154   4.458   2.378  15.777  0.5198  0.6059 -0.0047
17247TIP3   OH273155   1.037   5.634   3.507 -0.2224 -0.5329 -0.1830
17247TIP3    H173156   1.093   5.561   3.480  0.6691 -0.1556  0.6088
17247TIP3    H273157   0.971   5.593   3.564 -1.1034 -1.0623 -1.5472
17248TIP3   OH273158   1.499   1.710  10.683  0.4471 -0.7772  0.5774
17248TIP3    H173159   1.521   1.626  10.724  0.2046 -1.6985 -1.1638
17248TIP3    H273160   1.501   1.772  10.756  2.5755 -1.9232  1.5611
17249TIP3   OH273161   0.928   3.442   1.893 -0.4429 -0.1346  0.1638
17249TIP3    H173162   0.912   3.534   1.914 -1.1273  0.0122 -0.9441
17249TIP3    H273163   0.843   3.399   1.904 -0.1114 -0.6501  0.7445
17250TIP3   OH273164   3.176   6.473  12.773 -0.1572  0.0783 -0.1302
17250TIP3    H173165   3.238   6.403  12.750 -0.9293 -0.2815 -1.1383
17250TIP3    H273166   3.206   6.548  12.722  0.0804  0.2047  0.1950
17251TIP3   OH273167   5.677   6.428   3.237 -0.3822 -0.3914 -0.4749
17251TIP3    H173168   5.733   6.425   3.158 -0.0369 -2.1519 -0.1859
17251TIP3    H273169   5.718   6.495   3.292  0.8486 -0.9010 -0.7359
17252TIP3   OH273170   2.595   1.811   0.752 -0.0369 -0.3569 -0.2163
17252TIP3    H173171   2.558   1.864   0.681 -0.3252  0.9815  0.9021
17252TIP3    H273172   2.630   1.876   0.813 -1.1316 -1.4478  1.5890
17253TIP3   OH273173   4.296   0.156   1.433  0.0265  0.2305 -0.5143
17253TIP3    H173174   4.370   0.107   1.469  1.1869  2.9885  0.9730
17253TIP3    H273175   4.223   0.094   1.435  1.2297 -1.1814  2.1470
17254TIP3   OH273176   6.292   1.270   5.676 -0.1317  0.3544  0.6536
17254TIP3    H173177   6.274   1.196   5.617  1.3843  1.4874 -1.3033
17254TIP3    H273178   6.300   1.231   5.762 -0.1359 -1.6582 -0.2337
17255TIP3   OH273179   4.329   3.121   1.430  0.0023 -0.5757 -0.0813
17255TIP3    H173180   4.342   3.026   1.426  0.5140 -0.5417  0.6708
17255TIP3    H273181   4.378   3.148   1.508 -0.7731  0.2029  0.1363
17256TIP3   OH273182   1.176   6.268  13.516  0.6362  0.2778  0.0190
17256TIP3    H173183   1.202   6.333  13.581 -0.0570  0.6479 -0.0673
17256TIP3    H273184   1.200   6.307  13.432  0.8853  0.1076  0.0114
17257TIP3   OH273185   5.480   5.940  16.311  0.0049  0.3558  0.2396
17257TIP3    H173186   5.465   5.966  16.402  0.6533 -1.6286  0.9436
17257TIP3    H273187   5.418   5.867  16.297  0.1738  0.4076 -0.7854
17258TIP3   OH273188   3.387   0.581  17.185 -0.0564 -0.7147  0.4558
17258TIP3    H173189   3.331   0.505  17.167 -0.4230 -0.8892  2.2146
17258TIP3    H273190   3.327   0.650  17.213  0.4169 -0.2908  0.4345
17259TIP3   OH273191   0.288   2.023  14.471  0.1019 -0.1519  0.1540
17259TIP3    H173192   0.283   1.954  14.404  0.4104 -1.0442  1.0350
17259TIP3    H273193   0.217   2.001  14.532  1.3672 -0.7515  1.4197
17260TIP3   OH273194   0.484   5.409  16.044 -0.4418 -0.0654  0.4223
17260TIP3    H173195   0.445   5.332  16.086  0.3413 -0.1772  0.9621
17260TIP3    H273196   0.545   5.373  15.980  0.3566  0.0919  1.0805
17261TIP3   OH273197   5.347   3.121  15.025  0.0533  0.0112 -0.3900
17261TIP3    H173198   5.301   3.187  15.078 -1.6230 -1.4689  0.0132
17261TIP3    H273199   5.436   3.120  15.062 -0.3496  0.9153  0.6470
17262TIP3   OH273200   1.200   6.435  16.973  0.4116  0.5109 -0.4538
17262TIP3    H173201   1.125   6.441  17.033  0.5176  0.2564 -0.2937
17262TIP3    H273202   1.257   6.369  17.012  0.5661  0.4707 -0.7433
17263TIP3   OH273203   3.230   3.540  15.058  0.1131  0.5867  0.2506
17263TIP3    H173204   3.165   3.478  15.091  0.6802  0.0415  0.3448
17263TIP3    H273205   3.214   3.543  14.963 -1.0352  1.6062  0.4573
17264TIP3   OH273206   4.369   6.389   1.781 -0.0827  0.1491  0.4923
17264TIP3    H173207   4.454   6.383   1.737  0.6032  0.5231  1.7543
17264TIP3    H273208   4.359   6.481   1.802 -0.6167  0.0413  0.7136
17265TIP3   OH273209   4.557   5.047   5.781 -0.5300 -0.1793  0.3042
17265TIP3    H173210   4.541   5.095   5.861  0.8713  0.8573 -0.0237
17265TIP3    H273211   4.515   4.962   5.795 -1.1094  0.3372  1.7469
17266TIP3   OH273212   5.144   1.387   3.469 -0.1469  0.6149 -0.2020
17266TIP3    H173213   5.230   1.430   3.466 -0.2358  0.8405  0.3899
17266TIP3    H273214   5.128   1.371   3.562 -0.1988 -0.5461 -0.3980
17267TIP3   OH273215   5.016   4.324   5.572  0.0686  0.3350  0.4973
17267TIP3    H173216   4.953   4.361   5.635  0.8820  0.7951  1.0578
17267TIP3    H273217   5.083   4.284   5.627  1.1949  1.4188 -0.0628
17268TIP3   OH273218   1.455   2.060   1.382 -0.2386 -0.3375 -0.1822
17268TIP3    H173219   1.551   2.057   1.388 -0.2786 -1.8787 -0.0349
17268TIP3    H273220   1.436   2.146   1.345  1.2423 -0.3086 -0.9267
17269TIP3   OH273221   5.784   3.671   2.902  0.0976  0.3729  0.1908
17269TIP3    H173222   5.739   3.672   2.987 -0.5068  2.6294 -0.1072
17269TIP3    H273223   5.749   3.748   2.856  1.1313 -0.2777 -1.7230
17270TIP3   OH273224   0.167   1.392  12.775 -0.0331  0.0997  0.5193
17270TIP3    H173225   0.134   1.480  12.795 -1.9179 -0.4328 -0.2290
17270TIP3    H273226   0.089   1.337  12.769  1.1279 -1.6345  0.9348
17271TIP3   OH273227   1.628   2.413  14.285  0.6556  0.3860 -0.1174
17271TIP3    H173228   1.719   2.388  14.269  0.6275  0.2290 -0.0361
17271TIP3    H273229   1.577   2.356  14.229  0.6559  1.1402 -0.8874
17272TIP3   OH273230   3.863   2.212  14.449 -0.2026  0.3482  0.0176
17272TIP3    H173231   3.778   2.221  14.406 -0.6579 -0.5419  0.7311
17272TIP3    H273232   3.921   2.179  14.381 -1.0149 -1.4379  0.1654
17273TIP3   OH273233   4.491   4.156   1.613 -0.2714  0.2970 -0.2223
17273TIP3    H173234   4.534   4.178   1.696  0.5273 -1.7622 -0.0596
17273TIP3    H273235   4.409   4.115   1.639 -1.3638  2.2490 -0.5114
17274TIP3   OH273236   2.424   2.644   1.185  0.0131 -0.1864 -0.4160
17274TIP3    H173237   2.342   2.692   1.178  0.3002  0.2396 -0.8904
17274TIP3    H273238   2.406   2.573   1.247 -0.7286 -0.1371 -0.5769
17275TIP3   OH273239   6.554   1.771  14.876  0.1782 -0.8608 -0.4669
17275TIP3    H173240   6.551   1.681  14.843 -0.8988 -0.7368 -0.7153
17275TIP3    H273241   6.583   1.762  14.967 -1.2918 -1.5773 -0.0561
17276TIP3   OH273242   1.027   0.304   0.639  0.3634 -0.1471  0.3094
17276TIP3    H173243   1.056   0.213   0.639 -0.0035 -0.2681 -0.6546
17276TIP3    H273244   0.932   0.299   0.646  0.2459  0.1213 -0.9851
17277TIP3   OH273245   6.330   1.044  13.787  0.3406  0.1039  0.6906
17277TIP3    H173246   6.384   1.110  13.830  0.4929  0.2513  0.2746
17277TIP3    H273247   6.390   0.999  13.727 -0.3393  1.3455 -0.9699
17278TIP3   OH273248   3.219   3.552  16.655  0.3341 -0.4093  0.1801
17278TIP3    H173249   3.245   3.643  16.672  0.2898 -0.3757  0.0682
17278TIP3    H273250   3.287   3.518  16.596  0.2277 -0.3792  0.0397
17279TIP3   OH273251   3.485   3.335   3.460  0.2948 -0.7675 -0.5533
17279TIP3    H173252   3.467   3.265   3.524  0.5018 -0.3715 -0.0543
17279TIP3    H273253   3.570   3.312   3.424 -0.1611 -1.3977 -1.2337
17280TIP3   OH273254   1.953   4.035   5.104 -0.7915  0.8341  0.4884
17280TIP3    H173255   1.950   4.007   5.013 -3.4164  1.5491  0.3213
17280TIP3    H273256   1.997   3.963   5.150 -0.0141  0.1966 -1.2221
17281TIP3   OH273257   6.698   3.475  14.440 -0.1847  0.6237  0.0230
17281TIP3    H173258   6.693   3.384  14.470 -0.8327  0.8965  0.7238
17281TIP3    H273259   6.788   3.501  14.459 -0.2845  0.4508  0.7323
17282TIP3   OH273260   2.829   6.088   5.547 -0.2413  0.3968 -0.2138
17282TIP3    H173261   2.893   6.159   5.556  1.2286 -0.3251 -3.9426
17282TIP3    H273262   2.881   6.008   5.560 -1.4223 -0.0802  1.6845
17283TIP3   OH273263   2.935   1.985  11.398  0.1140  0.2444 -0.4294
17283TIP3    H173264   2.990   2.046  11.446 -0.0401  0.2609 -0.2730
17283TIP3    H273265   2.984   1.966  11.317  1.0687 -0.9666  0.4119
17284TIP3   OH273266   0.203   6.527  16.999 -0.0083  0.4240 -0.2747
17284TIP3    H173267   0.276   6.464  17.004 -0.5375 -0.2342 -0.7677
17284TIP3    H273268   0.149   6.495  16.928 -1.5143  0.1346  0.9782
17285TIP3   OH273269   2.674   5.172  13.301 -0.6943  0.3361  0.0527
17285TIP3    H173270   2.745   5.217  13.347 -1.4676  1.9158 -0.2650
17285TIP3    H273271   2.681   5.202  13.210 -1.6849  0.3918 -0.0109
17286TIP3   OH273272   0.389   2.075  13.154  0.2702  0.0061  0.5367
17286TIP3    H173273   0.330   2.095  13.082 -0.2154 -0.9531  0.6566
17286TIP3    H273274   0.477   2.084  13.117  0.0234 -2.1379 -0.6596
17287TIP3   OH273275   0.921   2.862   2.165 -0.1387  0.3227  0.1513
17287TIP3    H173276   0.928   2.826   2.253  0.6732 -1.9340 -0.7804
17287TIP3    H273277   0.931   2.786   2.107  0.1850  1.8685 -1.9064
17288TIP3   OH273278   4.543   1.674   2.672 -0.1789  0.0804 -0.0277
17288TIP3    H173279   4.560   1.586   2.704  2.0749 -0.2949 -2.0889
17288TIP3    H273280   4.621   1.696   2.620 -0.8417  3.1456  0.1664
17289TIP3   OH273281   2.105   2.858  16.616 -0.3947 -0.0452 -0.3571
17289TIP3    H173282   2.160   2.932  16.640  2.0299 -2.0866  0.6312
17289TIP3    H273283   2.041   2.851  16.687 -0.4898  0.9166 -0.3424
17290TIP3   OH273284   1.317   0.636  10.809 -0.0046  0.1106 -0.0243
17290TIP3    H173285   1.356   0.696  10.746  0.0007 -0.0287 -0.1552
17290TIP3    H273286   1.385   0.569  10.823  0.8998  1.3953  1.8774
17291TIP3   OH273287   2.610   4.452   4.476  0.2697 -0.3510 -0.0940
17291TIP3    H173288   2.516   4.442   4.461  0.1595 -1.3962  1.2504
17291TIP3    H273289   2.617   4.521   4.541  0.5018  0.5054 -1.0132
17292TIP3   OH273290   2.893   3.514   5.553 -0.1786  0.0382 -0.3240
17292TIP3    H173291   2.920   3.503   5.645  0.3376  0.7308 -0.3912
17292TIP3    H273292   2.826   3.446   5.540  0.6019 -0.8531  0.2167
17293TIP3   OH273293   3.536   3.169   3.144  0.3157 -0.1050 -0.0137
17293TIP3    H173294   3.460   3.222   3.120 -1.1975 -0.7784  3.0691
17293TIP3    H273295   3.522   3.085   3.102 -0.5968 -0.1742  0.4189
17294TIP3   OH273296   3.916   0.196   0.512  0.0625 -0.0956  0.5461
17294TIP3    H173297   3.823   0.211   0.532  0.3640  1.2850  0.9496
17294TIP3    H273298   3.918   0.182   0.418 -0.5556 -0.1120  0.5312
17295TIP3   OH273299   0.983   3.042  11.143 -0.3382 -0.7060 -0.7837
17295TIP3    H173300   0.910   3.102  11.127 -1.2890 -1.7576 -0.4459
17295TIP3    H273301   1.040   3.090  11.204 -1.5533 -0.5115  0.2031
17296TIP3   OH273302   1.033   0.524   3.965 -0.3199 -0.2052  0.0705
17296TIP3    H173303   1.093   0.587   3.925  0.3542 -0.9583 -0.0953
17296TIP3    H273304   0.951   0.573   3.974 -0.4810 -0.0154 -2.1829
17297TIP3   OH273305   1.130   0.528   0.099  0.1819  0.4261  0.6680
17297TIP3    H173306   1.098   0.595   0.160  0.3946 -0.1353  1.4030
17297TIP3    H273307   1.051   0.480   0.074 -0.0807  1.4026 -0.4329
17298TIP3   OH273308   0.880   2.968  16.619 -0.3407  0.3017 -0.2463
17298TIP3    H173309   0.887   3.054  16.661 -2.3523 -0.0533  0.9047
17298TIP3    H273310   0.959   2.922  16.645 -0.2699  1.0600  0.9127
17299TIP3   OH273311   0.082   0.300  15.339 -0.1852 -0.3458  0.5405
17299TIP3    H173312  -0.006   0.277  15.370 -0.7750  0.2749 -0.6352
17299TIP3    H273313   0.091   0.392  15.362  0.8000 -0.8152  2.0959
17300TIP3   OH273314   3.805   5.791   0.694 -0.4610 -0.2286 -0.4406
17300TIP3    H173315   3.812   5.866   0.635  0.9377 -0.6577 -0.8576
17300TIP3    H273316   3.807   5.715   0.636  3.5974 -0.7582  0.2310
17301TIP3   OH273317   0.975   5.559   5.244  0.5159  0.8520 -0.6380
17301TIP3    H173318   1.041   5.543   5.177 -0.5772 -0.9025 -1.3246
17301TIP3    H273319   0.981   5.485   5.304  0.5980  1.7492  0.4960
17302TIP3   OH273320   4.226   2.338   6.576 -0.8152 -0.0496 -0.4695
17302TIP3    H173321   4.156   2.391   6.538 -2.7400 -1.9708  0.2473
17302TIP3    H273322   4.201   2.248   6.554  1.1181 -0.7902  0.3525
17303TIP3   OH273323   1.944   4.064  12.830  0.2554  0.0992 -0.0879
17303TIP3    H173324   1.954   4.105  12.744 -0.9635  1.7572  0.5488
17303TIP3    H273325   1.920   3.973  12.810  0.0064  0.4593 -1.4974
17304TIP3   OH273326   5.901   2.212  13.432  0.3014 -0.2212  0.4345
17304TIP3    H173327   5.863   2.260  13.359  1.3340  2.6931  1.7241
17304TIP3    H273328   5.825   2.174  13.478 -0.3968 -1.4104 -1.6562
17305TIP3   OH273329   1.749   2.741  16.476 -0.0230  0.3204 -0.1383
17305TIP3    H173330   1.737   2.831  16.506  1.4251  0.0979  1.1771
17305TIP3    H273331   1.768   2.692  16.556  0.7527 -0.8629 -1.0425
17306TIP3   OH273332   2.285   4.748  11.722 -0.4676  0.3000  0.0174
17306TIP3    H173333   2.237   4.818  11.766 -0.8684 -0.1388  0.2744
17306TIP3    H273334   2.248   4.667  11.756  2.0771 -0.0938  2.0479
17307TIP3   OH273335   5.689   2.530  15.084 -0.1292  0.1174 -0.0793
17307TIP3    H173336   5.764   2.475  15.106  0.2825 -0.0187 -1.7305
17307TIP3    H273337   5.633   2.527  15.161 -0.8008 -3.7894 -0.6649
17308TIP3   OH273338   4.375   2.777  11.676 -0.2845 -0.3757 -0.4738
17308TIP3    H173339   4.463   2.772  11.713 -1.1510  0.9816  1.8503
17308TIP3    H273340   4.345   2.865  11.696 -2.2141 -0.8352 -1.1860
17309TIP3   OH273341   6.371   6.774  15.697  0.0412 -0.3246 -0.2411
17309TIP3    H173342   6.391   6.694  15.650 -0.5238 -0.1365 -0.8066
17309TIP3    H273343   6.306   6.818  15.643  0.8936  0.8744 -0.3193
17310TIP3   OH273344   5.941   5.604  16.167 -0.1546  0.1762 -0.2679
17310TIP3    H173345   5.987   5.688  16.166  0.1906  0.0144  0.9010
17310TIP3    H273346   6.009   5.541  16.193 -0.6432 -0.3161 -0.1911
17311TIP3   OH273347   4.460   6.514  15.456  0.0616  0.4454  0.2910
17311TIP3    H173348   4.401   6.458  15.505 -1.0784 -0.0138 -1.5625
17311TIP3    H273349   4.468   6.472  15.370  1.7946  1.3692 -0.0324
17312TIP3   OH273350   6.762   1.307  16.172 -0.3939 -0.2135  0.1836
17312TIP3    H173351   6.703   1.375  16.140  1.2035  0.0798 -2.2672
17312TIP3    H273352   6.703   1.238  16.203 -2.0308  0.9376 -0.2805
17313TIP3   OH273353   1.163   5.917   3.677  0.3707 -0.5196 -0.4588
17313TIP3    H173354   1.178   5.968   3.757 -0.7085  0.6070 -0.9496
17313TIP3    H273355   1.154   5.983   3.608 -1.4850 -1.3383 -1.0447
17314TIP3   OH273356   0.714   0.804   0.914  0.3555 -0.6138 -0.0508
17314TIP3    H173357   0.741   0.874   0.974  0.3360 -0.5355 -0.1325
17314TIP3    H273358   0.699   0.728   0.970  0.1779 -0.4956  0.0632
17315TIP3   OH273359   3.033   2.107   5.673 -0.2233  0.1144 -0.4694
17315TIP3    H173360   3.067   2.024   5.708 -0.7079  0.2868  0.4186
17315TIP3    H273361   3.036   2.096   5.578 -2.7890 -1.9872 -0.3832
17316TIP3   OH273362   2.758   6.336   2.886  0.3656 -0.2582 -0.1184
17316TIP3    H173363   2.702   6.395   2.836  2.3971  1.0817 -0.8722
17316TIP3    H273364   2.737   6.354   2.977 -0.2873  0.3465 -0.3826
17317TIP3   OH273365   4.409   1.910  16.484 -1.0243  0.7374 -0.0858
17317TIP3    H173366   4.475   1.979  16.471  0.7394 -1.0694 -0.9718
17317TIP3    H273367   4.441   1.860  16.559 -1.4795 -0.0515 -0.4118
17318TIP3   OH273368   1.680   3.491  13.824  0.0660  0.0788 -0.0701
17318TIP3    H173369   1.616   3.532  13.881  0.6115 -0.9678  1.3213
17318TIP3    H273370   1.764   3.504  13.869  0.2254 -2.6402  0.4811
17319TIP3   OH273371   4.346   6.564  13.829 -0.6477  0.6074 -0.1290
17319TIP3    H173372   4.307   6.507  13.895 -0.9508 -0.2242 -1.0086
17319TIP3    H273373   4.424   6.518  13.799 -0.8220  0.7121 -0.7567
17320TIP3   OH273374   5.407   2.197  10.954 -0.4538 -0.3027  0.5889
17320TIP3    H173375   5.318   2.183  10.920 -0.0938  1.1884 -1.0368
17320TIP3    H273376   5.420   2.292  10.947  1.1010 -0.4599  1.2861
17321TIP3   OH273377   5.002   3.595  12.961  0.2713 -0.2057  0.5633
17321TIP3    H173378   4.992   3.569  13.053  0.0311  2.6441  1.3973
17321TIP3    H273379   5.094   3.623  12.954  0.5583 -1.3546 -0.3259
17322TIP3   OH273380   5.692   2.715   1.179 -0.4518 -0.0700  0.4926
17322TIP3    H173381   5.750   2.725   1.254 -2.1893 -0.4046  1.9112
17322TIP3    H273382   5.638   2.794   1.180 -0.8630 -0.3438 -0.0698
17323TIP3   OH273383   3.746   5.073  12.016  0.4675 -0.3486 -0.2028
17323TIP3    H173384   3.769   5.057  11.925  0.4187  2.8779 -0.8255
17323TIP3    H273385   3.650   5.079  12.015  0.4494 -0.5598  0.1355
17324TIP3   OH273386   1.881   5.740   6.533  0.3142  0.3813  0.5318
17324TIP3    H173387   1.953   5.700   6.484 -0.4148 -0.6987  0.3134
17324TIP3    H273388   1.837   5.795   6.469  0.2570  0.1337  0.3532
17325TIP3   OH273389   2.463   4.504   0.802  0.6888  0.0580 -0.3108
17325TIP3    H173390   2.496   4.507   0.712  3.6982  1.8093  0.7725
17325TIP3    H273391   2.533   4.461   0.852  0.0725  1.2106  1.5934
17326TIP3   OH273392   0.201   4.991   5.094  0.0340  0.4875  0.4224
17326TIP3    H173393   0.160   4.908   5.117 -0.8751  0.4318 -1.2660
17326TIP3    H273394   0.288   4.967   5.061 -0.5462  0.0884 -0.8759
17327TIP3   OH273395   1.569   0.680   0.723  0.1404  0.7839  0.0790
17327TIP3    H173396   1.551   0.587   0.710  1.0147  0.2486  2.4232
17327TIP3    H273397   1.482   0.721   0.725 -0.2541  0.0302 -0.8733
17328TIP3   OH273398   0.933   1.946   3.326 -0.1820  0.0008  0.2132
17328TIP3    H173399   0.974   2.032   3.338 -1.2364  0.3441  1.4591
17328TIP3    H273400   0.870   1.939   3.398  0.0994 -1.9446  0.3033
17329TIP3   OH273401   0.767   5.336  13.905  0.0775 -0.3404  0.4515
17329TIP3    H173402   0.749   5.293  13.821  0.1782  0.6235 -0.0759
17329TIP3    H273403   0.687   5.385  13.924  1.8382  3.5768 -1.6658
17330TIP3   OH273404   6.668   3.542   3.480  0.7753 -0.2731 -0.0356
17330TIP3    H173405   6.700   3.621   3.523 -1.1253  0.2341  0.5212
17330TIP3    H273406   6.593   3.514   3.533 -0.0933 -1.0445 -1.6070
17331TIP3   OH273407   5.152   1.095   0.630  0.3020 -1.2006 -0.0469
17331TIP3    H173408   5.127   1.124   0.718  2.7213 -0.6150  0.4823
17331TIP3    H273409   5.174   1.003   0.640  1.3632 -0.9298  0.1333
17332TIP3   OH273410   4.503   2.824   1.743 -0.0821  0.1755  0.4853
17332TIP3    H173411   4.415   2.810   1.709  0.0819  0.5497 -0.0952
17332TIP3    H273412   4.557   2.761   1.695  0.2661  1.1848 -0.4588
17333TIP3   OH273413   1.081   4.002  13.329  0.7093 -0.0304 -0.6834
17333TIP3    H173414   1.008   4.058  13.303 -1.0295 -2.2518 -0.7461
17333TIP3    H273415   1.040   3.923  13.365  3.0864 -0.5417  1.0547
17334TIP3   OH273416   3.483   6.273   1.429 -0.0748  0.0948  0.0295
17334TIP3    H173417   3.508   6.220   1.504  1.8354  0.1054 -0.5581
17334TIP3    H273418   3.566   6.310   1.398 -1.0912  1.6678 -0.8826
17335TIP3   OH273419   0.773   6.395   0.874  0.3919 -0.0768 -0.2070
17335TIP3    H173420   0.828   6.359   0.944  1.2625 -0.6633 -1.1795
17335TIP3    H273421   0.684   6.369   0.898  0.9313 -2.3635 -0.5371
17336TIP3   OH273422   5.771   3.957   6.116 -0.5101  1.0166 -0.2841
17336TIP3    H173423   5.822   4.038   6.111  0.4921  0.5607  1.8293
17336TIP3    H273424   5.829   3.895   6.161 -1.4495 -0.7459 -1.4257
17337TIP3   OH273425   4.458   5.062  17.014 -0.1192 -0.5388 -0.5690
17337TIP3    H173426   4.469   5.146  16.969 -0.7703 -0.3236 -0.3297
17337TIP3    H273427   4.397   5.081  17.086  1.1668 -0.8054  0.6165
17338TIP3   OH273428   1.410   0.883  12.538  0.4158 -0.0693 -0.7716
17338TIP3    H173429   1.352   0.953  12.510 -1.1546 -1.1625 -0.3175
17338TIP3    H273430   1.429   0.834  12.458  0.0715 -0.1712 -0.7927
17339TIP3   OH273431   2.067   3.243  11.361 -0.2476 -0.3606 -0.0802
17339TIP3    H173432   2.098   3.328  11.329 -0.0540 -0.6554 -0.6617
17339TIP3    H273433   1.972   3.248  11.352 -0.2188 -0.3061 -0.3562
17340TIP3   OH273434   3.855   4.182   3.819 -0.0619  0.0097  0.2158
17340TIP3    H173435   3.828   4.199   3.909 -0.6659 -0.1600  0.0653
17340TIP3    H273436   3.789   4.224   3.765 -1.8450 -3.1393 -0.1617
17341TIP3   OH273437   1.896   4.395  12.638  0.1263 -0.4969  0.2101
17341TIP3    H173438   1.905   4.300  12.644  1.2600 -0.3945  0.2267
17341TIP3    H273439   1.860   4.410  12.550 -0.6392 -0.9739  0.4414
17342TIP3   OH273440   5.738   0.564  17.084  0.3104 -0.0192 -0.1414
17342TIP3    H173441   5.697   0.615  17.014 -0.6165  0.2438  0.5787
17342TIP3    H273442   5.689   0.588  17.163  0.2657 -1.5569  0.3180
17343TIP3   OH273443   1.648   3.796   0.016 -0.1332 -0.2676  0.1305
17343TIP3    H173444   1.610   3.883   0.024 -0.8223 -0.7049  1.8647
17343TIP3    H273445   1.742   3.810   0.023 -0.1982  0.4226 -0.3645
17344TIP3   OH273446   6.289   2.468  16.998 -0.3636  0.1795 -0.1201
17344TIP3    H173447   6.204   2.486  16.957 -0.7724 -0.2717  0.5265
17344TIP3    H273448   6.284   2.377  17.025 -0.4984  0.7636  1.8888
17345TIP3   OH273449   3.085   5.906   5.520  0.4357 -0.8233 -0.0883
17345TIP3    H173450   3.100   5.926   5.613  0.6032 -2.5123  0.2495
17345TIP3    H273451   3.013   5.844   5.520  0.0486 -0.3746 -1.1299
17346TIP3   OH273452   0.245   0.746   2.370 -0.2134  0.5342 -0.5666
17346TIP3    H173453   0.319   0.702   2.413  0.7228  3.3438  0.8427
17346TIP3    H273454   0.262   0.736   2.277  0.1351 -1.7871 -0.2660
17347TIP3   OH273455   6.690   3.250   0.008  0.6600 -0.2261  0.0667
17347TIP3    H173456   6.746   3.322   0.038 -2.0112  1.6152  0.9082
17347TIP3    H273457   6.633   3.290  -0.058 -2.6540 -0.7598  2.4167
17348TIP3   OH273458   5.608   3.647   2.132 -0.3809 -0.2050  0.3716
17348TIP3    H173459   5.579   3.575   2.187 -1.7730 -0.7993 -1.1082
17348TIP3    H273460   5.529   3.679   2.089  0.3543  1.6160  0.2950
17349TIP3   OH273461   2.081   2.010  11.996 -1.0458 -0.0667 -1.1112
17349TIP3    H173462   2.045   1.921  12.002  1.9758 -1.2914 -0.0694
17349TIP3    H273463   2.085   2.041  12.087  1.2165 -0.2974 -1.1004
17350TIP3   OH273464   2.607   2.639   2.217  0.2902  0.0191  0.0418
17350TIP3    H173465   2.639   2.584   2.145  1.4237 -0.4213  0.8543
17350TIP3    H273466   2.665   2.715   2.218  0.0918  0.1710  0.3016
17351TIP3   OH273467   1.043   4.034  13.880  0.5830 -0.2439  0.1950
17351TIP3    H173468   0.974   4.019  13.945  0.3885 -1.5009 -0.2972
17351TIP3    H273469   1.061   4.128  13.887 -1.2911  0.1428  0.2139
17352TIP3   OH273470   4.547   5.438   5.634  0.1987  0.1774 -0.4284
17352TIP3    H173471   4.588   5.357   5.604 -1.3553 -0.4771 -0.8160
17352TIP3    H273472   4.619   5.488   5.672  1.2983 -1.0919 -0.7933
17353TIP3   OH273473   0.418   4.936  13.555 -0.3597  0.4160 -0.1534
17353TIP3    H173474   0.408   4.842  13.573 -2.2884  0.1847 -2.2762
17353TIP3    H273475   0.488   4.939  13.489 -0.1685  0.4985  0.0526
17354TIP3   OH273476   2.684   5.147   3.552 -0.1317  0.1812 -0.5908
17354TIP3    H173477   2.713   5.238   3.540  1.9299 -0.3817  0.0399
17354TIP3    H273478   2.702   5.128   3.644  0.0403 -1.0796 -0.8824
17355TIP3   OH273479   2.392   5.116   2.202 -0.0761  0.1329 -0.0117
17355TIP3    H173480   2.437   5.186   2.251  1.7282 -0.5500 -0.6543
17355TIP3    H273481   2.398   5.039   2.258 -3.3883  0.7868  1.3751
17356TIP3   OH273482   0.844   1.852   6.284 -0.0396 -0.0020 -0.0501
17356TIP3    H173483   0.934   1.823   6.292 -0.0570 -0.1384 -0.3401
17356TIP3    H273484   0.836   1.924   6.346  0.0342 -0.5373  0.5824
17357TIP3   OH273485   4.315   5.383  12.293  0.2976  0.3868  0.6124
17357TIP3    H173486   4.397   5.374  12.342  0.9712 -0.2821 -0.6031
17357TIP3    H273487   4.324   5.322  12.219 -0.3694  1.9183 -0.7729
17358TIP3   OH273488   3.051   5.742  16.102 -0.4637 -0.1586  0.2150
17358TIP3    H173489   3.067   5.822  16.152  1.4314 -0.4708  0.1232
17358TIP3    H273490   3.102   5.752  16.022 -0.5444 -1.2875  0.0044
17359TIP3   OH273491   2.551   5.050   4.494  0.2302  0.2297 -0.1909
17359TIP3    H173492   2.489   4.986   4.459 -1.7016  1.5009  0.8106
17359TIP3    H273493   2.551   5.034   4.589  1.2912  0.3887 -0.1539
17360TIP3   OH273494   2.726   4.929   1.848 -0.0288  0.2148 -0.5844
17360TIP3    H173495   2.782   4.992   1.893  0.5186 -0.7904  0.1630
17360TIP3    H273496   2.666   4.898   1.916 -1.0924  0.8243 -1.2368
17361TIP3   OH273497   6.649   3.694   1.340  0.3534 -0.1962 -0.3374
17361TIP3    H173498   6.658   3.638   1.262  1.5595 -0.8847  0.2715
17361TIP3    H273499   6.569   3.663   1.382 -0.7216  0.6752 -1.6778
17362TIP3   OH273500   3.866   3.822  12.516 -0.3480 -0.2090  0.3899
17362TIP3    H173501   3.957   3.797  12.498 -0.1506 -0.0650  1.1739
17362TIP3    H273502   3.861   3.915  12.491 -1.1247 -1.0055 -2.6813
17363TIP3   OH273503   5.031   1.524  17.078 -0.6653 -0.0483 -0.5694
17363TIP3    H173504   5.041   1.604  17.027  0.2534 -1.0830 -2.0684
17363TIP3    H273505   4.937   1.513  17.088 -0.8948 -0.2290 -2.7510
17364TIP3   OH273506   3.631   2.211  11.561  0.1753  0.3097 -0.6520
17364TIP3    H173507   3.618   2.177  11.649 -2.3939 -0.4914 -1.2787
17364TIP3    H273508   3.712   2.261  11.566  0.8476 -0.9350  1.7871
17365TIP3   OH273509   6.320   6.596   1.334  0.3227  0.6981 -0.0059
17365TIP3    H173510   6.372   6.669   1.302 -1.7691  1.5236 -1.6003
17365TIP3    H273511   6.364   6.518   1.299  1.6558  1.2562  0.4038
17366TIP3   OH273512   6.299   6.360   1.631  0.6399 -0.2165 -0.4420
17366TIP3    H173513   6.298   6.302   1.555  2.2219 -0.5917 -0.2088
17366TIP3    H273514   6.265   6.307   1.703 -0.3627 -0.0299 -0.7850
17367TIP3   OH273515   3.305   2.687   4.821 -0.1440  0.0014  0.6696
17367TIP3    H173516   3.315   2.620   4.889 -1.3604  0.8210  1.6826
17367TIP3    H273517   3.360   2.760   4.851  0.7771 -0.3448 -0.1704
17368TIP3   OH273518   5.573   5.964  17.113  0.6209  0.3050 -0.4846
17368TIP3    H173519   5.509   5.938  17.179  0.4914  0.2179 -0.6433
17368TIP3    H273520   5.535   5.936  17.030  0.4722  1.0132 -0.6547
17369TIP3   OH273521   3.170   0.300   4.489 -0.5801 -0.8459 -0.2320
17369TIP3    H173522   3.077   0.280   4.482 -0.9505  0.5133  0.6300
17369TIP3    H273523   3.181   0.332   4.579  0.3576  0.7813 -0.9063
17370TIP3   OH273524   4.556   3.266  14.426 -0.3681 -0.2784  0.4663
17370TIP3    H173525   4.515   3.314  14.498  1.4930 -0.6859  1.8114
17370TIP3    H273526   4.483   3.218  14.385 -2.0639  2.7072 -0.1728
17371TIP3   OH273527   1.537   1.602   4.625  0.0405 -0.0441  0.3031
17371TIP3    H173528   1.455   1.561   4.654  1.2233 -1.2098  2.0845
17371TIP3    H273529   1.535   1.592   4.529 -1.2421 -1.3043  0.4326
17372TIP3   OH273530   2.903   4.559  13.538 -0.4170 -0.3469 -0.3215
17372TIP3    H173531   2.975   4.498  13.523  1.2644  1.3135  0.7226
17372TIP3    H273532   2.946   4.644  13.549 -2.4987  0.5952  0.8214
17373TIP3   OH273533   2.613   6.394  13.010 -0.1428 -0.0379  0.6879
17373TIP3    H173534   2.695   6.371  13.053 -0.4731  1.0582  1.9552
17373TIP3    H273535   2.547   6.341  13.055 -0.1613 -0.7923 -0.2153
17374TIP3   OH273536   0.597   4.730  17.103  0.2684 -0.5921  0.2699
17374TIP3    H173537   0.634   4.813  17.072 -0.9975 -0.1147  0.0405
17374TIP3    H273538   0.582   4.679  17.024  1.8528 -1.4095  0.4569
17375TIP3   OH273539   0.027   3.324  15.090  0.4365 -0.3173 -0.4141
17375TIP3    H173540   0.022   3.384  15.016 -1.4009  1.3342  1.0136
17375TIP3    H273541  -0.062   3.319  15.124  1.3560 -0.5680  2.0712
17376TIP3   OH273542   6.590   2.406   0.766  0.5803 -0.4006  0.0070
17376TIP3    H173543   6.671   2.368   0.800 -0.4562 -1.2582  1.5959
17376TIP3    H273544   6.569   2.353   0.690  0.6477 -1.2359  0.5573
17377TIP3   OH273545   1.828   4.075   5.997 -0.0759  0.1373 -0.5152
17377TIP3    H173546   1.827   4.156   6.048 -0.3132 -0.3395  0.2524
17377TIP3    H273547   1.861   4.101   5.911  2.5959  0.5565  0.5660
17378TIP3   OH273548   5.931   1.087  12.901 -0.6806  0.5284 -0.6308
17378TIP3    H173549   5.863   1.134  12.951 -0.7796 -1.1420  0.8509
17378TIP3    H273550   5.995   1.154  12.880 -2.8130  2.1717 -2.1322
17379TIP3   OH273551   5.236   6.097  16.567  0.1258  0.2128 -0.5286
17379TIP3    H173552   5.177   6.056  16.630  0.5998 -0.5765 -0.5952
17379TIP3    H273553   5.322   6.061  16.587  0.4068  0.5287 -1.1421
17380TIP3   OH273554   3.069   6.546  14.999 -0.0985  0.0166  0.9766
17380TIP3    H173555   3.058   6.597  15.079 -0.6600  1.0482  0.2611
17380TIP3    H273556   3.118   6.604  14.941  1.3709 -1.1743  0.9812
17381TIP3   OH273557   1.133   0.119  13.977  0.2560 -0.0287  0.5438
17381TIP3    H173558   1.227   0.106  13.988  0.6520 -0.8894 -3.3129
17381TIP3    H273559   1.122   0.214  13.984  1.3926  0.0796  1.0907
17382TIP3   OH273560   2.068   3.419  12.391 -0.5856  0.0513 -0.1524
17382TIP3    H173561   2.109   3.433  12.305 -1.8997  1.3529 -0.5816
17382TIP3    H273562   2.021   3.336  12.382  0.7512 -0.7243 -0.1099
17383TIP3   OH273563   1.846   2.870   3.520 -0.3793 -0.0964 -0.3220
17383TIP3    H173564   1.857   2.778   3.495 -1.9397 -0.1317 -0.9466
17383TIP3    H273565   1.934   2.908   3.511 -0.3356 -0.7781 -3.1875
17384TIP3   OH273566   5.556   1.561   1.124 -0.1472  0.5684  0.3384
17384TIP3    H173567   5.538   1.499   1.194 -1.7938  0.7723  0.1128
17384TIP3    H273568   5.472   1.573   1.080  0.3824  2.1447 -0.2831
17385TIP3   OH273569   5.282   4.879   2.063 -0.2809 -0.0671  0.8043
17385TIP3    H173570   5.191   4.880   2.036 -0.0188  1.0763 -0.0803
17385TIP3    H273571   5.329   4.844   1.988  0.0540 -0.2439  1.0947
17386TIP3   OH273572   1.897   4.087   4.625 -0.0344 -0.5906  0.2132
17386TIP3    H173573   1.883   4.181   4.631 -1.9010 -0.7477 -1.3430
17386TIP3    H273574   1.809   4.049   4.625  0.6678 -2.2955  0.1431
17387TIP3   OH273575   3.000   2.605   4.738 -0.3492  0.0659  0.1536
17387TIP3    H173576   2.967   2.692   4.715  1.3195  0.9723  1.0945
17387TIP3    H273577   3.094   2.618   4.751 -0.1899 -1.7482  0.9126
17388TIP3   OH273578   4.690   1.220  13.413  0.4898 -0.2718 -0.1919
17388TIP3    H173579   4.703   1.310  13.382 -1.9772  1.3064  3.0212
17388TIP3    H273580   4.765   1.202  13.469  0.3674  0.3005  0.1668
17389TIP3   OH273581   2.252   4.766   1.231 -0.4636 -0.0742 -0.5049
17389TIP3    H173582   2.274   4.705   1.161  0.2306  0.4111 -0.7273
17389TIP3    H273583   2.337   4.790   1.269 -0.8225 -0.1968  0.3851
17390TIP3   OH273584   0.473   3.391  17.188  0.1345  0.1269  0.2885
17390TIP3    H173585   0.550   3.398  17.132 -0.0331 -0.4233 -0.0227
17390TIP3    H273586   0.449   3.481  17.208  0.6043  0.3109  0.0295
17391TIP3   OH273587   2.392   4.432   2.415 -0.7502  0.1490 -0.2981
17391TIP3    H173588   2.428   4.471   2.495 -1.2333  1.2179 -0.5893
17391TIP3    H273589   2.465   4.384   2.377  0.4451  2.3864 -0.9414
17392TIP3   OH273590   1.910   4.734  14.438 -0.1236 -0.5654  0.0908
17392TIP3    H173591   1.845   4.781  14.491 -2.0758 -3.6231  0.5519
17392TIP3    H273592   1.906   4.776  14.352  0.0427  1.7427  1.1867
17393TIP3   OH273593   3.684   5.031  16.030 -0.1651  0.5625 -0.2056
17393TIP3    H173594   3.603   5.076  16.006 -0.0660  0.3820 -0.8678
17393TIP3    H273595   3.737   5.033  15.951 -0.2434 -0.8902 -0.3020
17394TIP3   OH273596   6.474   0.537   3.990  0.3365 -0.4177 -0.0846
17394TIP3    H173597   6.538   0.583   4.045  0.2276  0.8249 -0.9601
17394TIP3    H273598   6.439   0.469   4.046  1.5323 -0.3263  0.8135
17395TIP3   OH273599   1.546   3.530   5.357  0.0785 -0.0846  0.1257
17395TIP3    H173600   1.627   3.575   5.333  0.0725 -1.0382 -1.7940
17395TIP3    H273601   1.495   3.596   5.404  0.7051  1.4731 -1.3027
17396TIP3   OH273602   2.382   0.148  15.509 -0.3963 -0.6013 -0.2566
17396TIP3    H173603   2.381   0.184  15.421  1.2995 -0.9423 -0.4307
17396TIP3    H273604   2.451   0.082  15.508 -1.6112 -1.9493  0.8169
17397TIP3   OH273605   1.558   5.517   5.245  0.0945 -0.3638 -0.3465
17397TIP3    H173606   1.543   5.426   5.270 -0.8654 -0.2076 -0.3139
17397TIP3    H273607   1.557   5.565   5.328  0.0080 -0.2499 -0.4129
17398TIP3   OH273608   5.948   2.937  11.872  0.4110 -0.1488 -0.3299
17398TIP3    H173609   5.959   3.004  11.939  0.0710 -0.8688  0.4558
17398TIP3    H273610   6.006   2.963  11.801  1.1720  0.3273  0.4694
17399TIP3   OH273611   2.940   6.516   2.730  0.6652 -0.1076  0.4821
17399TIP3    H173612   2.884   6.476   2.797 -0.1193 -1.2019 -0.8142
17399TIP3    H273613   2.896   6.498   2.647  2.6041 -0.4460 -0.5090
17400TIP3   OH273614   0.769   0.702   6.051  0.4069  0.2391 -0.3873
17400TIP3    H173615   0.720   0.620   6.047  1.1905 -0.2700  0.1564
17400TIP3    H273616   0.766   0.726   6.144  1.3170  0.1214 -0.3286
17401TIP3   OH273617   4.275   2.426  14.838 -0.1925  0.6969  0.0540
17401TIP3    H173618   4.347   2.393  14.891  1.2591  1.2854 -1.5220
17401TIP3    H273619   4.220   2.474  14.900 -1.0877 -2.5732  1.9128
17402TIP3   OH273620   3.023   1.654   3.928 -0.1759  0.0391  0.1202
17402TIP3    H173621   3.074   1.727   3.965 -0.1424 -0.4116  0.9688
17402TIP3    H273622   3.050   1.578   3.978 -1.6295 -0.2249  0.5224
17403TIP3   OH273623   2.662   2.253   2.175 -0.0667 -0.0310  0.2601
17403TIP3    H173624   2.731   2.260   2.109 -0.6881  2.8198 -0.1441
17403TIP3    H273625   2.707   2.217   2.252  1.4180 -0.0699 -0.5916
17404TIP3   OH273626   6.135   0.335  12.302 -0.3773 -0.2695 -0.1403
17404TIP3    H173627   6.071   0.278  12.345 -0.4892  1.0261  1.4821
17404TIP3    H273628   6.082   0.400  12.256 -0.2438 -0.5140 -0.6374
17405TIP3   OH273629   6.615   1.188   3.892  0.2648  0.2573 -0.5441
17405TIP3    H173630   6.561   1.236   3.955  0.3802  0.5559 -0.6722
17405TIP3    H273631   6.557   1.176   3.816  0.7865  1.7152 -1.1904
17406TIP3   OH273632   2.785   3.319  11.035 -0.4780 -0.6015  0.2111
17406TIP3    H173633   2.881   3.317  11.036 -0.4845 -1.0669  0.8397
17406TIP3    H273634   2.763   3.410  11.018  0.0815 -0.2081  1.5120
17407TIP3   OH273635   5.100   5.890  16.254 -0.0282 -0.2167  0.0620
17407TIP3    H173636   5.175   5.832  16.247 -0.9941 -1.6016  0.9416
17407TIP3    H273637   5.137   5.978  16.248  1.6673 -0.8769  0.6259
17408TIP3   OH273638   3.183   4.543  12.317 -0.1233  0.3610  0.2099
17408TIP3    H173639   3.230   4.480  12.262 -1.0115 -0.9237  0.8968
17408TIP3    H273640   3.162   4.494  12.396  1.2830  2.2486  1.7643
17409TIP3   OH273641   5.534   5.693   5.787  0.3681  0.1103  0.3083
17409TIP3    H173642   5.469   5.651   5.844 -0.1428  0.4766  0.0047
17409TIP3    H273643   5.528   5.786   5.809 -1.6398  0.5984 -2.1006
17410TIP3   OH273644   4.128   4.238  16.612 -0.0331  0.2264  0.2600
17410TIP3    H173645   4.210   4.249  16.563  0.2787 -0.0256  0.7270
17410TIP3    H273646   4.059   4.246  16.545  0.4216 -1.2151 -0.4031
17411TIP3   OH273647   3.323   4.772   1.447  0.4512 -0.0664  0.0354
17411TIP3    H173648   3.382   4.833   1.403 -1.2787  1.4709 -0.2072
17411TIP3    H273649   3.269   4.735   1.377 -0.4142  0.2643  0.5164
17412TIP3   OH273650   1.591   1.067   2.195 -0.2706 -0.1902 -0.2101
17412TIP3    H173651   1.597   1.023   2.279  0.2062  1.3187  0.5683
17412TIP3    H273652   1.677   1.106   2.182 -0.8498  0.9898 -0.5985
17413TIP3   OH273653   5.069   3.523   1.695 -0.1847 -0.7584 -0.2591
17413TIP3    H173654   5.158   3.529   1.730 -0.2875  2.4421 -0.3940
17413TIP3    H273655   5.080   3.492   1.605  0.6031 -2.4021  0.3826
17414TIP3   OH273656   2.708   0.086  15.267 -0.3644  0.2578 -0.2094
17414TIP3    H173657   2.621   0.126  15.270 -0.7216 -0.5145 -0.2375
17414TIP3    H273658   2.693  -0.006  15.287  0.3756  0.0123 -0.7640
17415TIP3   OH273659   3.176   6.049   1.015 -0.0373  0.1429 -0.0271
17415TIP3    H173660   3.097   6.084   0.974 -0.0005 -0.9859 -1.0648
17415TIP3    H273661   3.144   6.001   1.092 -0.1535  1.7135  0.9335
17416TIP3   OH273662   6.767   3.517  14.815  0.4651  0.4950 -0.1915
17416TIP3    H173663   6.781   3.610  14.795  0.9004  0.3839 -0.4199
17416TIP3    H273664   6.849   3.475  14.788 -0.0056 -0.0597 -0.7535
17417TIP3   OH273665   3.568   5.670  15.510  0.3998 -0.0505 -0.0780
17417TIP3    H173666   3.642   5.707  15.558  1.4422  1.0565 -2.4184
17417TIP3    H273667   3.497   5.733  15.524  0.8552  0.5468 -0.4012
17418TIP3   OH273668   0.093   3.193  13.465  0.3527 -0.1597 -0.4075
17418TIP3    H173669   0.155   3.258  13.432  0.0210 -0.1705 -1.0550
17418TIP3    H273670   0.049   3.160  13.387 -0.0831 -0.5485  0.0002
17419TIP3   OH273671   6.016   4.884  15.799 -0.8925  0.0872 -0.1808
17419TIP3    H173672   6.048   4.964  15.756 -0.7716 -0.3291 -0.8652
17419TIP3    H273673   6.093   4.848  15.843 -0.5856 -0.4814 -1.1591
17420TIP3   OH273674   2.257   4.728   4.741 -0.2090 -0.5311 -0.1408
17420TIP3    H173675   2.220   4.810   4.708  0.5057 -0.2803 -0.3229
17420TIP3    H273676   2.195   4.698   4.807 -0.7765 -0.1507 -0.5036
17421TIP3   OH273677   1.907   6.641  17.081 -0.0507 -0.2646  0.0660
17421TIP3    H173678   1.825   6.680  17.053 -0.7154  0.0540  2.3471
17421TIP3    H273679   1.883   6.579  17.150  1.5277 -0.8184  0.1567
17422TIP3   OH273680   3.374   5.690  13.327 -0.1252  0.0482 -0.4463
17422TIP3    H173681   3.429   5.767  13.339  2.2080 -1.8286  1.6281
17422TIP3    H273682   3.286   5.725  13.310  1.0150  3.1160 -0.3274
17423TIP3   OH273683   0.097   5.739   4.765 -0.2156  0.0393  0.2706
17423TIP3    H173684   0.171   5.800   4.759 -1.4192  1.5524  0.5628
17423TIP3    H273685   0.102   5.688   4.684  1.6264 -0.4567  0.6537
17424TIP3   OH273686   1.404   0.164   5.414  0.2925  0.2249  0.3884
17424TIP3    H173687   1.486   0.114   5.413  1.2708  1.8064  0.0396
17424TIP3    H273688   1.369   0.150   5.501  0.2954 -1.4712  0.1376
17425TIP3   OH273689   6.289   3.677   3.215 -0.0227  0.0722 -0.3917
17425TIP3    H173690   6.213   3.662   3.158 -1.3402 -0.7760  1.5327
17425TIP3    H273691   6.254   3.729   3.287  1.8649  2.0544 -0.8608
17426TIP3   OH273692   0.731   3.048   2.285  0.2454  0.0549  0.5966
17426TIP3    H173693   0.772   3.125   2.322  2.1020 -0.1241 -1.0117
17426TIP3    H273694   0.801   2.982   2.282 -0.2351 -0.4065 -1.7333
17427TIP3   OH273695   1.258   4.594  15.036 -0.0198 -0.7612 -0.7754
17427TIP3    H173696   1.305   4.569  15.115 -0.9789  0.4475  0.2047
17427TIP3    H273697   1.203   4.518  15.016 -1.2885 -0.3277  0.9068
17428TIP3   OH273698   4.532   0.226  14.067 -0.3696  0.0178 -0.8824
17428TIP3    H173699   4.451   0.181  14.092  1.3075 -0.5876  3.9889
17428TIP3    H273700   4.593   0.155  14.047 -1.0242  0.4774 -5.0350
17429TIP3   OH273701   4.669   1.482   2.856 -0.3101 -0.2747 -0.2872
17429TIP3    H173702   4.715   1.557   2.896  0.1191 -0.6186 -0.1377
17429TIP3    H273703   4.739   1.425   2.825 -0.6422 -0.6688 -0.3056
17430TIP3   OH273704   3.049   5.918  12.976  0.7152  0.6260  0.0042
17430TIP3    H173705   3.023   5.846  12.919  2.0925  0.2507 -0.1454
17430TIP3    H273706   3.105   5.974  12.922  0.7214  1.1206  0.5104
17431TIP3   OH273707   6.583   5.054   1.161  0.0855  0.0883 -0.6189
17431TIP3    H173708   6.663   5.007   1.137  0.0928 -0.2784  0.1006
17431TIP3    H273709   6.612   5.143   1.181  0.3520 -0.1077 -0.1227
17432TIP3   OH273710   4.990   6.550   1.292 -0.5551  0.2714  0.7629
17432TIP3    H173711   4.991   6.554   1.387  0.1911  1.3144  0.7171
17432TIP3    H273712   5.077   6.519   1.268 -0.0439  2.0054  0.3437
17433TIP3   OH273713   5.040   5.093   1.330 -0.3699  0.2808  0.0231
17433TIP3    H173714   5.128   5.096   1.293 -0.1843  0.0495  0.4409
17433TIP3    H273715   5.018   5.185   1.347 -0.8267  0.4649 -1.5142
17434TIP3   OH273716   1.957   4.054   2.851  0.1289  0.0120 -0.3375
17434TIP3    H173717   1.892   4.108   2.806 -0.2010 -0.0296  0.0820
17434TIP3    H273718   1.904   3.988   2.897  0.5042 -0.4056 -0.5045
17435TIP3   OH273719   0.146   5.784   3.084 -0.5138 -0.1301  0.2982
17435TIP3    H173720   0.187   5.713   3.134 -0.7812 -0.7371 -0.3421
17435TIP3    H273721   0.061   5.796   3.126 -0.2403  0.2007  0.7657
17436TIP3   OH273722   3.767   6.132   3.085 -0.3851  0.2175  0.8421
17436TIP3    H173723   3.806   6.194   3.146  0.6041  1.1680 -0.7283
17436TIP3    H273724   3.833   6.121   3.016 -0.8022 -2.0714  0.7496
17437TIP3   OH273725   1.572   5.681   6.161 -0.0892 -0.4576  0.2247
17437TIP3    H173726   1.558   5.587   6.176  0.6815 -0.7830 -1.0442
17437TIP3    H273727   1.663   5.695   6.185 -0.5118  0.2010  1.4795
17438TIP3   OH273728   6.661   2.404  12.535  0.1008  0.0045 -0.2624
17438TIP3    H173729   6.723   2.355  12.481 -1.5560 -1.0911 -1.2273
17438TIP3    H273730   6.682   2.496  12.519  1.2662 -0.3455 -0.7922
17439TIP3   OH273731   4.883   6.441  11.681 -0.0181  0.2399  0.6840
17439TIP3    H173732   4.919   6.353  11.670  1.6290  0.5133  3.3702
17439TIP3    H273733   4.905   6.464  11.771  0.8031  3.9811 -0.4278
17440TIP3   OH273734   6.600   3.842  13.250 -0.3027 -0.1330 -0.3190
17440TIP3    H173735   6.675   3.813  13.198 -0.5539 -0.0751 -0.7079
17440TIP3    H273736   6.639   3.896  13.319  0.2388 -1.8920  0.7881
17441TIP3   OH273737   2.443   5.352  15.505  0.5843 -0.3271 -0.1201
17441TIP3    H173738   2.536   5.368  15.491  0.5278 -0.2108 -0.3747
17441TIP3    H273739   2.416   5.301  15.428  0.6518 -1.2029  0.4370
17442TIP3   OH273740   2.026   4.557  11.294  0.3544 -0.0162 -0.4297
17442TIP3    H173741   1.991   4.644  11.274 -0.9252 -0.4157  0.0124
17442TIP3    H273742   2.106   4.575  11.343 -0.7103  0.9227  1.0103
17443TIP3   OH273743   5.886   6.635   4.711 -0.6143 -0.4471 -0.8658
17443TIP3    H173744   5.850   6.645   4.799 -0.8765  0.0254 -1.0268
17443TIP3    H273745   5.970   6.680   4.714 -0.3748 -0.8943 -0.7090
17444TIP3   OH273746   1.335   4.600  16.338 -0.0152 -0.5634  0.2626
17444TIP3    H173747   1.360   4.667  16.402 -0.5971 -0.0062 -0.0914
17444TIP3    H273748   1.416   4.581  16.291  0.4631 -1.1263  1.3021
17445TIP3   OH273749   0.514   4.857  10.604 -0.1050 -0.2038 -0.3480
17445TIP3    H173750   0.573   4.806  10.548  0.1169  0.0829 -0.3777
17445TIP3    H273751   0.500   4.939  10.556 -0.2408 -0.1253 -0.1755
17446TIP3   OH273752   5.945   0.046  16.885 -0.3767  0.0695  0.1930
17446TIP3    H173753   6.002  -0.004  16.943 -0.4889 -1.1597 -0.7291
17446TIP3    H273754   5.865   0.059  16.935  0.4885  1.3248  1.2886
17447TIP3   OH273755   6.427   3.317  15.551  0.1463  0.2138 -0.5329
17447TIP3    H173756   6.349   3.280  15.593  1.9281 -2.6552  0.4502
17447TIP3    H273757   6.454   3.250  15.488  2.9099  0.1669  0.5887
17448TIP3   OH273758   3.336   1.903  11.466  0.2946  0.4906 -0.4412
17448TIP3    H173759   3.423   1.865  11.456 -0.3052 -0.8829 -0.5566
17448TIP3    H273760   3.323   1.909  11.561  0.4224  0.4831 -0.4241
17449TIP3   OH273761   1.507   4.512   5.238  0.4470  0.1832 -0.1152
17449TIP3    H173762   1.503   4.594   5.286 -0.3694 -0.2755  0.6054
17449TIP3    H273763   1.593   4.475   5.261 -0.3478 -0.5193  1.8059
17450TIP3   OH273764   3.809   3.609  16.944 -0.6359 -0.2357 -0.2808
17450TIP3    H173765   3.716   3.592  16.928 -1.0671  1.5096  0.2704
17450TIP3    H273766   3.810   3.692  16.992  1.1094 -1.1033  1.2553
17451TIP3   OH273767   2.685   3.053  12.365 -0.0776 -0.0605  0.1984
17451TIP3    H173768   2.629   2.998  12.419 -0.2467 -1.6006 -1.4869
17451TIP3    H273769   2.749   3.090  12.426 -0.1491 -1.9001  1.4338
17452TIP3   OH273770   1.514   4.753   4.599 -0.2681 -0.6356 -0.2491
17452TIP3    H173771   1.584   4.810   4.568 -0.8946  0.8358  0.9858
17452TIP3    H273772   1.433   4.798   4.574 -0.7787 -0.1025  2.2498
17453TIP3   OH273773   2.843   0.253   3.241 -0.4195  0.1950 -0.1373
17453TIP3    H173774   2.937   0.261   3.224 -0.0771 -0.5404  1.3121
17453TIP3    H273775   2.825   0.323   3.304 -0.1175 -1.8359  2.2715
17454TIP3   OH273776   0.026   6.775  16.410  0.4773 -0.2285  0.0809
17454TIP3    H173777  -0.044   6.726  16.367  1.4116 -0.3891 -1.3117
17454TIP3    H273778   0.098   6.774  16.346  0.5419  2.8823  0.0363
17455TIP3   OH273779   0.757   2.406   4.507  0.0328 -0.2036  0.1681
17455TIP3    H173780   0.765   2.502   4.505 -0.2812 -0.1580  0.9465
17455TIP3    H273781   0.790   2.378   4.422 -2.4649  0.7839 -1.2014
17456TIP3   OH273782   2.868   0.518   4.003  0.5728  0.0365 -0.4042
17456TIP3    H173783   2.905   0.604   4.025  1.7653 -0.7030  0.5570
17456TIP3    H273784   2.944   0.463   3.985 -0.0751 -1.3201  0.8389
17457TIP3   OH273785   3.776   6.107  11.375 -0.0418 -0.2923 -0.1323
17457TIP3    H173786   3.817   6.021  11.382  0.5785  0.0021 -0.1884
17457TIP3    H273787   3.848   6.169  11.383 -0.7383  0.2859  2.2186
17458TIP3   OH273788   5.800   2.369  15.271 -0.0695  0.0508  0.0379
17458TIP3    H173789   5.894   2.351  15.264 -0.3370 -0.9565 -1.1002
17458TIP3    H273790   5.779   2.350  15.362  0.7343 -0.1968  0.1738
17459TIP3   OH273791   0.840   5.263  15.091  0.2230  0.1500 -0.5842
17459TIP3    H173792   0.800   5.228  15.012  1.3541 -2.5742  0.0216
17459TIP3    H273793   0.777   5.329  15.122 -2.6272 -2.2972 -0.9904
17460TIP3   OH273794   3.034   4.878  11.013  0.0428 -0.6648  0.6098
17460TIP3    H173795   3.099   4.897  10.945 -0.6924 -0.4976 -0.0489
17460TIP3    H273796   3.019   4.962  11.056 -2.5313  0.1343 -1.7070
17461TIP3   OH273797   3.775   2.615  10.771  0.3848  0.0863 -0.5076
17461TIP3    H173798   3.820   2.697  10.749  0.2195  0.0318 -1.0643
17461TIP3    H273799   3.685   2.642  10.791  0.0855 -0.0518 -1.5953
17462TIP3   OH273800   1.910   5.983  14.911 -0.2434 -0.4966  0.2356
17462TIP3    H173801   1.991   5.992  14.860 -0.9346  0.7613 -0.6997
17462TIP3    H273802   1.938   5.992  15.002  0.6237  0.3349 -0.0984
17463TIP3   OH273803   3.368   2.398  13.267 -0.0689  0.6084  0.4081
17463TIP3    H173804   3.321   2.469  13.224 -1.2224 -2.0230 -2.8886
17463TIP3    H273805   3.302   2.357  13.323 -0.4425 -0.1109 -0.5386
17464TIP3   OH273806   6.614   4.068  11.058 -0.0588  0.0776 -0.2786
17464TIP3    H173807   6.607   3.991  11.115 -2.0089 -0.0047 -0.6222
17464TIP3    H273808   6.528   4.109  11.061  0.7186  1.7886 -0.7733
17465TIP3   OH273809   1.382   5.186   2.357 -0.0472  0.2920 -0.6959
17465TIP3    H173810   1.308   5.149   2.308  0.8825 -2.7375  0.0759
17465TIP3    H273811   1.356   5.178   2.449 -0.0577  2.1708 -0.5139
17466TIP3   OH273812   0.862   0.573   1.290  0.0500 -0.3765  0.6139
17466TIP3    H173813   0.882   0.482   1.266  0.9182 -0.4009  1.3914
17466TIP3    H273814   0.948   0.613   1.304 -0.2762  0.9666 -1.1246
17467TIP3   OH273815   4.350   6.530   5.911 -0.8012 -0.2346 -0.0159
17467TIP3    H173816   4.320   6.470   5.979  3.3722 -0.4104  1.8639
17467TIP3    H273817   4.360   6.614   5.956  0.7830 -0.0434 -0.6629
17468TIP3   OH273818   0.338   3.477   5.832 -0.2786  0.0489 -0.3404
17468TIP3    H173819   0.322   3.538   5.904  0.0887  1.3662 -1.3586
17468TIP3    H273820   0.301   3.520   5.755  1.9235  0.0035 -1.4607
17469TIP3   OH273821   3.238   4.608  16.619 -0.7165  0.7620 -0.0649
17469TIP3    H173822   3.174   4.595  16.689 -1.8372  0.3422 -1.1434
17469TIP3    H273823   3.321   4.617  16.664 -1.0290 -2.0576  1.2163
17470TIP3   OH273824   3.119   1.188   0.210 -0.2525  0.2554  0.5464
17470TIP3    H173825   3.084   1.159   0.294  1.4763  0.6267  1.4304
17470TIP3    H273826   3.205   1.226   0.232 -0.0663  0.9523 -1.2977
17471TIP3   OH273827   4.494   4.348   1.003 -0.2781 -0.1014  0.2281
17471TIP3    H173828   4.406   4.360   0.968  0.1365 -1.1607 -1.2532
17471TIP3    H273829   4.486   4.276   1.066 -0.4686 -0.2390  0.0478
17472TIP3   OH273830   3.868   4.945   1.332 -0.2247  0.1060  0.0578
17472TIP3    H173831   3.785   4.919   1.292 -1.1709  3.1217 -0.0466
17472TIP3    H273832   3.918   4.985   1.260  0.5650  0.0304  0.5508
17473TIP3   OH273833   0.157   3.850   4.303  0.4225 -0.1327  0.2196
17473TIP3    H173834   0.131   3.758   4.299  1.9072 -0.5236 -0.9593
17473TIP3    H273835   0.166   3.868   4.397 -1.1615 -0.8063  0.5098
17474TIP3   OH273836   5.810   1.877  12.583  0.1546 -0.0591 -0.2502
17474TIP3    H173837   5.746   1.947  12.598  1.4522  1.0524  0.1855
17474TIP3    H273838   5.797   1.851  12.492  0.6441  1.7653 -0.8582
17475TIP3   OH273839   1.967   0.856  13.095  0.5308  0.0914  0.0615
17475TIP3    H173840   1.960   0.761  13.091  3.8157 -0.2572  1.1564
17475TIP3    H273841   1.955   0.885  13.005 -0.6971 -1.3335 -0.2503
17476TIP3   OH273842   4.444   4.376  16.404 -0.0445  0.4079  0.2951
17476TIP3    H173843   4.512   4.375  16.471  0.6854 -0.0488 -0.4347
17476TIP3    H273844   4.421   4.468  16.394  0.1390  0.5158  0.8878
17477TIP3   OH273845   2.367   0.540   3.413  0.1387 -0.7067  0.4708
17477TIP3    H173846   2.384   0.611   3.475 -2.3211  0.3264  0.0180
17477TIP3    H273847   2.368   0.461   3.467  0.4984 -0.0775  1.3980
17478TIP3   OH273848   2.403   5.671  12.328  0.2258  0.1894  0.3668
17478TIP3    H173849   2.449   5.716  12.399  0.3404  1.6632 -0.6148
17478TIP3    H273850   2.315   5.655  12.362  0.8659 -0.9234  1.5568
17479TIP3   OH273851   3.358   5.850  16.276 -0.6665  0.0543 -0.1874
17479TIP3    H173852   3.313   5.770  16.248 -0.6167  0.4710 -1.4969
17479TIP3    H273853   3.432   5.819  16.328  0.4841 -0.8389 -2.2883
17480TIP3   OH273854   4.246   2.527  15.648 -0.2882 -0.0152  0.1976
17480TIP3    H173855   4.228   2.602  15.705 -0.1192 -0.1855  0.4773
17480TIP3    H273856   4.249   2.564  15.560 -0.8852  0.1959  0.2592
17481TIP3   OH273857   5.571   1.249  13.754  0.3140  0.3137 -0.7768
17481TIP3    H173858   5.567   1.340  13.724  1.1005  1.4964  2.5840
17481TIP3    H273859   5.643   1.211  13.703  1.4363  2.1814 -0.6225
17482TIP3   OH273860   0.071   1.276   5.886 -0.4156 -0.2327  0.7366
17482TIP3    H173861  -0.009   1.328   5.881 -0.1397  0.1825  0.6030
17482TIP3    H273862   0.063   1.212   5.815 -0.4087  0.1151  0.4237
17483TIP3   OH273863   4.589   1.425   0.537 -0.1129 -0.3335 -0.0618
17483TIP3    H173864   4.639   1.444   0.458 -1.3557  2.9120 -0.1681
17483TIP3    H273865   4.623   1.486   0.602 -0.8600 -1.1881  1.1520
17484TIP3   OH273866   3.220   1.216  13.850 -0.2185  0.4721 -0.1889
17484TIP3    H173867   3.149   1.184  13.795 -0.4716  3.2605 -1.5542
17484TIP3    H273868   3.205   1.173  13.935 -2.5362 -0.2857 -0.9278
17485TIP3   OH273869   1.715   3.996   5.738 -0.3332 -0.0132 -0.5099
17485TIP3    H173870   1.654   4.005   5.665  0.6488 -2.5136 -1.7014
17485TIP3    H273871   1.788   4.053   5.716 -0.5953  0.1799 -0.8810
17486TIP3   OH273872   0.448   0.197   1.287 -0.2335  0.0711  0.1548
17486TIP3    H173873   0.396   0.251   1.346 -0.2066  1.7446 -1.3323
17486TIP3    H273874   0.387   0.130   1.255 -0.2438 -0.8486  2.0508
17487TIP3   OH273875   5.165   1.141  12.116  0.2210 -0.3995 -0.3531
17487TIP3    H173876   5.171   1.113  12.207  0.7587  2.2944  0.4744
17487TIP3    H273877   5.253   1.125  12.080  0.2407 -0.7054 -0.1684
17488TIP3   OH273878   5.674   0.526  11.335 -0.2801  0.4034 -0.4185
17488TIP3    H173879   5.666   0.621  11.342 -3.6768  0.3757 -2.5177
17488TIP3    H273880   5.739   0.512  11.267  0.3963  1.2229  0.0543
17489TIP3   OH273881   6.272   5.340   4.360  0.7292 -0.1682  0.3199
17489TIP3    H173882   6.348   5.282   4.353  1.1496  0.3264  0.7543
17489TIP3    H273883   6.266   5.381   4.273  1.7203  0.7308  0.6708
17490TIP3   OH273884   0.495   1.059  12.046 -0.2309 -0.5079 -0.1938
17490TIP3    H173885   0.449   1.125  12.098  0.5161 -0.6006  0.5901
17490TIP3    H273886   0.580   1.051  12.088 -0.0157 -1.3646 -0.7946
17491TIP3   OH273887   5.745   3.275  13.856  0.2876 -0.5093 -0.1113
17491TIP3    H173888   5.711   3.323  13.931 -0.8151  2.2010 -2.2354
17491TIP3    H273889   5.839   3.294  13.855  0.2363 -0.2355  0.3492
17492TIP3   OH273890   4.515   5.940   5.912 -0.4895 -0.1800 -0.0529
17492TIP3    H173891   4.513   5.917   6.005  1.1047 -3.7058 -0.8251
17492TIP3    H273892   4.550   6.029   5.911  0.9749 -0.6646  2.6349
17493TIP3   OH273893   4.390   0.797   4.947 -0.0566  0.7184  0.1907
17493TIP3    H173894   4.332   0.861   4.988  0.0643  0.5377  0.6477
17493TIP3    H273895   4.331   0.730   4.912 -0.1083  0.3322  1.0022
17494TIP3   OH273896   1.719   4.923  13.388 -0.2864  0.3438 -0.1144
17494TIP3    H173897   1.800   4.905  13.436 -1.0661  0.3901  1.2513
17494TIP3    H273898   1.744   4.988  13.322  0.8725  0.0492  0.0215
17495TIP3   OH273899   3.475   2.207   3.616 -0.3145 -0.2764  0.2163
17495TIP3    H173900   3.487   2.259   3.536 -1.6370  0.8093  0.6936
17495TIP3    H273901   3.542   2.240   3.676 -0.4829  0.1698  0.1655
17496TIP3   OH273902   6.642   6.326   4.269 -0.1781 -0.2112  0.1400
17496TIP3    H173903   6.569   6.269   4.244 -0.3531  0.2394 -0.3906
17496TIP3    H273904   6.717   6.293   4.220 -0.0186 -0.6720  0.6827
17497TIP3   OH273905   1.360   5.034  12.614 -0.4350  0.2253 -0.0310
17497TIP3    H173906   1.329   5.027  12.704 -2.3938  0.6628 -0.6510
17497TIP3    H273907   1.348   4.947  12.577  2.6090 -0.6158  0.7791
17498TIP3   OH273908   4.422   0.337  13.833  0.1881 -0.1526  0.1647
17498TIP3    H173909   4.437   0.431  13.840 -1.6704  0.1157  0.8404
17498TIP3    H273910   4.453   0.302  13.917 -1.1535  0.1586  0.8060
17499TIP3   OH273911   3.917   1.452   3.114 -0.0021  0.0304  0.2005
17499TIP3    H173912   3.937   1.545   3.101 -1.3381  0.3956  0.6338
17499TIP3    H273913   3.971   1.426   3.189  0.5350  0.3925 -0.0557
17500TIP3   OH273914   6.045   6.223  11.228 -0.3302 -0.1443  0.8866
17500TIP3    H173915   6.076   6.273  11.152 -0.9026 -0.2539  0.5820
17500TIP3    H273916   5.994   6.286  11.278 -1.2428 -0.4849  0.3868
17501TIP3   OH273917   1.044   3.584  16.914  0.6110 -0.0637 -0.4949
17501TIP3    H173918   1.088   3.623  16.838 -0.1462  0.0966 -0.8621
17501TIP3    H273919   0.972   3.533  16.876 -0.4736  0.9445  0.1572
17502TIP3   OH273920   2.424   2.647  11.689 -0.1276 -0.7193 -0.4905
17502TIP3    H173921   2.488   2.578  11.672  0.7161 -0.3399  1.0246
17502TIP3    H273922   2.425   2.701  11.610  0.7535 -1.2380 -0.8425
17503TIP3   OH273923   0.819   2.871  13.654 -0.2216 -0.0764 -0.5288
17503TIP3    H173924   0.820   2.866  13.558 -0.0586  0.9808 -0.5962
17503TIP3    H273925   0.856   2.788  13.683  1.2125  0.2222 -1.4280
17504TIP3   OH273926   2.031   6.128   4.300 -0.2863 -0.0392  0.1723
17504TIP3    H173927   2.045   6.158   4.389 -1.6603 -0.4340  0.5171
17504TIP3    H273928   2.103   6.066   4.284  1.2151  1.6359  0.2439
17505TIP3   OH273929   2.188   3.558   6.264 -0.6122  0.1505  0.6060
17505TIP3    H173930   2.264   3.527   6.314 -1.8115 -0.5332  2.0383
17505TIP3    H273931   2.132   3.601   6.329 -1.2206  1.1216 -0.5322
17506TIP3   OH273932   0.341   4.501   1.596 -0.3810 -0.6064  0.2161
17506TIP3    H173933   0.347   4.563   1.523 -0.0616 -1.0279 -0.1161
17506TIP3    H273934   0.249   4.472   1.596 -0.4695 -0.3290  0.2144
17507TIP3   OH273935   5.048   2.727  12.708  0.0786 -0.3960  0.1708
17507TIP3    H173936   4.954   2.716  12.726 -0.0160  1.1900  0.7063
17507TIP3    H273937   5.092   2.683  12.781 -0.2729  0.5867  0.9907
17508TIP3   OH273938   4.670   0.916   4.387 -0.2791 -0.4527  0.3523
17508TIP3    H173939   4.615   0.991   4.367  0.2943  0.3523  1.7199
17508TIP3    H273940   4.624   0.869   4.456  0.5329 -0.0034  1.2100
17509TIP3   OH273941   6.002   3.393  13.063 -0.3870 -0.7193  0.0488
17509TIP3    H173942   6.030   3.456  13.130 -0.7003  0.2532 -0.7177
17509TIP3    H273943   5.912   3.420  13.042 -0.1583 -0.7944 -1.0262
17510TIP3   OH273944   0.376   0.512  12.195  0.2605  0.3065  0.4911
17510TIP3    H173945   0.393   0.472  12.110 -1.6740 -0.8684  0.6252
17510TIP3    H273946   0.281   0.509  12.204  0.1953  3.1344  1.3893
17511TIP3   OH273947   1.006   0.208  13.228  0.7878  0.0527  0.6321
17511TIP3    H173948   1.058   0.220  13.148 -0.3966 -0.4549 -0.2246
17511TIP3    H273949   0.924   0.169  13.198 -0.1082  0.8591  1.9668
17512TIP3   OH273950   0.948   0.091   6.116  0.0165  0.0805  0.4414
17512TIP3    H173951   0.892   0.104   6.192  0.8227  1.7550  0.7895
17512TIP3    H273952   1.031   0.059   6.152  0.1905  0.2747  0.2249
17513TIP3   OH273953   1.289   4.559  15.960 -0.3192  0.1889 -0.0476
17513TIP3    H173954   1.218   4.598  16.012  0.3140 -0.2805  1.1932
17513TIP3    H273955   1.320   4.630  15.904 -1.5803  0.4744 -0.4146
17514TIP3   OH273956   6.683   2.203  15.204 -0.3019  0.5572  0.0138
17514TIP3    H173957   6.607   2.158  15.241 -0.4972  0.9722  0.1163
17514TIP3    H273958   6.662   2.296  15.211 -0.2857  0.6480 -1.0283
17515TIP3   OH273959   0.834   5.216  15.366  0.0645  0.0384 -0.2204
17515TIP3    H173960   0.850   5.233  15.273  3.6073  1.4827  0.5801
17515TIP3    H273961   0.906   5.159  15.392  0.0029  0.9490  2.0197
17516TIP3   OH273962   5.559   1.614   5.707  0.4220  0.1359  0.3000
17516TIP3    H173963   5.471   1.632   5.672 -0.0701 -0.9068  0.9693
17516TIP3    H273964   5.618   1.658   5.646 -0.4236 -1.5632 -1.8218
17517TIP3   OH273965   4.993   2.287   1.706  0.1925 -0.6147  0.0328
17517TIP3    H173966   5.008   2.193   1.702 -0.9176 -0.7520 -1.8343
17517TIP3    H273967   5.080   2.325   1.714  0.7508 -1.7665 -0.4115
17518TIP3   OH273968   4.709   6.516  13.421  0.2272 -0.4220  0.3862
17518TIP3    H173969   4.753   6.551  13.343  0.5937 -0.9241  0.3647
17518TIP3    H273970   4.663   6.591  13.458 -2.4002 -0.7757 -1.9764
17519TIP3   OH273971   6.390   6.567   1.008 -0.5474 -0.0907  0.3739
17519TIP3    H173972   6.306   6.598   0.973  0.1364 -0.0345 -1.2953
17519TIP3    H273973   6.397   6.477   0.976 -0.9831 -0.8632  2.3925
17520TIP3   OH273974   4.978   3.319   4.928  0.1060 -0.8639 -0.2247
17520TIP3    H173975   4.902   3.300   4.983  0.7437 -0.4502  0.8203
17520TIP3    H273976   5.048   3.339   4.990  1.3016 -2.0603 -1.1401
17521TIP3   OH273977   3.480   6.771  16.511 -0.6271 -0.1959 -0.0011
17521TIP3    H173978   3.394   6.730  16.518 -1.5730  1.5054 -1.1627
17521TIP3    H273979   3.506   6.757  16.420 -0.4506  0.7644 -0.1075
17522TIP3   OH273980   4.430   2.345   4.261 -0.0731 -0.3828  0.0301
17522TIP3    H173981   4.433   2.254   4.289 -1.3470 -0.3269  0.3520
17522TIP3    H273982   4.486   2.391   4.323 -1.6416 -0.5103  1.5467
17523TIP3   OH273983   6.250   4.267   2.477 -0.7038  1.1919  0.3573
17523TIP3    H173984   6.299   4.267   2.395  0.1987  0.4394  0.8936
17523TIP3    H273985   6.299   4.325   2.535  0.9125 -1.4057  1.6751
17524TIP3   OH273986   0.867   0.175   2.093 -0.3766  0.4182 -0.5181
17524TIP3    H173987   0.802   0.171   2.023  0.3399  1.4112 -1.2465
17524TIP3    H273988   0.939   0.225   2.056  0.2064  0.5500  0.7760
17525TIP3   OH273989   1.461   1.218   4.009 -0.1241  0.2406 -0.3170
17525TIP3    H173990   1.423   1.300   3.978  1.0520  1.1828  0.6200
17525TIP3    H273991   1.468   1.230   4.104 -0.6107 -1.2396 -0.0864
17526TIP3   OH273992   4.781   0.959  13.065 -0.2174 -0.4643 -0.0156
17526TIP3    H173993   4.818   0.996  12.985 -0.2565 -0.1098  0.1320
17526TIP3    H273994   4.851   0.902  13.099 -0.1071 -0.4185 -0.1641
17527TIP3   OH273995   0.485   3.262   1.458  0.3103 -0.0698  0.0384
17527TIP3    H173996   0.564   3.212   1.477  0.7106  0.6020  0.1391
17527TIP3    H273997   0.460   3.301   1.542 -1.2524 -1.8686  0.4502
17528TIP3   OH273998   1.498   1.261   0.934 -0.2843 -0.2248  0.3363
17528TIP3    H173999   1.473   1.341   0.888  0.8051 -0.6916 -1.1410
17528TIP3    H274000   1.450   1.263   1.016  0.4077  2.3785  0.7020
17529TIP3   OH274001   0.733   1.142  16.528 -0.6033  0.1915 -0.4105
17529TIP3    H174002   0.814   1.188  16.549  0.2850 -1.5727  0.0610
17529TIP3    H274003   0.726   1.148  16.433  0.2142  0.1382 -0.4760
17530TIP3   OH274004   0.223   5.103  12.638  0.1051  0.9578 -0.3839
17530TIP3    H174005   0.229   5.033  12.573  0.9653  1.4233 -0.8233
17530TIP3    H274006   0.295   5.085  12.699  1.1875  2.1917 -1.2511
17531TIP3   OH274007   3.694   6.750   2.790  0.5045 -0.1861 -0.1516
17531TIP3    H174008   3.749   6.694   2.735 -1.3200 -1.2782 -0.9365
17531TIP3    H274009   3.644   6.802   2.727  1.6222  1.7866  0.5722
17532TIP3   OH274010   3.871   5.215  15.756  0.0958  0.7324 -0.0756
17532TIP3    H174011   3.917   5.247  15.679  0.2038 -0.4770 -0.5226
17532TIP3    H274012   3.902   5.125  15.767 -0.4038  0.6827  0.9979
17533TIP3   OH274013   3.901   2.459   5.637  0.2372  0.1057 -0.6818
17533TIP3    H174014   3.876   2.537   5.687  3.1733 -0.0535  1.1429
17533TIP3    H274015   3.828   2.399   5.649 -0.8779  1.5764  0.1160
17534TIP3   OH274016   5.295   1.903   2.595  0.0205 -0.8102  0.4000
17534TIP3    H174017   5.344   1.985   2.604  0.3008 -1.0331  0.9195
17534TIP3    H274018   5.205   1.931   2.578 -0.0266 -0.3815  1.2993
17535TIP3   OH274019   3.998   5.882   1.571  0.0769  0.2440 -0.1051
17535TIP3    H174020   3.981   5.815   1.505 -0.5851 -0.3688  0.6853
17535TIP3    H274021   4.050   5.837   1.638  0.7505  0.8666 -0.2011
17536TIP3   OH274022   0.576   5.513  16.401  0.3911  0.0080  0.6040
17536TIP3    H174023   0.541   5.568  16.332  0.5119  0.4439  0.8907
17536TIP3    H274024   0.633   5.571  16.452  1.5239 -0.6850  0.1443
17537TIP3   OH274025   3.395   3.329  15.126  0.2373  0.1037  0.4556
17537TIP3    H174026   3.317   3.274  15.124 -2.1116  3.1592  2.1938
17537TIP3    H274027   3.361   3.418  15.115  3.6630  1.4063 -0.1826
17538TIP3   OH274028   4.331   1.590  15.606 -0.1018  1.3075 -0.2057
17538TIP3    H174029   4.265   1.567  15.671 -0.3684 -2.2920 -1.6040
17538TIP3    H274030   4.414   1.577  15.650 -0.2850 -0.8285 -0.4324
17539TIP3   OH274031   3.705   4.488  12.592  0.1625 -0.3135  0.1532
17539TIP3    H174032   3.713   4.462  12.684  0.1412  2.3699  0.9380
17539TIP3    H274033   3.761   4.565  12.584 -0.2872 -0.1972 -1.9575
17540TIP3   OH274034   6.486   0.053  13.458 -0.1514  0.0668  0.2821
17540TIP3    H174035   6.527  -0.026  13.422  2.2565  1.1271  0.5739
17540TIP3    H274036   6.509   0.051  13.551 -0.0650  1.1224  0.2817
17541TIP3   OH274037   4.474   1.025  15.693  0.3326 -0.4744 -0.1276
17541TIP3    H174038   4.518   0.944  15.669 -1.0997 -1.3304  0.1284
17541TIP3    H274039   4.459   1.070  15.610  0.5338 -0.7699 -0.3218
17542TIP3   OH274040   6.468   4.420  14.119 -0.3377 -0.2862 -0.2587
17542TIP3    H174041   6.469   4.350  14.184 -0.2156 -0.3043 -0.2793
17542TIP3    H274042   6.555   4.417  14.079 -0.5198 -0.4750 -0.6419
17543TIP3   OH274043   2.095   2.622  16.516  0.7443  0.2446 -0.0952
17543TIP3    H174044   2.115   2.635  16.424 -1.1011 -1.1909 -0.7274
17543TIP3    H274045   2.077   2.710  16.549  1.0297  0.7187 -1.1950
17544TIP3   OH274046   2.503   5.386   1.332 -0.2982  0.7874 -0.7934
17544TIP3    H174047   2.429   5.446   1.344  1.0109  2.5112 -1.0658
17544TIP3    H274048   2.568   5.415   1.396  0.1383 -0.7209 -0.5391
17545TIP3   OH274049   3.341   2.457  11.294  0.1949 -0.1514  0.7758
17545TIP3    H174050   3.351   2.376  11.344  0.2188 -0.1015  0.8531
17545TIP3    H274051   3.426   2.501  11.304  0.2184 -0.1676  0.6451
17546TIP3   OH274052   1.500   1.218  13.013  0.4344  0.4415  0.1375
17546TIP3    H174053   1.594   1.233  13.023  0.3818  0.6180  0.4062
17546TIP3    H274054   1.489   1.124  13.026  0.5505  0.4504  0.3042
17547TIP3   OH274055   1.297   2.745   4.578 -0.3524  0.0104 -0.1592
17547TIP3    H174056   1.342   2.829   4.570  1.6914 -1.0474 -0.0986
17547TIP3    H274057   1.303   2.723   4.671 -0.1444 -0.5773 -0.3072
17548TIP3   OH274058   0.091   1.198  11.235  0.1521  0.1413 -0.1523
17548TIP3    H174059   0.021   1.223  11.174  3.0083 -1.5546 -4.3239
17548TIP3    H274060   0.164   1.255  11.213  0.8622  0.4435  2.7116
17549TIP3   OH274061   4.731   3.569   2.540  0.2146 -0.1813  0.2597
17549TIP3    H174062   4.821   3.588   2.567  0.2631 -1.2618  0.8473
17549TIP3    H274063   4.727   3.474   2.535 -0.9579 -0.1397  0.4259
17550TIP3   OH274064   6.384   3.936  11.951 -0.7572 -0.0885 -0.1557
17550TIP3    H174065   6.380   4.001  11.881  0.1112  0.2430  0.0956
17550TIP3    H274066   6.296   3.933  11.987 -1.1191 -0.0074 -1.0415
17551TIP3   OH274067   1.650   2.822  15.496  0.3416 -0.0491 -0.7096
17551TIP3    H174068   1.716   2.771  15.544  1.2916  0.5390 -1.3835
17551TIP3    H274069   1.597   2.756  15.450  1.4910 -0.4423 -1.4816
17552TIP3   OH274070   3.258   2.047   0.063 -0.1944  0.3144  0.4111
17552TIP3    H174071   3.263   2.099   0.143 -0.1479  1.9159 -0.6024
17552TIP3    H274072   3.164   2.031   0.050 -0.4870  2.9501 -0.9951
17553TIP3   OH274073   3.519   4.463   2.425  0.2700  0.1619  0.1682
17553TIP3    H174074   3.608   4.450   2.459  0.2817  1.3764  0.6213
17553TIP3    H274075   3.529   4.460   2.330  0.4085 -2.1361  0.2222
17554TIP3   OH274076   3.642   5.006   3.467 -0.3470  0.2860  0.3539
17554TIP3    H174077   3.724   4.982   3.424 -0.6185  0.2637 -0.1503
17554TIP3    H274078   3.617   4.928   3.516 -0.7337 -0.1522 -0.5210
17555TIP3   OH274079   3.835   0.791   3.958  0.7649  0.6025 -0.7664
17555TIP3    H174080   3.883   0.714   3.989 -1.3192 -0.5365 -0.2814
17555TIP3    H274081   3.855   0.796   3.865  1.1130 -0.3866 -0.7535
17556TIP3   OH274082   0.857   2.523  11.607  0.3936 -0.0562  0.0676
17556TIP3    H174083   0.807   2.441  11.613 -0.7131  0.6122  0.1897
17556TIP3    H274084   0.825   2.576  11.680  1.9677  0.0358  0.7061
17557TIP3   OH274085   5.063   0.351  14.314  0.1840 -0.6167  0.4144
17557TIP3    H174086   5.062   0.299  14.234 -0.0317 -0.4210  0.2915
17557TIP3    H274087   5.075   0.287  14.384 -1.8019 -1.0191  0.4046
17558TIP3   OH274088   6.693   2.701  13.719 -0.5396 -0.4506  0.6320
17558TIP3    H174089   6.718   2.610  13.738  1.0543 -0.2378 -0.4469
17558TIP3    H274090   6.760   2.754  13.762 -0.8715  0.2037  0.3472
17559TIP3   OH274091   0.332   2.573   4.554  0.4058  0.2746 -0.0955
17559TIP3    H174092   0.273   2.507   4.518  1.2954 -0.7064  0.2228
17559TIP3    H274093   0.375   2.611   4.478 -0.9128  1.2695 -0.3575
17560TIP3   OH274094   3.705   5.145   2.928  0.2048 -0.0792  0.2695
17560TIP3    H174095   3.622   5.193   2.923  0.2432  0.0415  0.7735
17560TIP3    H274096   3.681   5.057   2.956  0.1438 -0.3389 -0.5707
17561TIP3   OH274097   2.500   5.768   5.330 -0.2460 -0.6029 -0.1044
17561TIP3    H174098   2.590   5.740   5.348 -0.4753 -2.4604 -1.6748
17561TIP3    H274099   2.494   5.769   5.234 -2.4221 -2.2915 -0.0293
17562TIP3   OH274100   0.621   3.491   0.844  0.1833 -0.5026  0.0215
17562TIP3    H174101   0.653   3.578   0.867  1.0342 -0.2363 -2.0615
17562TIP3    H274102   0.529   3.492   0.870  0.2247  0.9642  0.1391
17563TIP3   OH274103   5.717   2.783  16.195 -0.0044  0.3807 -0.6591
17563TIP3    H174104   5.761   2.838  16.130 -0.7711  1.3012 -0.4118
17563TIP3    H274105   5.788   2.735  16.238  0.6005  0.5680 -1.4399
17564TIP3   OH274106   0.756   4.617  13.092  0.0348 -0.0995 -0.3286
17564TIP3    H174107   0.832   4.637  13.147 -0.8461  3.6210 -0.3098
17564TIP3    H274108   0.791   4.616  13.003  0.2849  0.6712 -0.2436
17565TIP3   OH274109   3.825   1.253  11.415 -0.3049 -0.5483 -0.3465
17565TIP3    H174110   3.886   1.325  11.431  0.0828 -0.8316 -0.5309
17565TIP3    H274111   3.869   1.199  11.349 -0.5600 -0.9941 -0.1537
17566TIP3   OH274112   5.907   0.537  11.167 -0.0257  0.5715  0.4022
17566TIP3    H174113   5.927   0.630  11.154 -0.8170  0.8348  0.9850
17566TIP3    H274114   5.977   0.490  11.122  0.7650  1.4554  0.7006
17567TIP3   OH274115   1.288   2.971   1.256  0.4421 -0.2041  0.6787
17567TIP3    H174116   1.226   3.023   1.307  0.6398 -0.4800  1.2040
17567TIP3    H274117   1.275   3.000   1.165  0.7825  0.9943  1.0057
17568TIP3   OH274118   5.867   4.397  16.675  0.2676 -0.0470  0.0784
17568TIP3    H174119   5.808   4.331  16.713 -1.9677  1.3870 -0.7756
17568TIP3    H274120   5.935   4.409  16.741 -1.1772 -0.7306  1.7439
17569TIP3   OH274121   3.591   4.703   3.577  0.0437  0.3586 -0.0523
17569TIP3    H174122   3.680   4.710   3.611  0.2067  0.5851 -0.5167
17569TIP3    H274123   3.588   4.616   3.537  1.2648  1.7736 -3.3991
17570TIP3   OH274124   5.026   6.773   0.294 -0.6384  0.3778 -0.3283
17570TIP3    H174125   5.096   6.796   0.233 -1.0915 -0.2867 -1.1068
17570TIP3    H274126   4.992   6.690   0.262 -2.2197  1.0006 -0.3409
17571TIP3   OH274127   2.099   4.263   2.077  0.4329 -0.3747  0.2212
17571TIP3    H174128   2.045   4.189   2.048 -1.2920  1.3532 -1.1389
17571TIP3    H274129   2.189   4.232   2.067 -0.2679 -2.5320  0.3628
17572TIP3   OH274130   1.257   2.866   3.705 -0.1470 -0.5217 -0.0446
17572TIP3    H174131   1.197   2.928   3.664  1.1321  1.3784  0.9021
17572TIP3    H274132   1.315   2.839   3.635  0.3121  0.6050 -0.0982
17573TIP3   OH274133   3.384   4.023  14.964  0.0213 -0.5049 -0.3243
17573TIP3    H174134   3.344   4.100  14.923  1.8788  0.4973 -0.2929
17573TIP3    H274135   3.353   4.024  15.054 -0.1712  0.0493 -0.3967
17574TIP3   OH274136   5.429   1.020  12.111 -0.6441 -0.0803  0.6051
17574TIP3    H174137   5.510   1.071  12.110 -0.0902 -0.8830  2.1924
17574TIP3    H274138   5.457   0.929  12.104 -1.2735 -0.4757  2.7117
17575TIP3   OH274139   0.327   1.453   1.879 -0.1027 -0.4907 -0.0780
17575TIP3    H174140   0.303   1.448   1.971  0.9253 -0.0493  0.2176
17575TIP3    H274141   0.422   1.449   1.878 -0.1319 -1.2769 -1.1804
17576TIP3   OH274142   3.743   6.209   1.633 -0.1538  0.5368  0.1003
17576TIP3    H174143   3.814   6.264   1.666  0.4323 -0.2827  0.2190
17576TIP3    H274144   3.787   6.145   1.577 -1.0969  1.7465 -2.0832
17577TIP3   OH274145   1.254   0.293  11.773  0.4783  1.1004  0.0371
17577TIP3    H174146   1.293   0.358  11.831  2.1046  0.8711 -0.7846
17577TIP3    H274147   1.312   0.289  11.697  0.7710 -1.7204  0.3387
17578TIP3   OH274148   0.137   2.625  17.019  0.3927  0.0619  1.0094
17578TIP3    H174149   0.071   2.612  17.088 -2.2193  0.0312 -1.4182
17578TIP3    H274150   0.135   2.544  16.969  0.3496  1.0739 -0.6628
17579TIP3   OH274151   6.661   0.545   5.491  0.2064 -0.7705 -0.1366
17579TIP3    H174152   6.587   0.510   5.542 -0.4760 -0.0757 -0.6304
17579TIP3    H274153   6.654   0.640   5.502  0.8995 -0.6941 -0.3732
17580TIP3   OH274154   5.014   3.304  11.766  0.3152  0.5373 -0.3340
17580TIP3    H174155   5.036   3.381  11.820 -1.2452 -0.6459  2.0981
17580TIP3    H274156   5.068   3.234  11.801 -0.5692 -0.2025 -0.4208
17581TIP3   OH274157   2.691   2.358  12.280  0.1677  0.1655 -0.2560
17581TIP3    H174158   2.722   2.283  12.329  2.2866  0.6031 -0.8853
17581TIP3    H274159   2.613   2.327  12.234 -0.4381 -0.9059  1.4826
17582TIP3   OH274160   5.009   0.556  13.542  0.9619 -0.0070  0.4073
17582TIP3    H174161   5.018   0.632  13.484 -2.2618 -0.0387 -0.2191
17582TIP3    H274162   5.054   0.485  13.496 -0.2916  0.3331 -1.3979
17583TIP3   OH274163   1.784   0.518   4.477  0.7808  0.9733 -0.1058
17583TIP3    H174164   1.692   0.535   4.493  0.7200  1.0059 -0.4908
17583TIP3    H274165   1.795   0.424   4.491  0.3415  0.6681 -1.7453
17584TIP3   OH274166   4.312   4.559  16.977 -0.2366 -0.0767 -0.3667
17584TIP3    H174167   4.260   4.489  16.938 -1.1035 -0.3544  1.2780
17584TIP3    H274168   4.400   4.521  16.984 -0.1409 -0.1419 -1.7053
17585TIP3   OH274169   3.160   2.434   6.666  0.8040  0.5157  0.3680
17585TIP3    H174170   3.231   2.438   6.602  1.7961 -0.6566  1.3710
17585TIP3    H274171   3.136   2.342   6.670 -0.9322  0.9318 -0.1029
17586TIP3   OH274172   6.648   4.171  11.840 -0.3326 -0.8533  0.7589
17586TIP3    H174173   6.688   4.086  11.858 -0.7426 -1.0419  0.7694
17586TIP3    H274174   6.636   4.211  11.926 -1.8859 -1.5733  0.8907
17587TIP3   OH274175   0.405   4.234   1.523 -0.0573 -0.0815  0.5859
17587TIP3    H174176   0.334   4.180   1.489 -0.8139  2.5017 -2.1674
17587TIP3    H274177   0.367   4.322   1.530  1.5062  0.4108  3.7417
17588TIP3   OH274178   6.496   3.847  16.846  0.3452  0.5831  0.4306
17588TIP3    H174179   6.467   3.850  16.755 -0.1605  1.4307  0.6089
17588TIP3    H274180   6.582   3.805  16.843  0.6776  1.3050 -0.5258
17589TIP3   OH274181   0.325   1.628  13.789 -0.4068 -0.0531  0.1313
17589TIP3    H174182   0.395   1.679  13.829 -1.1680 -0.0631  1.5120
17589TIP3    H274183   0.279   1.689  13.732  0.7549 -0.0646 -0.8349
17590TIP3   OH274184   1.776   4.482   3.937 -0.1372 -0.1683  0.1859
17590TIP3    H174185   1.712   4.465   3.868 -1.2796  3.2607  0.3168
17590TIP3    H274186   1.839   4.543   3.898  1.0886 -0.7854  1.1559
17591TIP3   OH274187   6.470   3.654  14.960 -0.8430  0.0409  1.1961
17591TIP3    H174188   6.427   3.569  14.959  2.1247 -1.5400  1.2953
17591TIP3    H274189   6.556   3.637  14.998  0.8125  2.5495 -1.1838
17592TIP3   OH274190   5.293   3.045   3.320  0.6182  0.4981  0.6685
17592TIP3    H174191   5.282   2.965   3.371 -1.6764  2.4400  3.4198
17592TIP3    H274192   5.338   3.105   3.379  1.1007  1.6681 -0.8700
17593TIP3   OH274193   2.637   4.559   5.026 -0.3273 -0.0369  0.4962
17593TIP3    H174194   2.721   4.604   5.036 -0.9929  1.1542  0.8907
17593TIP3    H274195   2.658   4.477   4.981  0.7465  1.3188 -1.5539
17594TIP3   OH274196   6.090   5.083  13.641  0.3639 -0.9948 -0.0785
17594TIP3    H174197   6.067   5.168  13.679 -1.6671 -0.4829 -2.3651
17594TIP3    H274198   6.061   5.019  13.706  0.5513 -0.0047  0.9931
17595TIP3   OH274199   4.480   5.155  14.599 -0.4276 -0.5108  0.3532
17595TIP3    H174200   4.549   5.116  14.545 -0.7635 -1.1733  0.4001
17595TIP3    H274201   4.416   5.188  14.536 -0.4455 -0.5855  0.3329
17596TIP3   OH274202   6.604   1.774   1.271 -0.4521  0.5625  0.7091
17596TIP3    H174203   6.570   1.789   1.182 -0.7447 -2.2162  0.2890
17596TIP3    H274204   6.699   1.780   1.261 -0.4596 -0.1833  0.0820
17597TIP3   OH274205   1.099   1.480  14.582 -0.2149  0.0055  0.7605
17597TIP3    H174206   1.158   1.408  14.604  0.7861  0.4062 -0.5589
17597TIP3    H274207   1.118   1.548  14.647  2.0694  0.8315 -0.6994
17598TIP3   OH274208   0.108   4.604   5.437 -0.4422 -0.2999  0.2580
17598TIP3    H174209   0.124   4.510   5.428 -0.2100 -0.1201 -1.5556
17598TIP3    H274210   0.029   4.610   5.490 -0.3491 -1.5105  0.5631
17599TIP3   OH274211   2.090   1.469   0.479 -0.3908 -1.1289 -0.1214
17599TIP3    H174212   2.045   1.545   0.516 -1.5126 -0.8868 -1.8834
17599TIP3    H274213   2.021   1.419   0.435  0.5359 -2.5380 -0.0064
17600TIP3   OH274214   0.368   3.352   0.621 -0.0359 -0.3076  0.4007
17600TIP3    H174215   0.330   3.280   0.671 -0.4342 -1.7637 -1.9003
17600TIP3    H274216   0.456   3.321   0.598 -0.0003  0.1879 -0.1279
17601TIP3   OH274217   6.326   5.846  12.147  0.4304 -0.1824 -0.1861
17601TIP3    H174218   6.409   5.867  12.189 -0.8219  1.2025  1.7011
17601TIP3    H274219   6.317   5.912  12.078  1.1321 -0.6595 -0.7378
17602TIP3   OH274220   3.842   2.982  12.770 -0.5140  0.3639  0.5813
17602TIP3    H174221   3.748   2.973  12.781 -0.3585 -1.5474  0.3681
17602TIP3    H274222   3.880   2.926  12.838  0.4756  0.4376  0.0922
17603TIP3   OH274223   1.990   5.881  16.473  0.1098  0.2535 -0.1160
17603TIP3    H174224   1.952   5.807  16.425  0.6319 -0.3037  0.3132
17603TIP3    H274225   1.922   5.908  16.534  0.2041 -0.4002  0.2843
17604TIP3   OH274226   0.863   6.062   0.462 -0.2781 -0.0323  0.4117
17604TIP3    H174227   0.910   6.073   0.380  0.1295  2.0757  0.9000
17604TIP3    H274228   0.919   6.004   0.514  0.3525  0.0976 -0.1127
17605TIP3   OH274229   3.869   1.874   2.213  0.5488 -0.6237 -0.5936
17605TIP3    H174230   3.940   1.922   2.169 -0.2499  0.8253 -0.3240
17605TIP3    H274231   3.829   1.823   2.143 -0.4677  1.3864 -1.5485
17606TIP3   OH274232   3.022   5.712   0.138 -0.3255  0.0369 -0.0620
17606TIP3    H174233   3.106   5.667   0.126  0.0804  1.0890 -1.1843
17606TIP3    H274234   3.039   5.802   0.111 -1.0916  0.9262  2.3050
17607TIP3   OH274235   1.441   3.930   1.074  0.2548  0.0930  0.3262
17607TIP3    H174236   1.369   3.988   1.046  0.2460 -0.3044 -0.4995
17607TIP3    H274237   1.458   3.876   0.997  1.4416  0.1813  0.5235
17608TIP3   OH274238   0.406   3.365  14.280 -0.6154 -0.2443 -0.5734
17608TIP3    H174239   0.330   3.350  14.225 -1.2545  0.0206  0.2271
17608TIP3    H274240   0.407   3.292  14.341 -0.5891  0.0682 -0.1930
17609TIP3   OH274241   4.609   3.594  11.489  0.2830 -0.2905 -0.4775
17609TIP3    H174242   4.680   3.657  11.476  0.2965 -0.3386 -0.6411
17609TIP3    H274243   4.620   3.531  11.418 -0.4889  0.2176 -1.0578
17610TIP3   OH274244   3.637   6.576   6.188 -0.1274  0.4570  0.1344
17610TIP3    H174245   3.560   6.616   6.147 -0.0722  1.8533  1.3275
17610TIP3    H274246   3.670   6.514   6.123 -1.3390  0.9939 -1.0168
17611TIP3   OH274247   4.437   3.725  13.428 -0.7858 -0.0738  0.0374
17611TIP3    H174248   4.344   3.744  13.438 -0.5274  1.5849 -0.7017
17611TIP3    H274249   4.472   3.798  13.378  0.8838 -0.7924  0.1191
17612TIP3   OH274250   0.162   5.247  15.704 -0.5504 -0.1767 -0.2867
17612TIP3    H174251   0.229   5.195  15.749 -0.2430 -0.5764 -1.2071
17612TIP3    H274252   0.135   5.193  15.630  0.0127  1.1009 -1.4393
17613TIP3   OH274253   2.053   0.440  12.991  0.3736  0.5567 -0.2931
17613TIP3    H174254   1.971   0.489  12.987  0.3713  0.6450  0.6927
17613TIP3    H274255   2.119   0.504  13.020  0.3405 -0.0318  1.1330
17614TIP3   OH274256   3.121   3.130   2.942 -0.3012 -0.0941 -0.8991
17614TIP3    H174257   3.113   3.049   2.891 -0.4793 -0.4266 -0.3541
17614TIP3    H274258   3.069   3.114   3.021 -0.8490  0.7888 -1.0711
17615TIP3   OH274259   2.407   0.520  14.299 -0.0787  0.4889 -0.6086
17615TIP3    H174260   2.329   0.552  14.253  1.3467  0.9589 -2.7727
17615TIP3    H274261   2.461   0.598  14.311  0.2851  0.0827  0.4634
17616TIP3   OH274262   6.614   5.174   5.055 -0.5265  0.2692 -0.1532
17616TIP3    H174263   6.639   5.097   5.107 -2.2189  1.0019  1.8078
17616TIP3    H274264   6.597   5.242   5.120 -1.4934  1.5792 -1.7567
17617TIP3   OH274265   3.155   1.528  13.777  0.3346  0.1969  0.0784
17617TIP3    H174266   3.076   1.475  13.782  0.3217  0.4293  2.8004
17617TIP3    H274267   3.201   1.495  13.700  0.0713 -3.3885  1.4027
17618TIP3   OH274268   2.447   1.532   0.661 -0.0793  0.2405 -0.4225
17618TIP3    H174269   2.352   1.528   0.659 -0.0471 -0.8322 -0.2151
17618TIP3    H274270   2.467   1.623   0.680 -1.0630  0.5074 -0.6546
17619TIP3   OH274271   4.072   0.495  12.587  0.0421  0.0855 -0.0191
17619TIP3    H174272   4.099   0.498  12.679  0.7892  1.9296 -0.2885
17619TIP3    H274273   3.999   0.557  12.581 -0.9264 -1.0521 -0.4087
17620TIP3   OH274274   5.968   0.741   3.138  0.0537 -0.1667 -0.3839
17620TIP3    H174275   5.928   0.699   3.214  0.0690  1.4181  0.5238
17620TIP3    H274276   5.923   0.702   3.062 -1.1380 -0.5404  0.5039
17621TIP3   OH274277   6.766   5.925   0.822  0.1638 -0.2657 -0.3255
17621TIP3    H174278   6.692   5.939   0.881 -0.3778  0.9718 -1.2683
17621TIP3    H274279   6.753   5.989   0.752  2.9500  1.0581  0.2828
17622TIP3   OH274280   2.558   1.118  14.704  0.0092  0.3184  0.0992
17622TIP3    H174281   2.549   1.188  14.769  0.8613  0.4225  0.1121
17622TIP3    H274282   2.546   1.163  14.620  2.8266  0.9319 -0.0220
17623TIP3   OH274283   5.597   1.927   5.126  0.9967 -0.4017 -0.1715
17623TIP3    H174284   5.581   2.020   5.136  1.1941 -0.3378 -0.4634
17623TIP3    H274285   5.528   1.896   5.067  3.0387  0.2263 -2.9793
17624TIP3   OH274286   6.669   0.741  13.093  0.0478  0.1401 -0.4456
17624TIP3    H174287   6.646   0.818  13.042 -0.5405 -0.1937 -0.6828
17624TIP3    H274288   6.601   0.677  13.074  0.9324 -0.7097 -0.8444
17625TIP3   OH274289   5.289   4.879   3.221 -0.2409  0.0047 -0.3175
17625TIP3    H174290   5.269   4.973   3.219 -0.0350  0.0503 -0.2951
17625TIP3    H274291   5.217   4.840   3.270  0.7920  0.4493  1.6076
17626TIP3   OH274292   4.380   0.134  11.633  0.6936  0.5488  0.6817
17626TIP3    H174293   4.291   0.098  11.631  0.5093  1.0572 -1.6433
17626TIP3    H274294   4.368   0.229  11.631  1.2757  0.6149 -0.2922
17627TIP3   OH274295   5.962   0.654   0.077  0.3832 -0.3927 -0.0530
17627TIP3    H174296   6.054   0.644   0.053  0.5837 -0.8024  0.8552
17627TIP3    H274297   5.954   0.606   0.159 -0.7105 -0.6121 -0.2804
17628TIP3   OH274298   1.622   4.585   6.192  0.2738 -0.0729 -0.1618
17628TIP3    H174299   1.650   4.496   6.216 -0.2616 -0.9208 -2.5273
17628TIP3    H274300   1.606   4.628   6.276  0.9253 -2.0894  1.0421
17629TIP3   OH274301   4.412   5.702  11.338 -0.2445 -0.0076 -0.4352
17629TIP3    H174302   4.416   5.757  11.259  0.5267  1.3132  0.4984
17629TIP3    H274303   4.319   5.680  11.347 -0.5461  0.9931 -0.9516
17630TIP3   OH274304   4.434   3.664  15.380 -0.0248  0.7390 -0.6466
17630TIP3    H174305   4.417   3.674  15.474  0.3581  0.4401 -0.5465
17630TIP3    H274306   4.416   3.572  15.363  2.0738  0.2690 -0.4216
17631TIP3   OH274307   2.580   5.142   0.577  0.4156  0.0633 -0.7504
17631TIP3    H174308   2.601   5.086   0.502 -0.1105 -1.3017  0.0831
17631TIP3    H274309   2.527   5.213   0.541  0.0728 -0.6433 -1.6565
17632TIP3   OH274310   5.516   6.182   4.239  0.0954  0.5120  0.1464
17632TIP3    H174311   5.435   6.140   4.269  0.0568 -0.6100 -1.4623
17632TIP3    H274312   5.579   6.166   4.309 -0.4231 -0.7004  0.3576
17633TIP3   OH274313   0.308   6.620   4.784 -0.0278  0.6801 -0.3528
17633TIP3    H174314   0.366   6.674   4.838  0.3501  0.1270 -0.2096
17633TIP3    H274315   0.220   6.642   4.815  0.1409  0.9594 -0.0594
17634TIP3   OH274316   1.632   2.322   4.093 -0.0640 -0.4222 -0.2688
17634TIP3    H174317   1.592   2.246   4.136  0.0097 -0.8334 -0.9178
17634TIP3    H274318   1.570   2.393   4.108 -0.2000 -0.6382  0.2277
17635TIP3   OH274319   5.662   1.448  14.419  0.3435  0.6763 -0.0441
17635TIP3    H174320   5.717   1.524  14.403  1.3560  0.0319  0.3027
17635TIP3    H274321   5.722   1.373  14.413 -1.0855 -0.3163 -3.0697
17636TIP3   OH274322   1.811   2.756   1.204  0.3538  0.1223  0.3605
17636TIP3    H174323   1.837   2.805   1.125 -1.1019  0.1502 -0.1177
17636TIP3    H274324   1.838   2.812   1.277 -0.2456  1.0982 -0.1592
17637TIP3   OH274325   0.052   0.861   1.483  0.2934  0.1989 -0.4185
17637TIP3    H174326   0.042   0.766   1.473  3.5968 -0.1562 -1.2005
17637TIP3    H274327   0.033   0.896   1.396  2.7180 -0.1871 -1.1569
17638TIP3   OH274328   4.777   4.014  11.449 -0.2517  0.1482 -0.1996
17638TIP3    H174329   4.851   4.061  11.411  0.6790 -0.9045  0.2539
17638TIP3    H274330   4.756   4.063  11.528 -1.6684  1.8752 -1.6081
17639TIP3   OH274331   2.272   5.061  15.808 -0.5456 -0.6869  0.2003
17639TIP3    H174332   2.310   5.115  15.878  2.4293 -1.2494 -0.8778
17639TIP3    H274333   2.272   4.972  15.844 -0.5916 -0.7252  0.1059
17640TIP3   OH274334   2.744   4.241  16.691  0.0930 -0.2280  0.2769
17640TIP3    H174335   2.769   4.203  16.775  2.1470 -2.2515 -1.1943
17640TIP3    H274336   2.826   4.272  16.653 -0.8343  0.8274 -0.9209
17641TIP3   OH274337   3.246   4.246  12.845  0.3689 -0.0322 -0.0337
17641TIP3    H174338   3.194   4.327  12.847 -0.2832 -0.4656  0.4353
17641TIP3    H274339   3.337   4.277  12.848  0.1087  0.6611  1.0091
17642TIP3   OH274340   0.458   4.007  15.418 -0.0207 -0.1985 -0.2951
17642TIP3    H174341   0.514   3.961  15.481 -1.5722 -0.8164  0.6691
17642TIP3    H274342   0.399   4.059  15.472  0.2629  1.2169 -1.3349
17643TIP3   OH274343   6.205   6.260  13.485  0.3430  0.1108  0.4126
17643TIP3    H174344   6.209   6.168  13.462 -1.1517  0.4772 -1.5149
17643TIP3    H274345   6.258   6.268  13.564  0.3938 -2.4066  0.6755
17644TIP3   OH274346   6.081   0.395   3.943 -0.1655 -0.0329 -0.3714
17644TIP3    H174347   6.081   0.407   4.038 -0.0936 -0.5178 -0.3092
17644TIP3    H274348   6.112   0.479   3.908 -1.1585  0.4944 -0.0152
17645TIP3   OH274349   4.334   3.618  14.640 -0.2312 -0.0775  0.1122
17645TIP3    H174350   4.399   3.652  14.578 -0.7481 -1.4580 -1.2005
17645TIP3    H274351   4.383   3.607  14.722  0.9774 -0.2934 -0.6282
17646TIP3   OH274352   4.050   2.177   4.678  0.1772 -0.1202  0.1592
17646TIP3    H174353   4.137   2.141   4.695 -0.7321 -2.2174  0.6010
17646TIP3    H274354   4.035   2.160   4.585  0.2880  0.3109  0.0653
17647TIP3   OH274355   5.929   4.139   0.404 -0.2797  0.1912  0.0894
17647TIP3    H174356   5.845   4.167   0.441 -0.2063  0.3407  0.1427
17647TIP3    H274357   5.974   4.221   0.383 -0.0728  0.1152  0.2272
17648TIP3   OH274358   0.145   3.336  11.859 -0.5619  0.0362 -0.3989
17648TIP3    H174359   0.107   3.258  11.899 -1.7800  0.9703  0.3254
17648TIP3    H274360   0.238   3.316  11.849 -0.4117 -0.6080  1.9851
17649TIP3   OH274361   2.770   6.542  16.200 -0.2600  0.5125 -0.5401
17649TIP3    H174362   2.843   6.544  16.138  0.9894  0.6775  0.9304
17649TIP3    H274363   2.786   6.615  16.259 -0.6203 -0.5427  0.8915
17650TIP3   OH274364   5.720   5.120  15.711  0.1401  0.0278 -0.2197
17650TIP3    H174365   5.638   5.168  15.724 -0.6769 -0.6581 -2.5717
17650TIP3    H274366   5.751   5.101  15.799 -2.1482  0.4520  0.7110
17651TIP3   OH274367   6.661   4.299  12.093  0.1997  0.2317 -0.1156
17651TIP3    H174368   6.586   4.250  12.125 -0.1220 -0.0497 -1.2866
17651TIP3    H274369   6.735   4.267  12.146 -0.0069 -1.5118 -0.8524
17652TIP3   OH274370   2.804   6.385  16.467  0.8810 -0.2044  0.2805
17652TIP3    H174371   2.890   6.417  16.496  0.1662  1.1878  0.9181
17652TIP3    H274372   2.793   6.421  16.379  0.9448 -0.3583  0.2105
17653TIP3   OH274373   6.046   6.187   5.684  0.1338  0.3023 -0.5068
17653TIP3    H174374   5.951   6.189   5.687  0.1875 -0.2424  2.2273
17653TIP3    H274375   6.069   6.095   5.696  1.0443  0.6753  0.7127
17654TIP3   OH274376   5.006   2.607  13.491  0.6732 -0.0724  0.1997
17654TIP3    H174377   5.017   2.512  13.497  0.1603 -0.2218 -1.0633
17654TIP3    H274378   5.081   2.643  13.538  0.1230 -1.1078  1.9008
17655TIP3   OH274379   0.354   2.187   2.162 -0.0217 -0.0596 -0.1365
17655TIP3    H174380   0.299   2.109   2.149  0.1247 -0.0045 -1.1368
17655TIP3    H274381   0.357   2.198   2.257  0.6871 -1.8037  0.0629
17656TIP3   OH274382   0.903   5.407  11.585  0.0204 -0.1897  0.0857
17656TIP3    H174383   0.931   5.348  11.655  0.5814 -1.2104 -0.9718
17656TIP3    H274384   0.967   5.392  11.514 -1.4365 -0.3477 -1.2237
17657TIP3   OH274385   6.757   5.736  16.894  0.5601 -0.6970  0.3084
17657TIP3    H174386   6.828   5.678  16.921 -0.3016 -2.6101 -1.3793
17657TIP3    H274387   6.779   5.761  16.804 -1.9450 -3.0951 -1.0398
17658TIP3   OH274388   5.939   5.381  16.997 -0.3048 -0.7620 -0.2461
17658TIP3    H174389   5.862   5.351  17.044  1.2644 -2.2522  1.4407
17658TIP3    H274390   5.962   5.309  16.939 -0.0200 -0.4392 -0.5393
17659TIP3   OH274391   4.129   3.592  12.325 -0.0781 -0.3639 -0.3725
17659TIP3    H174392   4.053   3.566  12.378 -0.5630  0.5321 -0.6187
17659TIP3    H274393   4.177   3.511  12.311 -1.5725 -1.1375 -1.1323
17660TIP3   OH274394   2.349   4.914  14.621 -0.3416 -0.0679 -0.2354
17660TIP3    H174395   2.400   4.976  14.673 -0.6776  1.1921 -1.3743
17660TIP3    H274396   2.273   4.964  14.592 -0.7363 -1.0880 -0.9929
17661TIP3   OH274397   0.427   1.769   3.919  0.2993 -0.1748  0.3641
17661TIP3    H174398   0.342   1.733   3.944  0.7540 -1.4261  0.1240
17661TIP3    H274399   0.412   1.864   3.914 -1.2947 -0.4606 -0.5369
17662TIP3   OH274400   3.183   4.506   6.672  0.2766  0.4789 -0.2053
17662TIP3    H174401   3.231   4.558   6.606  1.4096  0.0476  0.2640
17662TIP3    H274402   3.252   4.460   6.720 -0.7096 -1.4273 -0.5745
17663TIP3   OH274403   0.469   2.591  11.545  0.0124 -0.0105 -0.4822
17663TIP3    H174404   0.424   2.507  11.550  0.5040 -0.2730 -0.3858
17663TIP3    H274405   0.540   2.576  11.482  0.4078  0.1786 -0.0900
17664TIP3   OH274406   0.442   2.623   6.718 -0.1446 -0.5385 -0.0532
17664TIP3    H174407   0.446   2.567   6.641 -0.9771 -1.0528  0.2711
17664TIP3    H274408   0.430   2.562   6.791 -0.4700  0.0244  0.3642
17665TIP3   OH274409   1.665   3.982  12.062  0.1367  0.2950 -0.3920
17665TIP3    H174410   1.750   3.988  12.020  0.2743 -0.7036 -0.2802
17665TIP3    H274411   1.684   3.979  12.156  0.0833 -1.4198 -0.4212
17666TIP3   OH274412   3.285   5.647   2.650  0.2173  0.7967  0.2475
17666TIP3    H174413   3.271   5.670   2.559  2.2136  4.0662  0.6683
17666TIP3    H274414   3.320   5.727   2.690  2.8479 -1.5779  3.0338
17667TIP3   OH274415   4.190   3.852  13.416  0.1780 -0.1206  0.2092
17667TIP3    H174416   4.177   3.891  13.503 -0.2911 -2.2743  1.1210
17667TIP3    H274417   4.168   3.923  13.355 -1.3830  0.8218  1.8136
17668TIP3   OH274418   0.278   0.945   4.803 -0.0367 -0.0497  0.1069
17668TIP3    H174419   0.318   1.029   4.782  0.8397 -0.6061 -0.4628
17668TIP3    H274420   0.298   0.931   4.896 -0.4954  0.5376  0.2942
17669TIP3   OH274421   3.423   5.947   0.554  0.7684  0.2125 -0.5549
17669TIP3    H174422   3.474   6.025   0.575  1.3719 -0.1097 -0.8042
17669TIP3    H274423   3.368   5.933   0.632  0.9369  0.6573 -0.3520
17670TIP3   OH274424   5.590   4.601   5.773 -0.3986  0.5978 -0.2857
17670TIP3    H174425   5.551   4.633   5.692 -4.4251 -2.6881  0.1794
17670TIP3    H274426   5.544   4.648   5.842  1.6726  1.9853  0.1952
17671TIP3   OH274427   0.124   4.344   5.452 -0.1044 -0.2227 -0.3735
17671TIP3    H174428   0.097   4.327   5.543  1.4532 -1.2826 -0.0953
17671TIP3    H274429   0.076   4.279   5.400 -0.2500 -0.2566 -0.1972
17672TIP3   OH274430   0.416   6.760  14.561  0.7310 -0.1021  0.1921
17672TIP3    H174431   0.373   6.842  14.536  1.0568  0.2393  0.7603
17672TIP3    H274432   0.489   6.787  14.616  0.8647 -0.7750  0.3449
17673TIP3   OH274433   3.127   4.529  14.007  0.0719  0.1089 -0.3971
17673TIP3    H174434   3.048   4.553  14.057 -0.3426 -0.5448 -0.7212
17673TIP3    H274435   3.132   4.434  14.017 -0.2172 -0.0702 -1.9033
17674TIP3   OH274436   1.895   0.165  11.911  0.1308  0.0338 -0.0786
17674TIP3    H174437   1.821   0.122  11.953  0.4757 -0.4007  0.0825
17674TIP3    H274438   1.890   0.139  11.819  0.5787 -0.6867  0.0974
17675TIP3   OH274439   1.805   0.836   4.099  0.0439 -0.6606 -0.2729
17675TIP3    H174440   1.745   0.836   4.025  1.5031  2.2711 -1.5374
17675TIP3    H274441   1.752   0.863   4.174 -0.6431  0.0323 -0.9974
17676TIP3   OH274442   0.002   2.908   5.577  0.0747 -0.0949 -0.0888
17676TIP3    H174443  -0.019   2.999   5.596 -0.4286 -0.4794  1.2884
17676TIP3    H274444  -0.083   2.864   5.574  0.2285 -0.2560 -2.2046
17677TIP3   OH274445   6.002   1.191   5.031 -0.1670  0.1724  0.0083
17677TIP3    H174446   6.063   1.253   4.991  0.1407 -0.2536 -0.1901
17677TIP3    H274447   5.924   1.195   4.975 -0.4886  1.0335  0.5089
17678TIP3   OH274448   4.328   6.499  16.518 -0.0907 -0.3344  0.4112
17678TIP3    H174449   4.418   6.528  16.504  1.0843 -3.8247  0.1669
17678TIP3    H274450   4.278   6.543  16.450  1.4083  1.7772  0.6368
17679TIP3   OH274451   3.304   1.568  17.121 -0.0755  0.2484 -0.0243
17679TIP3    H174452   3.311   1.476  17.094  3.9160 -0.2801  2.4980
17679TIP3    H274453   3.258   1.565  17.204 -2.8406  0.9216 -1.4596
17680TIP3   OH274454   4.282   3.124  14.022 -0.0933 -0.0556 -0.5148
17680TIP3    H174455   4.195   3.150  13.993 -0.8112 -0.6746  1.0445
17680TIP3    H274456   4.342   3.182  13.975 -1.4200  1.3986 -0.4173
17681TIP3   OH274457   5.827   4.920  12.853 -0.5143  0.7494 -0.2576
17681TIP3    H174458   5.791   4.880  12.773 -1.2735  0.0612  0.4196
17681TIP3    H274459   5.751   4.928  12.911  0.4259 -0.7846  1.2256
17682TIP3   OH274460   1.723   4.768   4.401  0.5554 -0.1634  0.0658
17682TIP3    H174461   1.778   4.835   4.359 -0.9337  0.1263 -1.4959
17682TIP3    H274462   1.776   4.688   4.398  0.8479  0.0598 -1.6069
17683TIP3   OH274463   6.568   3.503   2.663 -0.0490  0.3446 -0.1781
17683TIP3    H174464   6.526   3.565   2.723 -2.5194 -0.0062 -1.4887
17683TIP3    H274465   6.541   3.532   2.576  1.3006 -0.7558 -0.9805
17684TIP3   OH274466   5.998   5.982  12.642 -0.1408  0.8557  0.8500
17684TIP3    H174467   5.952   6.014  12.564 -0.0467  1.0482  0.8716
17684TIP3    H274468   6.006   6.060  12.698 -0.9967  0.5333  1.4388
17685TIP3   OH274469   5.846   0.847  10.484  0.4738  0.0456  0.4608
17685TIP3    H174470   5.783   0.865  10.415 -0.5945 -1.9426  0.8794
17685TIP3    H274471   5.931   0.852  10.441 -0.1260 -0.0996 -0.7636
17686TIP3   OH274472   2.335   3.418  12.701 -0.7965 -0.3347 -0.2776
17686TIP3    H174473   2.378   3.425  12.786 -0.2766 -0.3038 -0.5361
17686TIP3    H274474   2.300   3.506  12.685  0.8619  0.2168 -0.9962
17687TIP3   OH274475   6.297   1.571   2.347  0.1762 -0.4199 -0.1288
17687TIP3    H174476   6.252   1.512   2.286  0.0379 -1.1582  0.6761
17687TIP3    H274477   6.303   1.522   2.428 -1.1209  1.1499  0.9607
17688TIP3   OH274478   3.113   3.534  11.884 -0.1022  0.1640 -0.0752
17688TIP3    H174479   3.083   3.625  11.884  1.2613  0.6244  0.0012
17688TIP3    H274480   3.053   3.489  11.825  0.3291  1.4973 -1.5701
17689TIP3   OH274481   1.840   2.601   3.463  0.1610 -0.2077  0.5854
17689TIP3    H174482   1.797   2.515   3.471  1.1510 -0.6964  0.6388
17689TIP3    H274483   1.803   2.638   3.382 -0.3547 -0.6332  0.6233
17690TIP3   OH274484   4.360   5.842   0.088 -0.0935 -0.0733 -0.3591
17690TIP3    H174485   4.292   5.786   0.125 -0.3649  0.6671  0.2672
17690TIP3    H274486   4.442   5.811   0.128 -0.2070 -0.2048 -0.2287
17691TIP3   OH274487   6.556   3.884   5.790  0.6745  0.7976  0.0990
17691TIP3    H174488   6.490   3.824   5.826  0.5766 -0.0576 -1.4549
17691TIP3    H274489   6.506   3.961   5.763  0.2481  0.0621 -1.2784
17692TIP3   OH274490   5.385   3.038  15.910  0.0043 -0.1265 -0.8168
17692TIP3    H174491   5.317   3.097  15.879 -1.6176 -1.1503  0.7284
17692TIP3    H274492   5.424   3.083  15.985  0.1439 -0.1318 -0.8856
17693TIP3   OH274493   0.539   1.316   5.371 -0.1246 -0.3447  0.0275
17693TIP3    H174494   0.492   1.240   5.338  1.8264 -1.7851  0.4545
17693TIP3    H274495   0.547   1.374   5.295 -1.3439 -0.7135 -0.3868
17694TIP3   OH274496   2.518   5.099   5.304 -0.6252  0.0813 -0.8844
17694TIP3    H174497   2.496   5.079   5.395  1.1794  0.6259 -0.3000
17694TIP3    H274498   2.613   5.090   5.300 -0.6285  0.6571 -2.5665
17695TIP3   OH274499   5.332   1.583   0.998 -0.2835 -0.2632  0.0054
17695TIP3    H174500   5.273   1.514   1.027 -0.3059 -0.3206 -0.1777
17695TIP3    H274501   5.273   1.654   0.970 -0.2607 -0.1069  0.3403
17696TIP3   OH274502   1.636   0.540  13.662 -0.2997 -0.0512  0.0553
17696TIP3    H174503   1.651   0.594  13.585  0.5307 -0.2881  0.0511
17696TIP3    H274504   1.657   0.596  13.736  0.5191 -0.3369  0.0524
17697TIP3   OH274505   0.727   5.735  13.144  0.3813 -0.1920  0.4915
17697TIP3    H174506   0.789   5.699  13.208  2.4639 -0.4476 -1.5806
17697TIP3    H274507   0.700   5.660  13.092 -0.0268  0.2623  0.0407
17698TIP3   OH274508   5.430   3.516   3.287 -0.0050  0.3548  0.0029
17698TIP3    H174509   5.370   3.498   3.360  0.0441  1.7247  0.4013
17698TIP3    H274510   5.488   3.439   3.284 -0.0056  0.2764  1.4257
17699TIP3   OH274511   2.136   1.068  13.599  0.2239 -0.3995 -0.5380
17699TIP3    H174512   2.051   1.034  13.625 -0.1907  0.3505 -0.8965
17699TIP3    H274513   2.190   1.060  13.677 -0.8542  1.3306  0.4322
17700TIP3   OH274514   3.847   4.550  12.300 -0.3354 -0.4441  0.0638
17700TIP3    H174515   3.764   4.565  12.255  0.3731 -1.8242 -1.7742
17700TIP3    H274516   3.890   4.636  12.300 -1.2082 -0.0074 -0.1456
17701TIP3   OH274517   6.442   1.218   2.488 -0.2320 -0.1515 -0.3496
17701TIP3    H174518   6.390   1.185   2.562  1.1683  1.2083  1.2919
17701TIP3    H274519   6.451   1.312   2.506  1.7583 -0.1544 -1.2666
17702TIP3   OH274520   0.942   1.875   0.108 -0.7207  0.4626  0.3298
17702TIP3    H174521   0.960   1.817   0.181  0.0034  1.5281  1.0189
17702TIP3    H274522   0.851   1.857   0.085 -0.9817  0.1761  1.5543
17703TIP3   OH274523   5.971   6.584  14.413  0.4880  0.3405  0.4855
17703TIP3    H174524   5.959   6.499  14.371 -2.1660 -0.3980  2.5963
17703TIP3    H274525   6.065   6.590  14.428  0.8029 -1.8491 -0.4700
17704TIP3   OH274526   6.328   6.478  13.183 -0.3877  0.0898  0.1569
17704TIP3    H174527   6.375   6.446  13.106  1.2337  1.4885  0.5483
17704TIP3    H274528   6.376   6.440  13.257 -0.0144  1.3256  0.5513
17705TIP3   OH274529   6.109   4.110  16.690  0.2852  0.1902  0.7570
17705TIP3    H174530   6.086   4.163  16.766  1.3327  0.4501  0.8982
17705TIP3    H274531   6.189   4.064  16.716  1.1058  0.8963 -0.4710
17706TIP3   OH274532   1.361   3.077   1.939 -0.1137  0.1764 -0.0596
17706TIP3    H174533   1.305   3.154   1.944  0.1126  0.3387 -0.0345
17706TIP3    H274534   1.304   3.008   1.905 -0.6092  0.0621  1.0117
17707TIP3   OH274535   3.399   4.984   5.312  0.3382 -0.0767 -0.1812
17707TIP3    H174536   3.357   5.070   5.303  0.0928 -0.0810  0.8627
17707TIP3    H274537   3.330   4.922   5.290  0.7123  0.0101 -1.6209
17708TIP3   OH274538   2.584   0.836  13.103  0.1676  0.1467 -0.5746
17708TIP3    H174539   2.648   0.900  13.134 -1.3560  1.6385 -0.4108
17708TIP3    H274540   2.600   0.830  13.009  0.7856  0.2301 -0.4791
17709TIP3   OH274541   1.766   0.127   6.055 -0.1217 -0.2931  0.0500
17709TIP3    H174542   1.861   0.123   6.068  0.2376 -0.3464 -2.3843
17709TIP3    H274543   1.730   0.139   6.143  2.2141  0.9479  0.8714
17710TIP3   OH274544   1.897   2.258  12.826 -0.4597  0.7090 -0.7771
17710TIP3    H174545   1.903   2.175  12.780 -1.1759  0.6096 -0.6953
17710TIP3    H274546   1.975   2.306  12.799 -1.0669  0.8115 -2.4136
17711TIP3   OH274547   4.134   4.404  13.712  0.0136  0.3445 -0.1187
17711TIP3    H174548   4.153   4.400  13.618  1.4347  0.6334  0.1491
17711TIP3    H274549   4.130   4.498  13.732  0.5491  0.2822  0.2754
17712TIP3   OH274550   1.276   0.682  17.093  0.0274 -0.3037 -0.0189
17712TIP3    H174551   1.314   0.695  17.180 -0.4634  0.9179  0.0068
17712TIP3    H274552   1.351   0.688  17.033  0.2253 -0.2329  0.2327
17713TIP3   OH274553   0.139   2.583   0.843  0.6078  0.5361  0.1937
17713TIP3    H174554   0.127   2.599   0.937  2.3859  0.6321  0.4168
17713TIP3    H274555   0.061   2.620   0.803 -0.5098 -0.1174  1.6975
17714TIP3   OH274556   3.809   4.197  16.178 -0.1332  0.1511  0.4360
17714TIP3    H174557   3.780   4.110  16.206 -0.1608  0.3577  1.0671
17714TIP3    H274558   3.742   4.225  16.115 -0.9885  0.3663  1.4250
17715TIP3   OH274559   0.623   0.559   4.267  0.5494 -0.5497 -0.0556
17715TIP3    H174560   0.554   0.533   4.206  0.4171 -1.1659  0.3485
17715TIP3    H274561   0.640   0.480   4.319  0.5868 -0.0034  0.7728
17716TIP3   OH274562   6.195   3.160   1.505 -0.5600 -0.5136  0.4987
17716TIP3    H174563   6.156   3.219   1.440 -0.5581  0.6385  1.5186
17716TIP3    H274564   6.207   3.215   1.583  2.0341 -1.1098  0.5708
17717TIP3   OH274565   2.121   0.788   0.992 -0.7043  0.0719  0.2555
17717TIP3    H174566   2.127   0.785   1.087 -1.4475 -0.0767  0.2996
17717TIP3    H274567   2.148   0.700   0.964  1.0452  0.5981  0.2345
17718TIP3   OH274568   1.743   1.773  12.820 -0.2155  0.3200 -0.3331
17718TIP3    H174569   1.704   1.833  12.883  0.5185  0.8243 -0.3574
17718TIP3    H274570   1.730   1.686  12.858 -2.3404  0.3704 -0.8488
17719TIP3   OH274571   1.455   6.214  11.125  0.4783 -0.0918 -0.0661
17719TIP3    H174572   1.437   6.303  11.153 -0.3891 -0.3032  0.0609
17719TIP3    H274573   1.530   6.222  11.066 -0.7784  0.9641 -1.5529
17720TIP3   OH274574   5.243   5.623   0.037 -0.4879 -0.4003  0.6040
17720TIP3    H174575   5.321   5.566   0.038 -0.4690 -0.4324 -1.2485
17720TIP3    H274576   5.172   5.566   0.066 -0.1240 -0.8584  0.6022
17721TIP3   OH274577   0.916   5.270   1.103 -0.4029  0.1717  0.5841
17721TIP3    H174578   0.944   5.184   1.072 -0.1920  0.2504  0.5569
17721TIP3    H274579   0.888   5.255   1.193  1.2700  0.3977  1.1549
17722TIP3   OH274580   0.902   3.666  11.882  0.3162 -0.4757  0.3440
17722TIP3    H174581   0.813   3.702  11.874 -0.0097 -1.0906  1.0884
17722TIP3    H274582   0.958   3.732  11.842 -0.6046 -0.6714 -1.3269
17723TIP3   OH274583   1.903   3.880   4.827 -0.1794 -0.7717  0.2227
17723TIP3    H174584   1.898   3.949   4.761  2.7632 -0.9348 -0.2449
17723TIP3    H274585   1.854   3.807   4.789  0.6989 -0.5419 -1.4251
17724TIP3   OH274586   2.973   2.951   0.858  0.5973 -0.3788  0.5882
17724TIP3    H174587   2.878   2.963   0.857  0.7338  0.7579  0.5382
17724TIP3    H274588   2.987   2.869   0.905 -0.4357 -0.8024  0.1581
17725TIP3   OH274589   1.505   5.299   1.857 -0.6195 -0.4372  0.5026
17725TIP3    H174590   1.558   5.378   1.847 -0.9263 -0.1049  1.4430
17725TIP3    H274591   1.564   5.227   1.835 -0.5629  0.0942 -1.1436
17726TIP3   OH274592   5.932   3.899   0.558  0.2651 -0.2145  0.2936
17726TIP3    H174593   5.945   3.978   0.505  0.3188  1.0770  2.1752
17726TIP3    H274594   5.999   3.838   0.527  1.6955  1.3021  0.2928
17727TIP3   OH274595   3.886   4.707  13.604  0.3288 -0.0079 -0.2744
17727TIP3    H174596   3.935   4.664  13.534 -0.4086 -2.1781  0.5139
17727TIP3    H274597   3.920   4.668  13.684 -0.7763  0.4713  0.4275
17728TIP3   OH274598   5.465   0.342   3.389 -0.1694 -0.4001  0.3114
17728TIP3    H174599   5.412   0.278   3.435 -2.2861  1.2860  0.2942
17728TIP3    H274600   5.451   0.324   3.296 -0.5740 -0.0922  0.3089
17729TIP3   OH274601   1.909   5.442  16.722 -0.1242  0.4406  0.0797
17729TIP3    H174602   1.874   5.353  16.709 -0.2847  0.2866  1.4714
17729TIP3    H274603   1.917   5.450  16.817 -0.1314  1.9300 -0.0423
17730TIP3   OH274604   4.267   4.644  13.649 -0.0499  0.4653 -0.1388
17730TIP3    H174605   4.332   4.680  13.589  0.5349 -0.9663 -0.3886
17730TIP3    H274606   4.246   4.716  13.708  1.6580  0.9884 -0.1489
17731TIP3   OH274607   1.694   1.017  12.644  0.1790 -0.0636  0.2539
17731TIP3    H174608   1.606   1.045  12.617  1.3964  2.4813 -1.2098
17731TIP3    H274609   1.730   0.974  12.566 -0.2915 -2.5641  1.3439
17732TIP3   OH274610   2.123   4.513   4.917  0.4673  0.2395 -0.7400
17732TIP3    H174611   2.056   4.448   4.940 -0.1205  0.7822 -0.8947
17732TIP3    H274612   2.150   4.550   5.001 -0.4007  0.9644 -0.7637
17733TIP3   OH274613   6.014   2.524  13.930 -0.2211  0.5155  0.1843
17733TIP3    H174614   6.010   2.611  13.971  1.1242 -0.0375  1.5651
17733TIP3    H274615   6.075   2.535  13.857 -0.7892  0.9579 -0.2239
17734TIP3   OH274616   4.197   6.436  16.059  0.0320  0.0342  0.1575
17734TIP3    H174617   4.217   6.373  16.128  0.4367  0.2909  0.2788
17734TIP3    H274618   4.257   6.509  16.075  1.3405 -0.6569 -1.4971
17735TIP3   OH274619   1.242   1.851   5.622 -0.2082 -0.3441  0.6226
17735TIP3    H174620   1.200   1.777   5.578  0.8774 -0.7160  0.1960
17735TIP3    H274621   1.205   1.928   5.579  0.9557 -0.6998 -1.0629
17736TIP3   OH274622   0.814   2.027   5.665  0.4033 -0.3324  0.7693
17736TIP3    H174623   0.886   2.077   5.628  0.3891  0.1565  1.3968
17736TIP3    H274624   0.809   2.055   5.757 -1.1800  0.3358  0.4995
17737TIP3   OH274625   3.247   3.768  14.431  0.0980  1.0395  0.2964
17737TIP3    H174626   3.180   3.772  14.499 -2.2640  1.3050 -1.9612
17737TIP3    H274627   3.304   3.842  14.450 -2.0055  2.6493  0.5596
17738TIP3   OH274628   5.026   5.754   2.451 -0.7605 -0.4811 -0.3995
17738TIP3    H174629   5.022   5.848   2.466  0.2160 -0.3326 -1.0427
17738TIP3    H274630   5.019   5.744   2.356 -1.9226 -1.1215 -0.2577
17739TIP3   OH274631   5.304   6.223  10.691  0.4408 -0.0658  0.5704
17739TIP3    H174632   5.214   6.252  10.703  0.9830  1.4101  1.3066
17739TIP3    H274633   5.302   6.166  10.614 -0.9729  0.6158  0.0965
17740TIP3   OH274634   3.793   4.109   1.359 -0.1556 -0.5229 -0.2483
17740TIP3    H174635   3.817   4.068   1.276 -0.3257  1.3308 -1.2407
17740TIP3    H274636   3.733   4.179   1.335 -1.0980 -0.6786  1.5631
17741TIP3   OH274637   6.516   2.629  15.257 -0.4747  0.1411 -0.3487
17741TIP3    H174638   6.449   2.662  15.197 -0.5184 -0.3781 -0.5881
17741TIP3    H274639   6.517   2.534  15.242 -0.1507  0.0680  0.1302
17742TIP3   OH274640   0.792   0.803  15.926 -0.1608  0.1233  0.2839
17742TIP3    H174641   0.819   0.756  16.005  1.3427  0.8747  0.2497
17742TIP3    H274642   0.720   0.860  15.956  0.7549  0.8039  1.2653
17743TIP3   OH274643   1.509   3.310   2.780 -0.3590 -0.2926 -0.5701
17743TIP3    H174644   1.577   3.298   2.846 -1.7377  0.5639  1.0548
17743TIP3    H274645   1.544   3.375   2.720  0.0861  0.4698  0.5069
17744TIP3   OH274646   3.158   1.712   5.497 -0.1741  0.1519  0.0331
17744TIP3    H174647   3.129   1.632   5.542  0.4985 -0.8650 -1.2926
17744TIP3    H274648   3.242   1.688   5.458 -0.8011  0.9537 -1.8678
17745TIP3   OH274649   4.658   6.194   0.112 -0.2867 -0.2832 -0.1574
17745TIP3    H174650   4.618   6.224   0.031 -2.6046  0.3253  1.1690
17745TIP3    H274651   4.647   6.267   0.173  3.3627  0.1344  0.1486
17746TIP3   OH274652   2.801   3.977  11.988  0.4773 -0.4320 -0.0012
17746TIP3    H174653   2.759   3.993  11.903 -0.4677  1.7442  0.8446
17746TIP3    H274654   2.824   3.884  11.986 -0.9255 -0.7695 -2.0202
17747TIP3   OH274655   6.186   1.183  15.789 -0.2895  0.2138 -0.0562
17747TIP3    H174656   6.205   1.230  15.870 -0.9089 -0.2652  0.3648
17747TIP3    H274657   6.094   1.157  15.797 -0.4298  0.3802 -1.0151
17748TIP3   OH274658   0.095   3.889  15.635 -0.0056 -0.1380 -0.0431
17748TIP3    H174659   0.010   3.907  15.675  0.0807 -0.1554  0.1492
17748TIP3    H274660   0.076   3.875  15.543 -0.1800  0.1133 -0.0450
17749TIP3   OH274661   2.522   4.159   2.922 -0.6447  0.1200  0.3198
17749TIP3    H174662   2.449   4.206   2.961  1.0693  2.3185  1.0039
17749TIP3    H274663   2.552   4.216   2.851 -0.3050 -1.3026 -0.7096
17750TIP3   OH274664   2.819   3.919  15.776  0.5474 -0.0112  0.2771
17750TIP3    H174665   2.846   3.920  15.684  1.0198 -1.3269  0.3896
17750TIP3    H274666   2.847   3.833  15.808  1.2237  0.7864  1.9032
17751TIP3   OH274667   4.784   5.734   1.710 -0.4766 -0.0897 -0.3638
17751TIP3    H174668   4.874   5.728   1.741 -0.0514 -3.3429 -2.0476
17751TIP3    H274669   4.792   5.764   1.619 -1.2733  1.9572  0.2053
17752TIP3   OH274670   3.899   0.847   6.211  0.3429 -0.2794  0.0031
17752TIP3    H174671   3.851   0.801   6.280  0.0656 -0.2604 -0.1732
17752TIP3    H274672   3.975   0.793   6.194 -0.2053 -0.8935 -0.5061
17753TIP3   OH274673   4.713   6.612   5.273  0.5086  0.3319  0.0428
17753TIP3    H174674   4.739   6.699   5.243  1.8237 -0.2126 -0.4771
17753TIP3    H274675   4.724   6.556   5.197 -0.1744 -0.3216  0.4162
17754TIP3   OH274676   0.204   4.894   6.145 -0.2172 -0.0163  0.4253
17754TIP3    H174677   0.245   4.972   6.108 -0.1329 -0.4783 -0.4630
17754TIP3    H274678   0.242   4.887   6.233 -0.3819  1.0520  0.5877
17755TIP3   OH274679   4.615   5.585  12.520 -0.1522  0.1258  0.0511
17755TIP3    H174680   4.687   5.592  12.583 -0.5843  0.9576  0.4668
17755TIP3    H274681   4.542   5.548  12.570  0.0022 -0.7722 -0.3816
17756TIP3   OH274682   6.313   6.415   3.755  0.0367 -0.2033 -0.3693
17756TIP3    H174683   6.354   6.475   3.693 -1.1405  1.0173  0.0254
17756TIP3    H274684   6.221   6.441   3.757 -0.1017 -0.7644  1.2588
17757TIP3   OH274685   5.046   6.146   1.081  0.0938  0.0644  0.2849
17757TIP3    H174686   5.100   6.223   1.097  0.2803 -0.0377  0.1535
17757TIP3    H274687   5.049   6.134   0.986 -3.0964  2.1924 -0.1582
17758TIP3   OH274688   0.259   2.843  14.783  0.8535  0.4869  0.6158
17758TIP3    H174689   0.196   2.915  14.780  1.2610  0.8037 -0.4578
17758TIP3    H274690   0.278   2.823  14.692 -1.0628 -2.6189  0.8222
17759TIP3   OH274691   0.290   1.734   2.215  0.0440  0.3466 -0.0829
17759TIP3    H174692   0.291   1.716   2.309  1.7032 -0.8612 -0.3070
17759TIP3    H274693   0.244   1.817   2.207  0.3606  0.7362  1.8546
17760TIP3   OH274694   0.625   1.266  14.862 -0.2965  0.0597  0.1986
17760TIP3    H174695   0.536   1.241  14.888 -0.1525  1.0347  1.6949
17760TIP3    H274696   0.613   1.328  14.791 -0.8945  1.5801  1.5925
17761TIP3   OH274697   5.015   4.730  14.888  0.1444  0.1307 -0.1625
17761TIP3    H174698   4.949   4.797  14.903 -0.1280  0.0055 -0.7957
17761TIP3    H274699   5.094   4.765  14.930 -0.0683  0.7241 -0.2511
17762TIP3   OH274700   0.201   5.063  16.340  0.0242 -0.4503 -0.2725
17762TIP3    H174701   0.269   5.011  16.382 -0.0530  1.0448  1.8134
17762TIP3    H274702   0.142   4.999  16.300  0.1917 -1.9530  1.8095
17763TIP3   OH274703   4.587   5.170  16.219 -0.3261 -1.1715 -0.0222
17763TIP3    H174704   4.500   5.208  16.208 -0.2256 -0.8558  0.2491
17763TIP3    H274705   4.645   5.229  16.170 -0.2630 -1.3697 -0.1856
17764TIP3   OH274706   3.785   5.261   6.592  0.1867 -0.7406 -0.9170
17764TIP3    H174707   3.878   5.269   6.569  0.5015  1.4151  0.9951
17764TIP3    H274708   3.747   5.345   6.568 -0.6559 -0.5671  0.9649
17765TIP3   OH274709   1.783   1.496   3.584  0.8638 -0.4280  0.2063
17765TIP3    H174710   1.754   1.463   3.499  0.9194 -1.3607  0.5324
17765TIP3    H274711   1.742   1.582   3.593  0.5151 -0.5124 -0.5739
17766TIP3   OH274712   5.942   4.924   3.539 -0.1122 -0.3730 -0.0004
17766TIP3    H174713   6.023   4.970   3.516 -0.3321 -0.1642 -0.3820
17766TIP3    H274714   5.909   4.890   3.455 -0.5864 -0.1673  0.0952
17767TIP3   OH274715   2.584   0.337  13.614 -0.0089 -0.0304 -0.0069
17767TIP3    H174716   2.527   0.405  13.578 -1.2815 -1.1130 -0.0226
17767TIP3    H274717   2.672   0.362  13.585 -0.7651  0.2840 -2.0468
17768TIP3   OH274718   0.706   3.449   5.570 -0.1657  0.1335  0.5092
17768TIP3    H174719   0.702   3.527   5.514 -0.3859  0.8947  1.5713
17768TIP3    H274720   0.627   3.400   5.549 -0.6478  0.8127  0.7195
17769TIP3   OH274721   5.808   1.131  13.625  0.0011  0.1555  0.1764
17769TIP3    H174722   5.878   1.070  13.648 -0.8357 -0.9164 -0.1216
17769TIP3    H274723   5.853   1.201  13.577  1.1588  0.4612  1.6993
17770TIP3   OH274724   4.088   5.790  14.977  1.0015 -0.3832  0.0322
17770TIP3    H174725   4.084   5.878  15.014  1.5216 -0.7195  0.9088
17770TIP3    H274726   4.002   5.776  14.938  0.7888  0.3641  0.2276
17771TIP3   OH274727   1.731   1.522   4.902 -0.4046  0.0370 -0.0930
17771TIP3    H174728   1.816   1.556   4.929  0.3671 -0.8004 -1.3942
17771TIP3    H274729   1.750   1.435   4.866 -1.8204 -0.2078 -0.2940
17772TIP3   OH274730   0.014   0.587   5.182 -0.2007 -0.1430  0.0125
17772TIP3    H174731   0.000   0.647   5.108 -0.8879  0.6306  0.7604
17772TIP3    H274732  -0.070   0.541   5.191  0.2970 -1.1777 -0.5064
17773TIP3   OH274733   1.975   2.131  14.998  0.0067  0.3322 -0.1654
17773TIP3    H174734   1.926   2.151  14.919  0.2340  0.2238 -0.3348
17773TIP3    H274735   1.934   2.052  15.033 -0.2154  0.4901 -0.0735
17774TIP3   OH274736   4.815   1.421  16.136  0.6754 -0.5262  0.6581
17774TIP3    H174737   4.894   1.367  16.127  1.8556  1.4036 -1.1723
17774TIP3    H274738   4.826   1.466  16.219  0.8165 -1.3538  1.0920
17775TIP3   OH274739   1.971   3.520  14.165 -0.0726 -0.1996  0.4782
17775TIP3    H174740   1.981   3.565  14.248  2.6860 -1.5146  0.9211
17775TIP3    H274741   1.899   3.458  14.180 -1.2843  1.3303  1.0596
17776TIP3   OH274742   1.227   5.997  10.436  0.0743 -0.1278  1.1600
17776TIP3    H174743   1.132   5.983  10.434  0.1427 -0.4938 -0.9187
17776TIP3    H274744   1.264   5.911  10.416  0.7849  0.4072  0.1169
17777TIP3   OH274745   0.471   4.411   5.201 -0.1292 -0.0107 -0.4311
17777TIP3    H174746   0.497   4.324   5.168  1.3992  1.0032 -1.9607
17777TIP3    H274747   0.543   4.438   5.257 -0.1149  0.7156 -0.7946
17778TIP3   OH274748   4.064   3.297   0.558  0.4098  0.2998 -0.1830
17778TIP3    H174749   4.000   3.363   0.530  0.3447  0.1420 -0.4055
17778TIP3    H274750   4.032   3.216   0.519 -0.3611 -0.1526  1.3396
17779TIP3   OH274751   0.927   4.663  12.867 -0.4890 -0.3066  0.7078
17779TIP3    H174752   0.878   4.693  12.791  0.9827  4.7077  1.4916
17779TIP3    H274753   1.007   4.624  12.831 -0.6754  0.2967 -0.3718
17780TIP3   OH274754   5.003   0.703  14.123 -0.3177 -0.1428 -0.8405
17780TIP3    H174755   4.985   0.614  14.092  0.6689 -0.5005 -0.4010
17780TIP3    H274756   4.954   0.759  14.063 -0.9172 -0.9821 -1.1459
17781TIP3   OH274757   3.173   3.182  15.170 -0.3548 -0.2980 -0.0840
17781TIP3    H174758   3.143   3.113  15.230 -1.6285 -0.2818 -0.6861
17781TIP3    H274759   3.118   3.257  15.191  0.5300  0.3203  0.0564
17782TIP3   OH274760   3.516   3.333  16.280  0.5674  0.0252  0.3689
17782TIP3    H174761   3.480   3.278  16.211  1.5291  1.3813 -1.2702
17782TIP3    H274762   3.529   3.274  16.355  0.3374 -1.6581 -0.8922
17783TIP3   OH274763   1.011   2.859  13.312  0.1083  0.2003  0.6983
17783TIP3    H174764   1.070   2.929  13.282  0.3230  1.7194  4.4285
17783TIP3    H274765   0.924   2.889  13.284  0.6399 -0.0816 -1.3129
17784TIP3   OH274766   2.827   6.371   5.212  0.7837  0.1327 -0.3816
17784TIP3    H174767   2.808   6.356   5.305  1.6164  1.3798  0.0089
17784TIP3    H274768   2.880   6.296   5.186 -0.2251 -0.6932 -0.0995
17785TIP3   OH274769   6.447   1.700  14.575 -0.7204  0.2412 -0.0313
17785TIP3    H174770   6.377   1.753  14.612  0.1078 -0.1741  2.1873
17785TIP3    H274771   6.442   1.616  14.622 -0.1011 -0.5561 -1.3512
17786TIP3   OH274772   4.396   0.576  13.025 -0.0894 -0.0403  0.6844
17786TIP3    H174773   4.412   0.547  13.115  0.2547 -0.1581  0.5874
17786TIP3    H274774   4.445   0.658  13.016 -0.2403  0.0476  0.6481
17787TIP3   OH274775   1.472   0.850   3.642 -0.1034 -0.0162 -0.3743
17787TIP3    H174776   1.405   0.811   3.585  0.6347 -3.1644  0.7974
17787TIP3    H274777   1.422   0.889   3.713 -0.8881  1.5755 -1.7652
17788TIP3   OH274778   6.353   2.644   4.018 -0.4581 -0.0500  0.5472
17788TIP3    H174779   6.392   2.580   3.958  1.9056 -0.1841  2.1491
17788TIP3    H274780   6.368   2.729   3.976  2.3520 -0.0254  1.4562
17789TIP3   OH274781   0.147   0.375   4.183 -0.2891  0.2123  0.8113
17789TIP3    H174782   0.220   0.434   4.202  0.1814 -0.2868  0.5413
17789TIP3    H274783   0.091   0.425   4.123 -0.3410  0.7176  1.2746
17790TIP3   OH274784   5.017   5.805   2.163  0.5399 -0.8987 -0.7003
17790TIP3    H174785   5.092   5.774   2.113  0.5409  0.2764 -1.4575
17790TIP3    H274786   5.004   5.896   2.134 -1.1080 -1.0486 -0.5234
17791TIP3   OH274787   2.604   3.157  10.678  0.4004  0.4046 -0.9194
17791TIP3    H174788   2.642   3.194  10.598 -1.5301 -0.4443 -2.2940
17791TIP3    H274789   2.565   3.074  10.649 -2.5197  1.2649  0.3494
17792TIP3   OH274790   1.608   3.190   2.073 -0.2835 -0.1446  0.3171
17792TIP3    H174791   1.625   3.108   2.119  0.5274  0.6407  1.4365
17792TIP3    H274792   1.518   3.183   2.043  0.1327 -1.9046 -0.5490
17793TIP3   OH274793   4.689   4.925  16.956 -0.2175 -0.3874  0.5114
17793TIP3    H174794   4.610   4.961  16.997 -1.6379 -1.5970 -1.0865
17793TIP3    H274795   4.710   4.848  17.008  0.0754  0.0947  1.1125
17794TIP3   OH274796   1.050   2.075   1.847 -0.3414 -0.3942 -0.4004
17794TIP3    H174797   0.979   2.038   1.900 -0.0376 -1.5688 -0.8104
17794TIP3    H274798   1.088   2.143   1.904 -2.0160  0.5181 -0.3207
17795TIP3   OH274799   6.409   6.148  14.259  0.7349 -0.3386 -0.1941
17795TIP3    H174800   6.325   6.187  14.236  0.0399 -0.8855  1.3415
17795TIP3    H274801   6.470   6.222  14.262  0.2995  0.0662 -1.2457
17796TIP3   OH274802   2.733   4.821   3.527 -0.0450 -0.4164  0.2696
17796TIP3    H174803   2.731   4.906   3.571 -1.0818  0.0605 -0.6821
17796TIP3    H274804   2.814   4.780   3.558  1.2799  1.5539 -0.4488
17797TIP3   OH274805   4.647   6.430  11.412 -0.4501 -0.5769 -0.2668
17797TIP3    H174806   4.595   6.466  11.340 -1.9485 -1.2746  0.4430
17797TIP3    H274807   4.679   6.507  11.459 -0.4733 -0.1348 -0.9650
17798TIP3   OH274808   3.522   5.402   3.375 -0.0001 -0.1745 -0.4330
17798TIP3    H174809   3.574   5.441   3.305  0.6093 -0.1069  0.0550
17798TIP3    H274810   3.439   5.380   3.334 -0.0780  0.9486 -0.8937
17799TIP3   OH274811   6.370   2.589  12.538  0.2345  0.3173  0.0587
17799TIP3    H174812   6.329   2.585  12.624 -0.3535 -1.3101 -0.2799
17799TIP3    H274813   6.452   2.541  12.547 -0.1867 -0.5195 -0.4629
17800TIP3   OH274814   5.844   0.918   3.822  0.0657 -0.3809  0.6034
17800TIP3    H174815   5.853   0.892   3.913  0.0380 -0.7637  0.4967
17800TIP3    H274816   5.881   1.007   3.819 -0.3527 -0.1876  1.0776
17801TIP3   OH274817   5.261   4.181  14.963 -0.1316 -0.4427  0.0512
17801TIP3    H174818   5.203   4.180  14.888 -0.4326 -0.8869  0.2892
17801TIP3    H274819   5.203   4.170  15.039  0.3653 -1.9492  0.2214
17802TIP3   OH274820   5.370   4.067   3.280  0.1358 -0.8424  0.5961
17802TIP3    H174821   5.304   4.130   3.249  1.1013 -0.1959 -0.1698
17802TIP3    H274822   5.355   4.062   3.375  0.1863  0.7247  0.7063
17803TIP3   OH274823   5.307   0.066   1.885 -0.0232  0.6330  0.8961
17803TIP3    H174824   5.325   0.159   1.900  1.9637  0.3799  0.1377
17803TIP3    H274825   5.388   0.030   1.850 -1.0472 -1.2187  0.3202
17804TIP3   OH274826   6.217   0.540  16.451  0.1492 -0.0136  0.1256
17804TIP3    H174827   6.169   0.469  16.408 -0.4176 -0.7748  1.9486
17804TIP3    H274828   6.273   0.576  16.383 -0.2291 -1.6199 -1.0682
17805TIP3   OH274829   5.280   0.118  11.538  0.8889 -0.4988 -0.2205
17805TIP3    H174830   5.339   0.179  11.494  0.5225 -0.5105 -0.7380
17805TIP3    H274831   5.288   0.037  11.486 -1.8509  0.3985 -2.1249
17806TIP3   OH274832   4.056   0.729  10.922  0.3063  0.2333 -0.7394
17806TIP3    H174833   4.001   0.665  10.967  0.9576  0.7137  0.7659
17806TIP3    H274834   4.138   0.683  10.907 -0.1108 -0.1199 -1.9920
17807TIP3   OH274835   6.212   0.729   0.000 -0.0918 -0.3435 -0.2755
17807TIP3    H174836   6.299   0.705  -0.032 -0.2358 -1.1953 -0.0585
17807TIP3    H274837   6.225   0.749   0.093  0.2280  1.5856 -0.7188
17808TIP3   OH274838   4.612   6.521  11.732 -0.1014 -0.3410  0.6164
17808TIP3    H174839   4.606   6.592  11.668  1.2987  0.0321  0.8837
17808TIP3    H274840   4.699   6.483  11.718  0.7644  0.6062  3.1500
17809TIP3   OH274841   1.678   1.625  13.301  0.1678 -0.4167  0.4296
17809TIP3    H174842   1.665   1.664  13.387 -0.1265  0.1065  0.1533
17809TIP3    H274843   1.741   1.683  13.258 -1.6805  0.8474 -0.6682
17810TIP3   OH274844   3.227   2.591  15.212  0.4562 -0.4195  0.4354
17810TIP3    H174845   3.258   2.501  15.211 -1.4445 -1.1088  0.8312
17810TIP3    H274846   3.178   2.598  15.294  0.1519  0.8243  0.1589
17811TIP3   OH274847   3.736   4.419  17.194 -0.2804  0.7951  0.1015
17811TIP3    H174848   3.789   4.381  17.123 -1.4339 -1.9695  0.6328
17811TIP3    H274849   3.646   4.411  17.163 -0.7805 -0.2956  1.7940
17812TIP3   OH274850   0.593   6.159  12.010  0.3844 -0.0135  0.0390
17812TIP3    H174851   0.535   6.183  11.938 -2.7029 -3.3456  1.2884
17812TIP3    H274852   0.656   6.098  11.970  0.0777 -0.0798 -0.3515
17813TIP3   OH274853   0.063   3.069  15.340 -0.6235  0.2603  0.1661
17813TIP3    H174854  -0.003   3.003  15.321 -0.6047  0.7028 -1.5162
17813TIP3    H274855   0.119   3.070  15.262  0.5398  0.8743  0.9902
17814TIP3   OH274856   0.855   4.923  12.245  0.2223  0.2611 -0.1068
17814TIP3    H174857   0.890   4.863  12.310 -0.1981  0.3251  0.1790
17814TIP3    H274858   0.806   4.989  12.295 -2.1988 -1.0731 -0.6056
17815TIP3   OH274859   1.471   0.919   6.669  0.2093 -0.0467 -0.1590
17815TIP3    H174860   1.467   0.874   6.585  1.4202  0.9872 -0.7883
17815TIP3    H274861   1.532   0.866   6.721  1.1021  0.4541 -0.6685
17816TIP3   OH274862   0.843   4.687  15.405 -0.3095  0.1653 -0.0208
17816TIP3    H174863   0.815   4.691  15.313  0.5841  0.1391 -0.3011
17816TIP3    H274864   0.765   4.658  15.452 -0.2195 -1.8149 -1.0327
17817TIP3   OH274865   2.877   5.209   2.609  0.2501 -0.1330 -0.0956
17817TIP3    H174866   2.866   5.303   2.623  1.4139 -0.0290  0.2108
17817TIP3    H274867   2.967   5.200   2.578  0.6797 -1.2791  1.3987
17818TIP3   OH274868   5.609   2.073  15.590  0.2148  0.3218  0.1882
17818TIP3    H174869   5.529   2.124  15.581 -0.0885 -0.2017 -0.1256
17818TIP3    H274870   5.649   2.105  15.671  0.5646  1.7684 -0.5400
17819TIP3   OH274871   3.303   1.273  14.206 -0.4238  0.3258 -0.0724
17819TIP3    H174872   3.296   1.266  14.302  0.4167 -1.4705 -0.1339
17819TIP3    H274873   3.264   1.193  14.173  0.5882  0.2836 -1.1847
17820TIP3   OH274874   1.734   6.567   2.399  0.2983  0.1400 -0.1304
17820TIP3    H174875   1.663   6.562   2.463  1.4073  1.1353  1.2396
17820TIP3    H274876   1.721   6.491   2.342 -1.1527 -0.3543  0.8280
17821TIP3   OH274877   5.527   4.157  16.412 -0.3081  0.4353  0.6273
17821TIP3    H174878   5.509   4.066  16.438 -0.3011  0.3332  0.2794
17821TIP3    H274879   5.489   4.164  16.325  0.4583  0.5190  0.3016
17822TIP3   OH274880   4.386   1.034   3.357 -0.1502 -0.1283 -0.0510
17822TIP3    H174881   4.368   1.004   3.446  0.8239  0.8917  0.5085
17822TIP3    H274882   4.303   1.071   3.326 -0.5715 -0.7629  0.3272
17823TIP3   OH274883   3.929   4.923   0.555 -0.5960  0.1675 -0.2866
17823TIP3    H174884   4.003   4.982   0.540 -1.0013  0.9711  0.8367
17823TIP3    H274885   3.858   4.959   0.501 -1.6005  2.2001  2.2484
17824TIP3   OH274886   0.830   2.507   0.081 -0.2791 -0.1767 -0.0661
17824TIP3    H174887   0.786   2.427   0.111  0.1655 -0.7379 -0.9029
17824TIP3    H274888   0.905   2.517   0.141 -0.9903  0.2635  0.7669
17825TIP3   OH274889   3.589   1.102  14.522 -0.0604 -0.8016 -0.5655
17825TIP3    H174890   3.634   1.169  14.470  0.7460 -0.1277  0.9661
17825TIP3    H274891   3.638   1.022  14.506  0.8466 -0.3691 -0.0167
17826TIP3   OH274892   3.426   4.097   0.086 -0.2072 -0.2718  1.4012
17826TIP3    H174893   3.423   4.052   0.170  0.4525  1.3117  2.3140
17826TIP3    H274894   3.421   4.190   0.109 -1.7247  0.1349 -0.4191
17827TIP3   OH274895   4.562   6.736  13.493  0.5998  0.0192  0.1145
17827TIP3    H174896   4.578   6.827  13.517  0.2031 -0.0339  0.5894
17827TIP3    H274897   4.466   6.730  13.486  0.6937  0.0867 -1.6788
17828TIP3   OH274898   1.801   4.600   0.419  0.2987 -0.6358 -0.1604
17828TIP3    H174899   1.758   4.551   0.350  0.4796  1.2366 -1.6390
17828TIP3    H274900   1.735   4.607   0.489 -0.6046 -0.7333 -1.0001
17829TIP3   OH274901   6.684   0.689  14.846  0.2011  0.0275  0.4350
17829TIP3    H174902   6.646   0.639  14.774 -1.7657  0.6957  0.9778
17829TIP3    H274903   6.609   0.728  14.891  1.4892  0.8143  1.9722
17830TIP3   OH274904   2.589   0.990   4.822 -0.4629 -0.6945 -0.0873
17830TIP3    H174905   2.532   0.973   4.897  0.9953 -1.2782  0.9233
17830TIP3    H274906   2.535   1.042   4.762 -2.1909 -1.5943  0.6309
17831TIP3   OH274907   2.976   4.482   0.684 -0.3012  0.5149  0.1400
17831TIP3    H174908   2.993   4.413   0.748 -0.3255 -0.6170 -1.0624
17831TIP3    H274909   2.891   4.460   0.646  0.3400  0.4231 -1.2521
17832TIP3   OH274910   2.837   3.420  13.503 -0.2188 -0.2831 -0.0650
17832TIP3    H174911   2.749   3.455  13.493 -0.5399 -0.6002  1.4883
17832TIP3    H274912   2.861   3.389  13.415 -1.0518  1.1544 -0.8092
17833TIP3   OH274913   4.636   3.620  11.969 -0.1598 -0.0105 -0.1973
17833TIP3    H174914   4.589   3.549  12.013 -0.4113  0.3217  0.0703
17833TIP3    H274915   4.670   3.580  11.889  1.1920 -0.8999  0.8057
17834TIP3   OH274916   3.064   3.894   4.035  0.2754 -0.0970  0.6169
17834TIP3    H174917   3.042   3.828   3.969  0.4018 -0.5959  1.0671
17834TIP3    H274918   2.991   3.955   4.033  0.6754  0.3685 -0.5815
17835TIP3   OH274919   0.863   0.715  12.435  0.5129 -0.2093 -0.3104
17835TIP3    H174920   0.912   0.768  12.371  0.3476 -1.5560 -1.5683
17835TIP3    H274921   0.789   0.680  12.386  0.5507 -1.5132  0.5493
17836TIP3   OH274922   3.042   2.039  16.463 -0.6355  0.3451  0.0925
17836TIP3    H174923   3.103   2.022  16.535 -0.6855  0.0149  0.0586
17836TIP3    H274924   2.985   1.963  16.462 -1.5860  1.0484  0.6721
17837TIP3   OH274925   1.212   4.260  12.339 -0.2764  0.4558  0.1822
17837TIP3    H174926   1.283   4.299  12.391 -0.3798  1.0856 -0.1531
17837TIP3    H274927   1.234   4.280  12.249 -1.6540  1.9364  0.1635
17838TIP3   OH274928   1.382   0.201   2.523  0.2762 -0.4442  0.1347
17838TIP3    H174929   1.446   0.251   2.574 -0.3512  1.0091 -0.4883
17838TIP3    H274930   1.432   0.127   2.488  1.6251  0.6671 -0.3470
17839TIP3   OH274931   1.967   4.160  16.517  0.0262 -0.5227  0.2395
17839TIP3    H174932   1.934   4.073  16.496  0.1225 -0.8463  1.4276
17839TIP3    H274933   2.023   4.148  16.594  0.6122  0.4753 -0.0140
17840TIP3   OH274934   3.693   5.473  12.741 -0.0228  0.3029 -0.5992
17840TIP3    H174935   3.684   5.534  12.814  3.2652  1.6958 -1.2756
17840TIP3    H274936   3.706   5.529  12.664  1.6473 -1.2134 -1.4536
17841TIP3   OH274937   1.830   5.639   3.662  0.8780 -0.3837 -0.7615
17841TIP3    H174938   1.804   5.581   3.733  1.1281  0.2639 -0.1305
17841TIP3    H274939   1.805   5.726   3.692  1.3357 -0.0612 -1.3050
17842TIP3   OH274940   6.395   4.920  16.663  0.5116 -0.4915 -0.3536
17842TIP3    H174941   6.478   4.885  16.630  0.4726  0.6911 -1.8025
17842TIP3    H274942   6.411   5.014  16.672 -0.3805 -0.3906  0.2781
17843TIP3   OH274943   5.601   4.314   4.080  0.2341  0.0799 -0.2411
17843TIP3    H174944   5.577   4.226   4.052  0.2229  0.1372 -0.4074
17843TIP3    H274945   5.692   4.324   4.051  0.3499 -0.0094  0.0887
17844TIP3   OH274946   5.886   4.265   1.448  0.2488  0.0940 -0.0573
17844TIP3    H174947   5.912   4.355   1.427 -0.1830  0.7290  2.0788
17844TIP3    H274948   5.948   4.237   1.515  1.1555 -1.6588 -1.5928
17845TIP3   OH274949   0.214   4.250  12.827 -0.2593 -0.2198 -0.3166
17845TIP3    H174950   0.163   4.175  12.798  0.8302 -0.9818 -0.2703
17845TIP3    H274951   0.299   4.214  12.849  1.2384  1.4346 -3.1242
17846TIP3   OH274952   1.649   2.555  15.204 -0.0926  0.4357  0.0435
17846TIP3    H174953   1.592   2.629  15.184 -0.4802 -0.0273 -0.5664
17846TIP3    H274954   1.730   2.575  15.158 -0.5271  0.0164 -0.9064
17847TIP3   OH274955   5.682   3.627   4.155  0.1449 -0.8809  0.3249
17847TIP3    H174956   5.683   3.698   4.219  1.0023 -1.0985  0.5588
17847TIP3    H274957   5.595   3.589   4.162 -1.0953  1.5423 -1.3525
17848TIP3   OH274958   4.689   2.317  12.343 -0.2484  0.1231  0.5552
17848TIP3    H174959   4.615   2.290  12.397  0.4531 -0.8828  1.0232
17848TIP3    H274960   4.755   2.346  12.406  0.5299 -0.9454  0.2461
17849TIP3   OH274961   2.182   2.225   5.196 -0.3972  0.5678 -0.2303
17849TIP3    H174962   2.255   2.194   5.142  1.7260  0.4841  2.5886
17849TIP3    H274963   2.105   2.219   5.139  1.3118 -2.1650 -2.3253
17850TIP3   OH274964   0.048   5.705   4.209  0.2560 -0.4931  0.4212
17850TIP3    H174965   0.074   5.613   4.204  0.2181 -0.4541 -0.7387
17850TIP3    H274966   0.123   5.753   4.173  0.3422 -0.0523  1.1772
17851TIP3   OH274967   0.322   6.499  15.445 -0.0040 -0.0532  0.3070
17851TIP3    H174968   0.348   6.543  15.364  0.3253  0.2223  0.5579
17851TIP3    H274969   0.382   6.534  15.511 -1.6569  1.3957  1.1075
17852TIP3   OH274970   6.504   6.650   1.642 -0.5022  0.1423 -0.3546
17852TIP3    H174971   6.568   6.595   1.688 -0.9997  1.2008  1.6502
17852TIP3    H274972   6.555   6.725   1.611 -0.7210  0.8866  1.0682
17853TIP3   OH274973   5.900   1.796  13.687  0.4989  0.1972 -0.1543
17853TIP3    H174974   5.986   1.838  13.675  0.4491 -0.5178 -3.5460
17853TIP3    H274975   5.920   1.703  13.696  0.1230  0.0715 -0.5801
17854TIP3   OH274976   4.412   4.178  16.925 -0.3542 -0.1001 -0.5040
17854TIP3    H174977   4.344   4.113  16.942 -1.3064  1.4690  1.9311
17854TIP3    H274978   4.480   4.159  16.990 -0.1656  0.6710 -0.4761
17855TIP3   OH274979   6.715   5.997   2.519  0.5718  0.3198 -0.0816
17855TIP3    H174980   6.741   5.964   2.433  0.0763  2.5636 -1.1263
17855TIP3    H274981   6.669   5.924   2.560  2.6292 -1.4671 -0.8751
17856TIP3   OH274982   2.874   2.578  11.731  0.3510  0.4051  0.1878
17856TIP3    H174983   2.877   2.528  11.812 -1.6594 -0.6563 -0.3616
17856TIP3    H274984   2.806   2.644  11.746  0.0856  0.3082 -0.5736
17857TIP3   OH274985   6.470   2.925   1.739 -0.0278  0.2047  0.3427
17857TIP3    H174986   6.501   2.904   1.651 -1.8333 -0.4010 -0.1815
17857TIP3    H274987   6.499   2.851   1.793  1.7292  0.9352  0.4349
17858TIP3   OH274988   0.083   2.486  12.284  0.7249 -0.1845 -0.2379
17858TIP3    H174989   0.055   2.411  12.231  0.0606 -1.1844  1.4962
17858TIP3    H274990   0.177   2.472  12.297  0.4570 -1.1918  0.7662
17859TIP3   OH274991   4.129   4.528  12.050  0.0603 -0.0881 -0.2107
17859TIP3    H174992   4.181   4.606  12.030 -0.9668  0.3070 -1.4529
17859TIP3    H274993   4.150   4.466  11.980  1.4309 -1.2348  1.1796
17860TIP3   OH274994   2.894   2.891   4.726  0.4181 -0.2890 -0.6201
17860TIP3    H174995   2.844   2.963   4.687  0.9589  0.3716 -0.0978
17860TIP3    H274996   2.973   2.932   4.760 -0.6496 -0.6115  2.3832
17861TIP3   OH274997   6.761   2.805  13.310 -0.0924  0.6202  0.3341
17861TIP3    H174998   6.758   2.741  13.239 -0.5253  0.8571  0.1321
17861TIP3    H274999   6.851   2.800  13.344 -0.0264  0.1604  0.0900
17862TIP3   OH275000   1.803   2.549  11.690  0.1037  0.6829 -0.6051
17862TIP3    H175001   1.840   2.629  11.653  2.9247 -0.1049  0.3869
17862TIP3    H275002   1.821   2.555  11.784 -2.3076  0.2278 -0.0766
17863TIP3   OH275003   5.836   4.265   3.949  0.2078 -0.3571  0.5869
17863TIP3    H175004   5.881   4.222   4.021  1.1053  0.6676  0.6393
17863TIP3    H275005   5.827   4.197   3.882  1.1228 -0.7823  0.8920
17864TIP3   OH275006   3.538   2.215   3.129  0.2191 -0.3876 -0.1026
17864TIP3    H175007   3.624   2.228   3.089 -1.3662  1.0090 -3.2992
17864TIP3    H275008   3.480   2.198   3.054 -2.8300  1.9145  1.6421
17865TIP3   OH275009   4.313   1.221  14.522 -0.0109  0.0574 -0.6358
17865TIP3    H175010   4.335   1.192  14.610 -1.0226  0.0737 -0.3665
17865TIP3    H275011   4.383   1.186  14.467  1.5795  1.5131  0.4011
17866TIP3   OH275012   1.455   6.027  14.888 -0.4074 -0.1909 -0.2087
17866TIP3    H175013   1.379   5.969  14.897  0.0935 -0.9935 -1.1130
17866TIP3    H275014   1.514   5.981  14.829 -0.4723  1.7255 -1.8358
17867TIP3   OH275015   1.533   2.656  14.202  0.2930 -0.2005 -0.3741
17867TIP3    H175016   1.563   2.580  14.253 -0.4801 -0.0860  0.2520
17867TIP3    H275017   1.592   2.658  14.126 -0.9675 -2.6241 -1.4611
17868TIP3   OH275018   5.843   2.946   1.748 -0.1938  0.5535  0.0056
17868TIP3    H175019   5.825   2.882   1.817 -1.6270  1.3568  0.3951
17868TIP3    H275020   5.936   2.936   1.730 -0.0125 -0.3557  1.3654
17869TIP3   OH275021   6.778   6.470   1.669  0.1915 -0.1476  0.5595
17869TIP3    H175022   6.845   6.537   1.679  0.2910  0.3522 -2.9750
17869TIP3    H275023   6.811   6.412   1.601 -2.1600 -0.8772 -0.0173
17870TIP3   OH275024   2.407   4.879  15.093 -1.1244 -0.2379  0.3909
17870TIP3    H175025   2.350   4.823  15.041 -0.3569 -0.3241 -0.3831
17870TIP3    H275026   2.390   4.968  15.060 -0.2961 -0.3461 -0.3490
17871TIP3   OH275027   2.409   0.540  17.111  0.0388 -0.0177  0.2092
17871TIP3    H175028   2.455   0.474  17.163  0.2293 -1.4078 -1.6353
17871TIP3    H275029   2.343   0.576  17.170  0.7301 -1.0142  1.6190
17872TIP3   OH275030   0.787   4.223   0.450 -0.3573 -0.0081 -0.5212
17872TIP3    H175031   0.797   4.315   0.425 -0.0702  0.2303  0.4324
17872TIP3    H275032   0.692   4.211   0.459 -0.4846 -0.1684 -1.9241
17873TIP3   OH275033   4.411   6.783   3.712 -0.5786 -0.4122 -0.0525
17873TIP3    H175034   4.364   6.702   3.692 -0.4677 -0.9082  1.6161
17873TIP3    H275035   4.470   6.795   3.638 -2.9391 -0.0559 -1.9390
17874TIP3   OH275036   0.651   5.114  14.082 -0.2679 -0.3085  0.5178
17874TIP3    H175037   0.645   5.112  14.178  0.9366  1.2197  0.6472
17874TIP3    H275038   0.697   5.196  14.063  0.5171 -1.1546 -1.3231
17875TIP3   OH275039   3.985   3.163   1.668  0.0736 -0.0183  0.0257
17875TIP3    H175040   3.909   3.160   1.726  0.8443 -1.3459  0.9822
17875TIP3    H275041   3.975   3.246   1.620 -1.5197  0.2202  0.7477
17876TIP3   OH275042   6.116   3.152   1.008 -0.3001  0.0215  0.1913
17876TIP3    H175043   6.186   3.098   0.971  0.8918  1.2077  0.6863
17876TIP3    H275044   6.120   3.136   1.102 -0.5698  0.2410  0.2406
17877TIP3   OH275045   5.930   6.489   2.166 -0.3278  0.3449 -0.6789
17877TIP3    H175046   5.853   6.439   2.136 -0.6547  1.2430 -1.3454
17877TIP3    H275047   5.927   6.481   2.261 -0.1413 -1.2600 -0.7894
17878TIP3   OH275048   2.356   4.357   5.690 -0.3391 -0.0770  0.5421
17878TIP3    H175049   2.423   4.330   5.754 -0.3594 -0.0579  0.5719
17878TIP3    H275050   2.399   4.427   5.640 -0.1412 -0.4569  0.1823
17879TIP3   OH275051   0.821   2.861  15.384 -0.1065 -0.2980  0.3736
17879TIP3    H175052   0.729   2.849  15.408  0.2241 -0.5256  1.5735
17879TIP3    H275053   0.819   2.920  15.309 -1.2813 -1.0306 -0.1860
17880TIP3   OH275054   2.923   0.043   1.425  0.4671  0.3954  0.0275
17880TIP3    H175055   2.962   0.040   1.338 -1.3190  2.3022 -0.8895
17880TIP3    H275056   2.945   0.130   1.459 -1.9542  1.1054 -0.0874
17881TIP3   OH275057   0.055   6.382  15.347  0.0799 -0.0340 -0.8456
17881TIP3    H175058   0.142   6.419  15.363  0.2123  0.1958 -2.0337
17881TIP3    H275059   0.067   6.287  15.353 -0.1565  0.0660  1.7055
17882TIP3   OH275060   0.341   4.662  11.113 -0.8254 -0.1538  0.3796
17882TIP3    H175061   0.379   4.724  11.052 -0.8308  1.4432  1.9447
17882TIP3    H275062   0.261   4.632  11.071 -1.8652  2.4335  0.4262
17883TIP3   OH275063   2.788   3.473   3.494 -0.9399  0.0415 -0.2031
17883TIP3    H175064   2.697   3.442   3.503 -1.2742  0.7453 -1.0506
17883TIP3    H275065   2.781   3.548   3.435  0.1934  0.1471 -0.2012
17884TIP3   OH275066   2.532   1.723   1.433  0.3819 -0.4182  0.8123
17884TIP3    H175067   2.449   1.706   1.388  1.5218  0.4554 -1.7131
17884TIP3    H275068   2.524   1.813   1.464  1.2663  0.4696 -1.4796
17885TIP3   OH275069   3.199   4.773  13.951 -0.2609 -0.2221 -0.3984
17885TIP3    H175070   3.178   4.682  13.971 -0.5470 -0.0211  0.2199
17885TIP3    H275071   3.121   4.808  13.909  0.1550 -0.4968 -1.4322
17886TIP3   OH275072   4.240   6.653  15.645 -0.8301 -0.3749 -0.0379
17886TIP3    H175073   4.167   6.646  15.706 -0.2910  1.2717  0.8237
17886TIP3    H275074   4.316   6.670  15.700 -0.1110 -0.2200 -1.0603
17887TIP3   OH275075   6.249   0.847   3.324 -0.0981  0.5274  0.0902
17887TIP3    H175076   6.218   0.758   3.339  3.7380 -0.6939  1.2088
17887TIP3    H275077   6.183   0.902   3.366 -1.5372 -1.8664  1.0967
17888TIP3   OH275078   5.148   6.717  12.527  0.6982 -0.8753  0.1077
17888TIP3    H175079   5.153   6.676  12.613  1.5281 -3.5063 -1.1369
17888TIP3    H275080   5.070   6.680  12.486  0.5829 -0.0262 -0.4764
17889TIP3   OH275081   6.194   4.003   5.867 -0.7673  0.3591  0.1026
17889TIP3    H175082   6.211   4.023   5.958  1.6630  0.5204 -0.3593
17889TIP3    H275083   6.151   3.917   5.869  1.4701 -0.7841  1.2990
17890TIP3   OH275084   5.800   5.096  14.822 -0.4014  0.1076 -0.6445
17890TIP3    H175085   5.765   5.111  14.734 -2.5146  0.1668  0.1725
17890TIP3    H275086   5.814   5.184  14.858 -1.1986  0.0918 -0.2906
17891TIP3   OH275087   1.669   4.089  13.421 -0.2737 -0.0391  0.0750
17891TIP3    H175088   1.738   4.127  13.367 -1.0539  0.7949 -0.3611
17891TIP3    H275089   1.600   4.155  13.422 -0.7762 -0.5625  1.0889
17892TIP3   OH275090   4.682   2.449   3.725  0.1651 -0.2940 -0.1123
17892TIP3    H175091   4.715   2.360   3.716  2.5171  0.4770  0.4930
17892TIP3    H275092   4.611   2.442   3.789 -2.6342 -2.3745 -3.2586
17893TIP3   OH275093   6.376   5.227  11.992 -0.3287  0.0196 -0.5703
17893TIP3    H175094   6.358   5.214  12.085  1.6796  0.8950 -0.0377
17893TIP3    H275095   6.397   5.139  11.959  0.5061 -0.0653  0.1619
17894TIP3   OH275096   1.630   2.361   3.135  0.5799  0.2076 -0.2072
17894TIP3    H175097   1.567   2.365   3.063 -0.6372 -1.0532  0.7436
17894TIP3    H275098   1.716   2.359   3.093 -0.1463 -1.5085 -1.6595
17895TIP3   OH275099   5.579   0.083   3.642 -0.3639  0.3573 -0.3048
17895TIP3    H175100   5.561   0.140   3.717 -0.1566 -0.0847  0.0795
17895TIP3    H275101   5.497   0.083   3.592 -0.9126 -0.3328  0.5695
17896TIP3   OH275102   3.787   1.357  15.957  0.1369 -0.5651  0.2007
17896TIP3    H175103   3.838   1.437  15.967  0.4430 -0.6013 -1.0592
17896TIP3    H275104   3.851   1.287  15.967  0.1388 -0.6273 -0.2386
17897TIP3   OH275105   5.785   3.173  16.183  0.0595  0.0808  0.5065
17897TIP3    H175106   5.851   3.103  16.177 -0.0799  0.1014 -1.3453
17897TIP3    H275107   5.815   3.226  16.258  1.1461 -0.9347  0.8203
17898TIP3   OH275108   0.059   6.511   1.181  0.2486 -0.0161 -0.8889
17898TIP3    H175109   0.130   6.468   1.133  0.3682 -0.7962 -0.0271
17898TIP3    H275110  -0.005   6.441   1.196  0.4654  0.0959  0.5826
17899TIP3   OH275111   4.086   5.352  15.944  0.4344  0.0278  0.2638
17899TIP3    H175112   4.099   5.392  15.858  3.9853  1.0964  1.1921
17899TIP3    H275113   4.037   5.417  15.994  0.4091  0.4200 -0.2626
17900TIP3   OH275114   1.609   3.523  16.082 -0.9520  0.1215  0.5558
17900TIP3    H175115   1.658   3.604  16.091  0.2566 -0.1263 -2.8878
17900TIP3    H275116   1.665   3.456  16.122  0.3220  0.2790 -0.8972
17901TIP3   OH275117   3.941   3.161   2.176  0.3080  0.0780 -0.0845
17901TIP3    H175118   3.991   3.140   2.255 -0.4002  0.0176  0.3523
17901TIP3    H275119   3.979   3.106   2.108  1.6577  0.9536 -0.0437
17902TIP3   OH275120   4.922   5.575  11.151 -0.3937  0.4104 -0.4739
17902TIP3    H175121   4.889   5.514  11.084  0.8622  2.3105 -2.9278
17902TIP3    H275122   5.015   5.556  11.156 -0.6955 -0.6823  1.8722
17903TIP3   OH275123   0.137   3.892  13.365 -0.5577  0.4281 -0.1484
17903TIP3    H175124   0.128   3.949  13.442 -1.7158  0.2895 -0.1704
17903TIP3    H275125   0.176   3.948  13.298 -2.3209  1.4193 -0.3852
17904TIP3   OH275126   2.176   3.001  12.021  0.2292 -0.8904 -0.2838
17904TIP3    H175127   2.226   3.016  11.941 -1.5392 -1.5874 -1.5486
17904TIP3    H275128   2.085   3.016  11.996 -0.5449 -3.0325  1.0769
17905TIP3   OH275129   2.149   6.221   4.524 -0.6278  0.2992 -0.2061
17905TIP3    H175130   2.190   6.307   4.534  1.2684 -0.6575  0.4741
17905TIP3    H275131   2.156   6.180   4.610 -0.3613 -1.0393 -0.8533
17906TIP3   OH275132   6.140   0.281  15.789 -0.1617  0.1410  0.2656
17906TIP3    H175133   6.119   0.312  15.877 -2.1111  0.4067 -0.2862
17906TIP3    H275134   6.227   0.241  15.799 -0.3514  0.1596  2.2993
17907TIP3   OH275135   1.307   0.486  11.952  0.2239  0.4095  0.1197
17907TIP3    H175136   1.358   0.556  11.912  0.9954  0.7819  1.6834
17907TIP3    H275137   1.315   0.501  12.046  0.3196 -1.7078  0.4911
17908TIP3   OH275138   0.360   3.781  13.741  0.1302  0.4462  0.5494
17908TIP3    H175139   0.413   3.761  13.664 -1.2657 -0.1717 -0.2598
17908TIP3    H275140   0.298   3.848  13.711 -0.9977 -0.4308  0.9016
17909TIP3   OH275141   6.764   5.476   3.591  0.0201 -0.4787  0.2525
17909TIP3    H175142   6.769   5.487   3.496  0.8949 -3.0659 -0.0393
17909TIP3    H275143   6.779   5.564   3.625 -0.8807  0.6079 -2.0057
17910TIP3   OH275144   5.695   1.183   4.395 -0.3802  0.1347 -0.2050
17910TIP3    H175145   5.631   1.235   4.444  0.9195 -0.0971  1.8108
17910TIP3    H275146   5.745   1.248   4.345 -0.8977  0.5016 -0.2526
17911TIP3   OH275147   1.227   1.567  13.932  0.3958  0.4394  0.1343
17911TIP3    H175148   1.199   1.647  13.889  1.6436  0.1531 -1.2663
17911TIP3    H275149   1.147   1.530  13.969 -0.3770  1.7136 -0.2296
17912TIP3   OH275150   6.125   4.918  16.624 -0.6595  0.8663  0.2115
17912TIP3    H175151   6.085   4.832  16.633 -0.6708  0.6509 -1.7398
17912TIP3    H275152   6.219   4.902  16.631 -0.6753  0.7328  0.1044
17913TIP3   OH275153   0.548   5.696  15.765 -0.6324 -0.6027  0.1852
17913TIP3    H175154   0.583   5.782  15.740 -1.7954 -1.0229 -3.0773
17913TIP3    H275155   0.453   5.707  15.761 -0.7859 -1.9839 -0.0884
17914TIP3   OH275156   1.767   1.164   1.648 -0.3391 -0.2596 -0.1598
17914TIP3    H175157   1.862   1.166   1.641 -0.2539 -0.1556  0.8682
17914TIP3    H275158   1.746   1.241   1.701 -1.0624  0.1723 -1.0608
17915TIP3   OH275159   3.717   6.201  14.505 -0.4296  0.3423  0.3840
17915TIP3    H175160   3.746   6.281  14.460  0.6423  0.0016  0.4597
17915TIP3    H275161   3.738   6.217  14.597 -1.4366  0.5083  0.5937
17916TIP3   OH275162   6.080   5.916   5.789  0.8193 -0.6535  0.2548
17916TIP3    H175163   6.171   5.888   5.786  1.3383  0.7340  2.0642
17916TIP3    H275164   6.054   5.906   5.880 -0.2791  0.6683  0.1135
17917TIP3   OH275165   3.001   4.777  11.351 -0.4542  0.7038 -0.4272
17917TIP3    H175166   3.070   4.720  11.385 -1.3114  0.6640  1.3091
17917TIP3    H275167   3.038   4.865  11.357 -1.3989  0.9668  2.8903
17918TIP3   OH275168   2.960   1.781  16.525 -0.4412 -0.5420 -0.0185
17918TIP3    H175169   2.975   1.741  16.439  1.3127  0.6931 -0.3019
17918TIP3    H275170   2.982   1.712  16.588 -0.6033 -1.0683 -0.5395
17919TIP3   OH275171   0.717   0.968   6.243 -0.1158 -0.2294  0.1803
17919TIP3    H175172   0.716   0.888   6.294  0.5903 -0.4427 -0.1314
17919TIP3    H275173   0.753   1.034   6.303  0.0996 -0.3358  0.1698
17920TIP3   OH275174   3.022   1.968  16.142  0.4849 -0.3489 -0.6457
17920TIP3    H175175   3.028   1.983  16.237 -1.7724  3.3334 -0.9820
17920TIP3    H275176   3.107   1.932  16.118  1.6988  0.2195  2.5217
17921TIP3   OH275177   0.596   0.717   3.666 -0.1510 -0.3620 -0.0407
17921TIP3    H175178   0.503   0.693   3.657 -0.0749 -1.4647  1.7005
17921TIP3    H275179   0.595   0.810   3.686 -0.9869 -0.5919  1.0813
17922TIP3   OH275180   3.394   0.965   0.762 -0.0293 -0.1911 -1.0493
17922TIP3    H175181   3.400   0.955   0.667  0.7170 -1.0626 -0.9143
17922TIP3    H275182   3.323   1.028   0.775 -0.9946 -1.0420 -2.1312
17923TIP3   OH275183   2.579   3.576   2.424  0.3907 -0.3003  0.5302
17923TIP3    H175184   2.656   3.611   2.469  0.8143 -0.1510 -0.3017
17923TIP3    H275185   2.506   3.624   2.461  0.7317 -0.2040  1.0874
17924TIP3   OH275186   3.532   2.565   5.902 -0.1423  0.2249  0.7651
17924TIP3    H175187   3.546   2.625   5.975 -0.5001  1.8494 -0.4602
17924TIP3    H275188   3.481   2.493   5.939 -1.1821  1.5090  1.9013
17925TIP3   OH275189   0.819   4.191  16.402  0.2192  0.2697  0.1389
17925TIP3    H175190   0.868   4.190  16.320 -0.1267 -0.5209 -0.0609
17925TIP3    H275191   0.883   4.218  16.468  0.0923  2.5796 -0.6454
17926TIP3   OH275192   6.431   6.199  14.863 -0.0895  0.6033 -0.5880
17926TIP3    H175193   6.391   6.257  14.798 -0.2916 -0.1160 -1.1057
17926TIP3    H275194   6.359   6.179  14.924 -0.7344 -1.2543 -1.9096
17927TIP3   OH275195   6.725   6.654  11.639 -0.1850 -0.6187  0.0344
17927TIP3    H175196   6.705   6.673  11.547  0.8455  1.3875  0.1876
17927TIP3    H275197   6.728   6.559  11.645 -0.3607 -0.7579 -1.9977
17928TIP3   OH275198   5.861   1.041   2.269 -0.2480 -0.5639  0.0543
17928TIP3    H175199   5.927   1.077   2.210  1.1636  0.6541  2.3427
17928TIP3    H275200   5.778   1.073   2.234  0.6485  1.0385 -0.6386
17929TIP3   OH275201   0.288   3.036   2.332 -0.0678 -0.0098  0.5425
17929TIP3    H175202   0.295   3.089   2.252  2.3761  0.2944  0.9189
17929TIP3    H275203   0.205   3.064   2.371 -0.1082  1.6414 -0.6224
17930TIP3   OH275204   4.300   3.050  11.659  0.1087 -0.2590 -0.3186
17930TIP3    H175205   4.263   3.073  11.745  0.3927  0.3656 -0.3571
17930TIP3    H275206   4.322   3.135  11.620  2.8211 -0.6610  0.2387
17931TIP3   OH275207   1.143   0.184  13.004  0.8225  0.1274  0.1883
17931TIP3    H175208   1.083   0.126  12.957 -2.1035  2.1044  1.3823
17931TIP3    H275209   1.209   0.206  12.939 -1.2141  0.0320 -1.9972
17932TIP3   OH275210   0.081   0.077  10.873  0.0127 -0.1320  0.3504
17932TIP3    H175211   0.142   0.053  10.803 -0.7103 -1.9188  0.2841
17932TIP3    H275212   0.020   0.138  10.832  1.0635  0.7852  0.1153
17933TIP3   OH275213   3.893   4.246   4.772  0.2900 -0.7438 -0.3619
17933TIP3    H175214   3.972   4.201   4.801  0.4809 -1.6316 -2.2332
17933TIP3    H275215   3.835   4.176   4.742 -0.3845  0.0726 -0.9652
17934TIP3   OH275216   6.169   1.997  14.549  0.5174  0.5468  0.8483
17934TIP3    H175217   6.136   2.050  14.621 -0.6631 -0.1914  0.8635
17934TIP3    H275218   6.179   1.910  14.586 -0.6013  0.0471 -0.0149
17935TIP3   OH275219   5.313   5.444  15.379 -0.5996  0.7041 -0.2155
17935TIP3    H175220   5.244   5.469  15.441  0.2723  0.9333  0.6896
17935TIP3    H275221   5.392   5.439  15.433 -0.2285 -1.2741 -0.9026
17936TIP3   OH275222   0.387   5.056  11.779 -0.1436  0.1455 -0.3123
17936TIP3    H175223   0.304   5.048  11.732  0.6470  2.4651 -2.2229
17936TIP3    H275224   0.424   5.139  11.748  2.6346 -0.5904  0.8947
17937TIP3   OH275225   4.012   4.648   1.390 -0.3874 -0.6883  0.2564
17937TIP3    H175226   3.940   4.683   1.442  0.2201 -0.7089  1.1248
17937TIP3    H275227   3.991   4.556   1.377 -0.3401 -0.7717  0.7988
17938TIP3   OH275228   1.788   1.209  16.802  0.1486 -0.0140  0.4095
17938TIP3    H175229   1.766   1.171  16.887  0.6539 -0.8182  0.1771
17938TIP3    H275230   1.839   1.287  16.823  0.8072 -0.5517  0.8370
17939TIP3   OH275231   3.420   4.474  12.604  0.5733 -0.6713 -0.7956
17939TIP3    H175232   3.508   4.510  12.589 -0.1484  1.7538  0.4802
17939TIP3    H275233   3.427   4.382  12.580  3.3620 -0.4107 -1.1217
17940TIP3   OH275234   1.389   5.823  13.441  0.2509 -0.3460  0.1268
17940TIP3    H175235   1.349   5.817  13.354 -0.8944 -0.9540  0.6841
17940TIP3    H275236   1.432   5.908  13.442  0.3210 -0.3667 -1.0606
17941TIP3   OH275237   0.616   1.805  16.341  1.9264 -0.2233  0.4881
17941TIP3    H175238   0.548   1.836  16.401  0.7500 -0.8997 -0.4930
17941TIP3    H275239   0.643   1.720  16.378  1.6515 -0.3452  0.4071
17942TIP3   OH275240   3.981   1.936  12.458 -0.0855  0.7076 -0.6559
17942TIP3    H175241   3.921   1.932  12.532 -0.2845 -1.1585 -0.8788
17942TIP3    H275242   3.971   2.024  12.423 -1.7342  0.8407  0.0953
17943TIP3   OH275243   0.674   6.527  16.385 -0.1147  0.0283  0.0261
17943TIP3    H175244   0.747   6.465  16.390 -0.2956 -0.0911  1.2432
17943TIP3    H275245   0.699   6.599  16.442 -0.3650  0.6095 -0.5837
17944TIP3   OH275246   3.427   4.605  14.142  0.2753 -0.1529  0.0400
17944TIP3    H175247   3.362   4.654  14.091  0.0129 -1.0814 -0.5411
17944TIP3    H275248   3.445   4.528  14.088  0.0342 -1.1271  1.3495
17945TIP3   OH275249   4.148   4.900  14.835  0.0100  0.7503 -0.3591
17945TIP3    H175250   4.220   4.927  14.892  2.3497 -3.0928 -1.3028
17945TIP3    H275251   4.191   4.878  14.752 -2.6191  0.7557 -1.7736
17946TIP3   OH275252   1.651   2.383   5.671  0.2036  0.7152  0.4392
17946TIP3    H175253   1.563   2.410   5.698  0.7594  0.7666  2.2687
17946TIP3    H275254   1.704   2.462   5.682  0.8717  0.1623  1.2757
17947TIP3   OH275255   5.376   3.492  11.109  0.1993  0.1103 -0.1847
17947TIP3    H175256   5.365   3.448  11.193  0.4979 -0.7978 -0.6125
17947TIP3    H275257   5.419   3.427  11.053 -2.9211 -0.4707 -2.0195
17948TIP3   OH275258   3.519   6.480  16.103 -0.0309 -0.4684  0.4121
17948TIP3    H175259   3.467   6.439  16.172 -0.2479 -0.4628  0.2500
17948TIP3    H275260   3.609   6.455  16.123  0.0170  0.3919  1.3072
17949TIP3   OH275261   0.524   1.177   2.920 -0.1279 -0.1203 -0.2713
17949TIP3    H175262   0.447   1.134   2.958  0.2756 -0.3181  0.3362
17949TIP3    H275263   0.502   1.188   2.827 -1.4503  1.0904  0.1695
17950TIP3   OH275264   6.073   0.413   4.202  0.1338 -0.7368 -0.6230
17950TIP3    H175265   6.030   0.337   4.242 -0.1805 -0.1965  0.0761
17950TIP3    H275266   6.046   0.487   4.256 -0.5343  0.0643 -2.0284
17951TIP3   OH275267   6.246   0.517   6.254  0.2345  0.2815 -0.2040
17951TIP3    H175268   6.260   0.432   6.295 -0.7943  0.2386  0.0812
17951TIP3    H275269   6.198   0.497   6.174 -0.6170  0.6378  0.2038
17952TIP3   OH275270   2.900   3.472   4.201  0.4526  0.2940  0.3763
17952TIP3    H175271   2.979   3.433   4.238 -0.1171  0.4191  1.7393
17952TIP3    H275272   2.916   3.566   4.203  0.6854  0.2721 -0.3131
17953TIP3   OH275273   2.945   4.832   2.714  0.1455  0.2583 -0.0201
17953TIP3    H175274   3.006   4.880   2.770  1.5757  0.5580 -1.7737
17953TIP3    H275275   2.963   4.739   2.733 -0.4225  0.3680  1.0831
17954TIP3   OH275276   6.724   2.264   3.204  0.0302  0.3073 -0.1448
17954TIP3    H175277   6.725   2.317   3.124  0.9435  0.6896  0.1135
17954TIP3    H275278   6.733   2.328   3.275  2.5885 -0.3088  0.1094
17955TIP3   OH275279   5.740   1.444   2.901  0.6634  0.0360  0.2629
17955TIP3    H175280   5.747   1.367   2.844  1.4008  0.4102 -0.1618
17955TIP3    H275281   5.712   1.514   2.843  0.2671  0.1564  0.5971
17956TIP3   OH275282   5.865   2.427   0.749  0.2333 -0.3131  0.4794
17956TIP3    H175283   5.798   2.480   0.792  0.4660  0.3172  0.0826
17956TIP3    H275284   5.891   2.363   0.815  1.3064  1.2845  1.6745
17957TIP3   OH275285   0.295   5.921  12.747 -0.3169 -0.0100 -0.7335
17957TIP3    H175286   0.387   5.931  12.722 -0.0021  0.5388  0.5697
17957TIP3    H275287   0.281   5.827  12.749  0.4774 -0.1228 -0.0676
17958TIP3   OH275288   4.841   4.359  14.893 -0.4362  0.4194 -0.1099
17958TIP3    H175289   4.892   4.385  14.970 -0.0252 -1.5247  0.2894
17958TIP3    H275290   4.896   4.384  14.819  0.5645 -0.5194  0.2995
17959TIP3   OH275291   1.247   6.672  15.481 -0.3247 -0.3227  0.1204
17959TIP3    H175292   1.235   6.717  15.565 -0.3281 -0.0558 -0.0241
17959TIP3    H275293   1.158   6.655  15.450 -0.3226 -0.3250  0.1169
17960TIP3   OH275294   3.862   5.086  16.887 -0.2064  0.4305  0.1985
17960TIP3    H175295   3.955   5.067  16.887  0.0268  1.5469 -0.7446
17960TIP3    H275296   3.831   5.060  16.800 -0.3577  1.9670 -0.2315
17961TIP3   OH275297   3.965   1.295  11.882 -0.5025  0.1411 -0.1280
17961TIP3    H175298   3.974   1.200  11.878  0.0098  0.1627  0.4730
17961TIP3    H275299   3.984   1.317  11.973  1.6309  1.0552 -0.7763
17962TIP3   OH275300   5.857   2.065   1.188  0.1775 -0.3252  0.0292
17962TIP3    H175301   5.867   1.997   1.255 -0.4590 -0.9309 -0.4862
17962TIP3    H275302   5.770   2.100   1.203 -0.2549 -0.9574 -0.9275
17963TIP3   OH275303   4.529   0.289  15.827 -0.0425 -0.4165  0.0511
17963TIP3    H175304   4.553   0.251  15.911 -1.1193  1.3348  1.1878
17963TIP3    H275305   4.604   0.343  15.802  0.4391 -1.2483 -0.3193
17964TIP3   OH275306   5.558   3.551  16.259 -0.2449 -0.0743 -0.0670
17964TIP3    H175307   5.651   3.553  16.235 -0.5847 -0.4416 -1.4281
17964TIP3    H275308   5.544   3.464  16.296 -0.7806 -1.2497 -2.9238
17965TIP3   OH275309   5.178   6.424  16.656  0.0358 -0.0475 -0.4899
17965TIP3    H175310   5.104   6.464  16.610  0.0692 -0.4546 -0.9048
17965TIP3    H275311   5.185   6.336  16.618 -0.1531 -0.5176  0.5446
17966TIP3   OH275312   5.333   5.084   4.304 -0.8017 -0.5316 -0.2291
17966TIP3    H175313   5.383   5.164   4.288 -1.4901  0.0825  0.6522
17966TIP3    H275314   5.261   5.088   4.241 -0.2060 -1.0112 -0.9419
17967TIP3   OH275315   2.144   4.732   5.166 -0.0630 -0.0723  0.4460
17967TIP3    H175316   2.131   4.664   5.233  1.0114  0.8227  1.5925
17967TIP3    H275317   2.215   4.786   5.201  1.8768 -0.7417 -2.3241
17968TIP3   OH275318   1.508   6.417   1.331  0.1745 -0.0198  0.7106
17968TIP3    H175319   1.495   6.324   1.312  2.0826 -0.5567  1.8727
17968TIP3    H275320   1.596   6.436   1.299  0.6259  0.8350  2.4174
17969TIP3   OH275321   4.387   1.998  12.129 -0.5213  0.8257 -1.0407
17969TIP3    H175322   4.359   1.964  12.043  0.6252  0.9354 -1.4634
17969TIP3    H275323   4.452   2.065  12.108 -0.0971  0.7154 -0.0677
17970TIP3   OH275324   2.055   6.565  15.598 -0.0218 -0.5608  0.5488
17970TIP3    H175325   2.053   6.529  15.687 -3.2611 -2.8352 -0.3534
17970TIP3    H275326   2.061   6.488  15.541 -0.5285  0.7024 -1.2607
17971TIP3   OH275327   2.797   2.762   6.134  0.3840 -0.3508  0.6176
17971TIP3    H175328   2.868   2.702   6.112 -0.5807 -1.3946  0.3380
17971TIP3    H275329   2.762   2.730   6.217  0.4784  0.3843  0.9495
17972TIP3   OH275330   1.359   3.502  16.496  0.0107 -0.1009  0.2742
17972TIP3    H175331   1.376   3.596  16.496 -1.1487  0.1104 -0.8722
17972TIP3    H275332   1.381   3.473  16.408  0.0287 -0.8431  0.5213
17973TIP3   OH275333   1.600   5.667  14.027 -0.5017 -0.4124  0.1621
17973TIP3    H175334   1.609   5.641  14.118 -2.7246 -0.6237  0.3384
17973TIP3    H275335   1.576   5.587  13.981 -3.1085  0.3913  0.0244
17974TIP3   OH275336   0.655   6.066  15.352 -0.1947  0.1619 -0.2779
17974TIP3    H175337   0.683   5.985  15.394  0.9110  1.2804  1.1854
17974TIP3    H275338   0.696   6.064  15.266  1.1376 -0.0783  0.3545
17975TIP3   OH275339   1.435   5.802   0.757  0.1877 -0.4469  0.2213
17975TIP3    H175340   1.446   5.797   0.662 -2.1756 -1.0615 -0.0339
17975TIP3    H275341   1.345   5.776   0.772  0.5495 -0.3505  2.6561
17976TIP3   OH275342   0.525   6.477   5.123 -0.1546  0.0139 -0.2606
17976TIP3    H175343   0.458   6.457   5.188  1.3090 -0.2047  1.1956
17976TIP3    H275344   0.572   6.395   5.110 -0.4043  0.0673 -1.5764
17977TIP3   OH275345   3.463   0.014  15.039 -0.5086 -0.6151  0.1174
17977TIP3    H175346   3.512  -0.063  15.011 -0.0107 -0.2761  0.0473
17977TIP3    H275347   3.478   0.078  14.970 -0.6305 -0.3379  0.3455
17978TIP3   OH275348   5.205   6.656   5.088  0.1420 -0.3736  0.1407
17978TIP3    H175349   5.236   6.570   5.115  0.2027 -0.5686 -0.5312
17978TIP3    H275350   5.144   6.683   5.156  0.1977 -0.9035  0.3985
17979TIP3   OH275351   2.355   1.452   2.554 -0.1653  0.0703  0.2216
17979TIP3    H175352   2.373   1.387   2.487 -0.5774 -1.1642  1.2888
17979TIP3    H275353   2.440   1.477   2.589 -0.1077 -1.0662  0.8946
17980TIP3   OH275354   3.902   2.052   0.658  0.2273 -0.3495  0.8674
17980TIP3    H175355   3.951   1.976   0.627 -0.6626 -0.9117  0.8266
17980TIP3    H275356   3.823   2.015   0.697 -0.5326  0.5987  0.2273
17981TIP3   OH275357   5.534   5.031  10.969 -0.0882 -0.1792 -0.4296
17981TIP3    H175358   5.552   5.109  10.917 -0.9513 -1.1683 -2.2738
17981TIP3    H275359   5.588   4.962  10.929  0.0409 -0.7047  0.6462
17982TIP3   OH275360   4.252   3.519   2.145  0.0211 -0.2197  0.1049
17982TIP3    H175361   4.231   3.514   2.052 -1.1005  0.7623  0.2974
17982TIP3    H275362   4.309   3.444   2.160  0.8549  0.0514 -1.5382
17983TIP3   OH275363   4.259   3.564  11.255 -0.8443  0.2191  0.0396
17983TIP3    H175364   4.215   3.619  11.190 -0.3437  1.9902  1.1579
17983TIP3    H275365   4.241   3.607  11.339 -0.1178 -1.1186  0.9021
17984TIP3   OH275366   2.659   1.076   0.876  0.1231 -0.2385  0.3101
17984TIP3    H175367   2.610   1.149   0.911 -0.4618 -1.0396  1.1853
17984TIP3    H275368   2.719   1.051   0.947 -0.1758 -1.0474  0.2877
17985TIP3   OH275369   6.131   6.017  12.338 -0.0883  0.1208 -0.2014
17985TIP3    H175370   6.116   6.111  12.341 -1.5592 -0.1086  0.5442
17985TIP3    H275371   6.071   5.986  12.270  1.4580 -0.1053 -1.4802
17986TIP3   OH275372   0.418   1.434   6.592 -0.1503 -0.0186  0.0646
17986TIP3    H175373   0.370   1.516   6.605  0.9047  0.4558  1.0189
17986TIP3    H275374   0.491   1.438   6.654  2.3727  0.2161 -2.8196
17987TIP3   OH275375   1.225   2.232  15.759 -0.5115  0.0412 -0.4440
17987TIP3    H175376   1.286   2.240  15.686 -1.4548 -1.3122 -1.3965
17987TIP3    H275377   1.185   2.318  15.767  1.2488  0.8527 -0.0278
17988TIP3   OH275378   1.855   4.958   3.367  0.3529  0.2449  0.0620
17988TIP3    H175379   1.813   5.019   3.306 -0.1120  0.1881  0.3290
17988TIP3    H275380   1.884   5.014   3.440 -2.9511 -0.2767  1.8734
17989TIP3   OH275381   4.310   4.923  12.160  0.1034  0.6649  0.5101
17989TIP3    H175382   4.287   4.965  12.078 -1.9266  0.4816  0.9565
17989TIP3    H275383   4.332   4.833  12.136  0.4145  0.8594  0.0656
17990TIP3   OH275384   5.770   5.488  10.467 -0.0309  0.0916  0.2088
17990TIP3    H175385   5.837   5.555  10.457  0.0317  0.1399  0.9012
17990TIP3    H275386   5.701   5.514  10.406  0.0507  0.7168  0.3760
17991TIP3   OH275387   0.159   6.227  13.153 -0.4799 -0.3244 -0.1777
17991TIP3    H175388   0.167   6.303  13.096 -0.3044  1.0724  1.6729
17991TIP3    H275389   0.150   6.153  13.092 -2.6215  1.3554 -2.0154
17992TIP3   OH275390   2.117   2.235   6.129  0.1756 -0.3877  0.1102
17992TIP3    H175391   2.042   2.230   6.187  0.0662 -1.6759 -0.1361
17992TIP3    H275392   2.187   2.270   6.184 -0.6409  1.0051  0.2854
17993TIP3   OH275393   2.268   4.421   0.412 -0.2951 -0.0104  0.7559
17993TIP3    H175394   2.343   4.480   0.418 -2.3003  2.6141  0.7968
17993TIP3    H275395   2.198   4.465   0.461 -3.3620  0.1275 -3.4331
17994TIP3   OH275396   6.651   4.137  16.455 -0.1971  0.3327  0.1499
17994TIP3    H175397   6.653   4.135  16.550 -1.5049  1.5996  0.2234
17994TIP3    H275398   6.716   4.202  16.430 -2.6787  3.0110  0.3819
17995TIP3   OH275399   2.929   6.495  16.907 -0.5468  0.3431  0.4415
17995TIP3    H175400   2.849   6.519  16.861 -0.2381  2.0250  0.7429
17995TIP3    H275401   2.980   6.576  16.912  1.9279 -1.0443 -1.2112
17996TIP3   OH275402   0.645   1.243   4.991  0.4778 -0.2022  0.0923
17996TIP3    H175403   0.740   1.247   4.986  0.5298 -2.8103 -1.9947
17996TIP3    H275404   0.617   1.334   4.983  2.7231  0.4098 -1.3761
17997TIP3   OH275405   4.977   1.826   2.135  0.2889 -0.2245 -0.7284
17997TIP3    H175406   5.070   1.818   2.117  0.2685  1.9364 -2.0942
17997TIP3    H275407   4.972   1.873   2.218  0.4185 -0.0855 -0.7999
17998TIP3   OH275408   5.920   1.049  15.820 -0.4055 -0.1520  0.0003
17998TIP3    H175409   5.963   0.979  15.770 -3.2473 -0.9638 -1.3781
17998TIP3    H275410   5.836   1.062  15.776 -2.5152 -0.0608  3.8484
17999TIP3   OH275411   0.728   1.451  14.276 -0.6019  0.5683 -0.0536
17999TIP3    H175412   0.824   1.453  14.275 -0.6060  0.7765 -1.5944
17999TIP3    H275413   0.706   1.386  14.209 -1.5604  1.4414 -0.5815
18000TIP3   OH275414   5.141   2.196  16.052  0.5340 -0.1557  0.4156
18000TIP3    H175415   5.150   2.190  16.147  0.4238  0.8406  0.4933
18000TIP3    H275416   5.104   2.112  16.026 -1.4864  0.3692  1.5047
18001TIP3   OH275417   4.417   2.803   1.359  0.9579  0.5605 -0.1778
18001TIP3    H175418   4.469   2.852   1.295  0.9170 -0.2465 -0.8336
18001TIP3    H275419   4.365   2.742   1.307 -1.2562  1.9050  0.4187
18002TIP3   OH275420   5.822   4.205  16.454 -0.3468  0.5291 -0.3138
18002TIP3    H175421   5.734   4.238  16.473 -0.4328 -0.1818  0.5100
18002TIP3    H275422   5.880   4.262  16.504 -0.5795 -1.4186  2.2321
18003TIP3   OH275423   4.750   1.896  14.026  0.0380  0.1765  0.3527
18003TIP3    H175424   4.799   1.885  14.108  1.4591  0.6612 -0.4098
18003TIP3    H275425   4.702   1.978  14.037  1.5568  1.1262  0.0675
18004TIP3   OH275426   4.947   2.762   4.871  0.7055 -0.6585 -0.4089
18004TIP3    H175427   5.033   2.728   4.843  1.7880  1.0367  0.7802
18004TIP3    H275428   4.959   2.857   4.875 -0.5600 -0.5743  1.9706
18005TIP3   OH275429   0.845   5.275   0.520 -0.2179 -0.0855  0.0405
18005TIP3    H175430   0.769   5.328   0.495 -1.2286 -1.3015  0.4670
18005TIP3    H275431   0.845   5.276   0.616  0.2496 -0.1596  0.0434
18006TIP3   OH275432   6.771   6.721  12.180 -0.6728 -0.7542 -0.2463
18006TIP3    H175433   6.799   6.679  12.099 -3.0896  2.5042 -2.9311
18006TIP3    H275434   6.716   6.656  12.223 -0.2415 -2.1520 -1.7703
18007TIP3   OH275435   2.953   5.820  13.558  0.7174 -0.2972  0.4145
18007TIP3    H175436   2.995   5.772  13.486  0.7593  0.8096 -0.3284
18007TIP3    H275437   3.007   5.899  13.568 -1.3012  1.2867 -0.7420
18008TIP3   OH275438   1.274   0.829  11.592  0.7903 -0.2794 -0.2552
18008TIP3    H175439   1.239   0.740  11.589  3.5412 -1.4859  1.6626
18008TIP3    H275440   1.368   0.818  11.581  1.4030  2.1848  2.0305
18009TIP3   OH275441   2.175   1.990   2.160 -0.3446  0.5173  0.1898
18009TIP3    H175442   2.161   1.907   2.206  0.2717 -0.1025 -0.7327
18009TIP3    H275443   2.239   1.970   2.093 -1.0492  1.4810 -0.7923
18010TIP3   OH275444   2.913   1.756  14.724 -0.4075  0.3772  0.2254
18010TIP3    H175445   2.971   1.833  14.720 -0.8694  0.8727  2.7482
18010TIP3    H275446   2.876   1.751  14.635  1.8830  1.2883 -0.8369
18011TIP3   OH275447   4.113   5.091   0.411 -0.7153 -0.0148 -0.1463
18011TIP3    H175448   4.097   5.085   0.317  0.6667 -0.3688 -0.3694
18011TIP3    H275449   4.208   5.098   0.419 -0.6792 -1.7305  1.2978
18012TIP3   OH275450   1.306   3.094   3.444  0.6895  0.2404  0.4466
18012TIP3    H175451   1.353   3.050   3.515  1.1210  0.6893  0.4370
18012TIP3    H275452   1.332   3.046   3.365  0.7262  0.1662  0.5033
18013TIP3   OH275453   1.453   4.892   1.887  0.1594 -0.5953  0.0503
18013TIP3    H175454   1.505   4.824   1.930 -0.2416 -1.0939 -0.2480
18013TIP3    H275455   1.381   4.908   1.948 -0.4521 -1.3566 -0.4578
18014TIP3   OH275456   0.220   5.830  10.944  0.5716 -0.0604  0.1719
18014TIP3    H175457   0.170   5.881  10.881  1.3486  0.1048 -0.3241
18014TIP3    H275458   0.177   5.846  11.028  0.8166  1.4169  0.0284
18015TIP3   OH275459   0.976   1.233  10.790  0.1995 -0.3141 -0.8355
18015TIP3    H175460   0.897   1.264  10.834  0.9671  0.6920 -0.1145
18015TIP3    H275461   1.004   1.158  10.843 -0.0167 -0.3785 -0.8120
18016TIP3   OH275462   5.096   3.523   2.528  0.3333 -0.5959  0.0429
18016TIP3    H175463   5.058   3.611   2.528 -0.8014 -1.0700 -0.1497
18016TIP3    H275464   5.026   3.467   2.561  2.0075 -1.0384  2.9803
18017TIP3   OH275465   4.921   6.584   4.493  0.5536 -0.1558  0.1238
18017TIP3    H175466   4.992   6.648   4.485  1.2822 -1.0315 -0.6851
18017TIP3    H275467   4.863   6.620   4.559  1.1784  1.1277 -0.0063
18018TIP3   OH275468   1.242   3.551   0.504 -0.2696 -0.1639  0.3365
18018TIP3    H175469   1.322   3.595   0.474  0.2335 -2.0023 -1.1377
18018TIP3    H275470   1.171   3.600   0.464  0.1599  0.8971  0.8590
18019TIP3   OH275471   4.649   2.045  14.454 -0.0621 -0.3966 -0.5122
18019TIP3    H175472   4.564   2.062  14.495  0.9511 -0.1375  1.5864
18019TIP3    H275473   4.671   2.126  14.409  0.6708  0.8288  1.9614
18020TIP3   OH275474   1.664   5.576   4.170  0.2158 -0.1025  0.0025
18020TIP3    H175475   1.571   5.585   4.191 -0.0181 -0.6047 -0.7601
18020TIP3    H275476   1.688   5.491   4.206  1.0026  1.0641  2.3155
18021TIP3   OH275477   0.619   4.906  11.846 -0.2161  0.0180 -0.0205
18021TIP3    H175478   0.689   4.949  11.896 -0.9461 -0.7015  1.6889
18021TIP3    H275479   0.539   4.952  11.874 -0.9189 -1.9031  1.2835
18022TIP3   OH275480   6.232   1.235  16.059  0.0452  0.0067 -1.0294
18022TIP3    H175481   6.204   1.191  16.139  2.2315  0.1643 -0.1213
18022TIP3    H275482   6.222   1.328  16.079  2.7474  0.1471 -0.0089
18023TIP3   OH275483   0.619   2.540   3.968 -0.4266  0.2244  0.2459
18023TIP3    H175484   0.607   2.605   3.899  0.0509 -0.4520 -0.4779
18023TIP3    H275485   0.712   2.516   3.962 -0.7005 -0.8306  0.2418
18024TIP3   OH275486   4.727   1.076  11.624  0.1381 -0.1767  0.0094
18024TIP3    H175487   4.740   1.120  11.540  0.1114 -0.3295 -0.0751
18024TIP3    H275488   4.646   1.026  11.613  0.6293 -0.9440 -0.1871
18025TIP3   OH275489   1.157   0.398  16.793  0.4494  0.4254 -0.0407
18025TIP3    H175490   1.178   0.428  16.881  0.0222  1.2979 -0.2303
18025TIP3    H275491   1.127   0.477  16.747 -0.2446 -0.1958 -0.6822
18026TIP3   OH275492   0.983   5.854  13.070 -0.1359  0.3775  0.3718
18026TIP3    H175493   0.900   5.816  13.099  1.0409 -2.5559  0.0683
18026TIP3    H275494   0.976   5.857  12.974  0.3225 -0.3539  0.3183
18027TIP3   OH275495   2.610   2.244  13.758 -0.2182  0.4587 -0.6195
18027TIP3    H175496   2.592   2.256  13.664  0.9550  1.9764 -0.6688
18027TIP3    H275497   2.657   2.161  13.763 -1.7104 -0.4341 -1.1850
18028TIP3   OH275498   3.791   0.464   1.788  0.3695  0.1947 -0.3354
18028TIP3    H175499   3.727   0.403   1.752  0.5731 -0.0227 -0.3303
18028TIP3    H275500   3.748   0.549   1.784 -0.4823 -0.1560  1.0211
18029TIP3   OH275501   4.913   5.350  11.941 -0.6078 -0.4943 -0.6032
18029TIP3    H175502   4.950   5.280  11.995  2.1347  1.5769  0.2628
18029TIP3    H275503   4.829   5.370  11.983 -1.2745 -2.9612 -0.6561
18030TIP3   OH275504   0.969   5.333  13.173 -0.3328  0.3246 -0.2244
18030TIP3    H175505   1.017   5.254  13.149  0.4389  0.7918 -0.2432
18030TIP3    H275506   0.991   5.396  13.105  0.1641  0.9895  0.5402
18031TIP3   OH275507   0.815   2.067  11.418 -0.1065 -0.6910  0.3927
18031TIP3    H175508   0.736   2.120  11.421 -0.0350 -0.3949 -1.9800
18031TIP3    H275509   0.784   1.976  11.423 -0.6727 -0.5994 -1.1646
18032TIP3   OH275510   1.206   4.074   5.250 -0.1907  0.3564 -0.3046
18032TIP3    H175511   1.223   4.167   5.264 -0.5158  0.4200 -0.3319
18032TIP3    H275512   1.247   4.054   5.166 -2.4695  1.1109 -1.6515
18033TIP3   OH275513   2.322   3.403  10.642 -0.2642 -0.3957 -0.0043
18033TIP3    H175514   2.300   3.466  10.711  0.1514 -0.7328  0.4373
18033TIP3    H275515   2.280   3.438  10.563  0.4310  0.7433  0.1156
18034TIP3   OH275516   1.782   1.916   0.584  0.4755 -0.1389 -0.4178
18034TIP3    H175517   1.746   1.995   0.625  1.0233 -0.3738  0.5339
18034TIP3    H275518   1.723   1.899   0.510 -1.1345 -0.2634  0.8584
18035TIP3   OH275519   6.095   1.140  13.143 -0.0377 -0.5125  0.1348
18035TIP3    H175520   6.006   1.127  13.111  0.0768  1.1580 -0.9030
18035TIP3    H275521   6.112   1.233  13.132  1.5030 -0.6345  1.2241
18036TIP3   OH275522   2.422   1.969   2.537 -0.1606  0.4567 -0.5085
18036TIP3    H175523   2.400   1.901   2.473  1.0355 -0.0048 -0.4511
18036TIP3    H275524   2.339   2.013   2.555 -0.2773  1.5257 -3.4265
18037TIP3   OH275525   3.751   6.048  16.727 -0.0495  1.0939  0.4032
18037TIP3    H175526   3.688   6.111  16.762 -1.0187 -0.3515  1.2778
18037TIP3    H275527   3.826   6.054  16.786 -0.9225  0.0290  1.6386
18038TIP3   OH275528   1.160   1.425  11.964 -0.2620 -0.5364  0.2451
18038TIP3    H175529   1.206   1.474  11.896  0.5814  0.3951  1.4650
18038TIP3    H275530   1.133   1.344  11.921  0.0218  0.1471 -1.2706
18039TIP3   OH275531   5.467   5.449   2.884 -0.0453 -0.0706  0.3915
18039TIP3    H175532   5.417   5.456   2.803 -0.6498  0.1372  0.7803
18039TIP3    H275533   5.557   5.435   2.855 -0.1757  0.5142 -0.3246
18040TIP3   OH275534   0.972   1.899   1.257  0.7153  0.0243  0.2581
18040TIP3    H175535   0.971   1.990   1.227  0.5414  0.2181  0.8348
18040TIP3    H275536   0.895   1.860   1.216  1.7006 -0.3133 -1.3164
18041TIP3   OH275537   0.100   2.119  10.838 -0.4603 -0.5225 -0.0585
18041TIP3    H175538   0.172   2.088  10.783 -0.8676 -0.5134 -0.6028
18041TIP3    H275539   0.139   2.185  10.895 -0.0481 -0.4860 -0.3851
18042TIP3   OH275540   0.479   1.175  12.943  0.4508 -0.6266  0.1022
18042TIP3    H175541   0.462   1.263  12.910  0.0570 -0.8246 -0.2297
18042TIP3    H275542   0.557   1.147  12.896 -0.1505 -0.9349 -0.7289
18043TIP3   OH275543   1.250   1.028  16.934  0.3575  0.3357 -0.3775
18043TIP3    H175544   1.276   1.091  16.866  1.6985 -0.4823 -0.6283
18043TIP3    H275545   1.258   0.943  16.892  0.4936 -0.1304  0.5932
18044TIP3   OH275546   4.185   4.369   5.747 -0.2384 -0.2618 -0.1553
18044TIP3    H175547   4.110   4.400   5.695  0.8971 -1.6257 -2.7173
18044TIP3    H275548   4.165   4.277   5.766  1.2084 -0.9636 -1.8031
18045TIP3   OH275549   3.342   1.565  14.413  0.5479 -0.9427 -0.0740
18045TIP3    H175550   3.255   1.532  14.392  0.1285  0.7625 -1.1252
18045TIP3    H275551   3.378   1.594  14.329  1.9496 -1.1814  0.4239
18046TIP3   OH275552   4.552   4.459  14.136  0.0049  0.1760 -0.1169
18046TIP3    H175553   4.469   4.452  14.091  0.6036  0.8355 -1.3427
18046TIP3    H275554   4.532   4.505  14.218 -0.5157  2.0898 -1.3018
18047TIP3   OH275555   1.308   0.860  16.667  0.2241  0.1700  0.2786
18047TIP3    H175556   1.347   0.947  16.665 -1.1720  0.8485  1.8899
18047TIP3    H275557   1.381   0.803  16.693  1.9272  0.3592 -3.7945
18048TIP3   OH275558   6.239   1.237  15.376  0.0766  0.1443 -0.7701
18048TIP3    H175559   6.216   1.147  15.353 -3.2542  0.4913  0.9330
18048TIP3    H275560   6.297   1.228  15.452  0.0616 -0.5583 -0.8386
18049TIP3   OH275561   1.327   4.721  10.944 -0.0375  0.0218  0.2502
18049TIP3    H175562   1.285   4.723  10.858  1.4410 -0.8916 -0.5224
18049TIP3    H275563   1.409   4.674  10.929  0.8809  1.0603  1.8782
18050TIP3   OH275564   1.554   4.097  15.109 -0.0725 -0.6599  0.8042
18050TIP3    H175565   1.466   4.118  15.076  0.0751  1.2718  1.6228
18050TIP3    H275566   1.572   4.010  15.073 -1.0877  0.1676 -1.8641
18051TIP3   OH275567   3.993   1.931  12.919 -0.5257 -0.1157  0.1026
18051TIP3    H175568   4.006   1.875  12.995  0.3095  2.6000  2.0800
18051TIP3    H275569   3.990   2.020  12.956  0.7077  1.3447 -3.1131
18052TIP3   OH275570   2.486   1.895   0.513  0.0503 -0.1577  0.0350
18052TIP3    H175571   2.408   1.950   0.523 -0.2695  0.1348 -3.4851
18052TIP3    H275572   2.457   1.823   0.458  1.5543 -1.6054  1.1182
18053TIP3   OH275573   2.076   4.912   4.463  0.0685 -0.2877  0.4908
18053TIP3    H175574   2.000   4.857   4.482  0.8626 -1.7112 -0.3578
18053TIP3    H275575   2.093   4.958   4.546 -1.6234 -0.0350  0.7199
18054TIP3   OH275576   2.505   4.000  17.161  0.6596  0.1939 -0.2457
18054TIP3    H175577   2.538   3.915  17.190  2.0363  0.3531 -1.2903
18054TIP3    H275578   2.584   4.053  17.147 -0.1447  1.3597 -0.4958
18055TIP3   OH275579   0.914   5.047  13.305 -0.5753  0.2041  0.3905
18055TIP3    H175580   0.948   4.963  13.275  0.6653 -0.5355  3.6783
18055TIP3    H275581   0.990   5.106  13.305 -1.0715  0.8573 -0.2189
18056TIP3   OH275582   1.016   0.637  11.502  0.5352 -0.3282 -0.3193
18056TIP3    H175583   1.096   0.595  11.534  0.8757  0.8276  0.3730
18056TIP3    H275584   0.957   0.564  11.482  0.6967 -1.1151  1.9459
18057TIP3   OH275585   4.667   2.282  16.704  0.3611 -0.5790  0.0366
18057TIP3    H175586   4.705   2.332  16.632  0.6230 -0.6390  0.1346
18057TIP3    H275587   4.653   2.346  16.773 -0.0789 -0.4807 -0.1376
18058TIP3   OH275588   0.725   1.321  13.480  0.4930  0.1731 -0.3242
18058TIP3    H175589   0.669   1.315  13.557  0.4002 -1.6843 -0.5069
18058TIP3    H275590   0.746   1.414  13.472 -0.0796  0.4707  1.5083
18059TIP3   OH275591   6.505   4.214   0.861 -0.2242  0.0879 -0.3287
18059TIP3    H175592   6.472   4.171   0.940  1.8883  1.8009  1.5246
18059TIP3    H275593   6.521   4.304   0.887  0.2552  0.7592 -2.8144
18060TIP3   OH275594   3.995   4.756   0.766 -0.2436  0.8138 -0.1203
18060TIP3    H175595   4.029   4.809   0.839 -0.3268  1.0810 -0.2735
18060TIP3    H275596   3.979   4.820   0.696 -1.3770  0.7448  0.0613
18061TIP3   OH275597   0.556   2.602  16.955 -0.5339 -0.4670  0.7220
18061TIP3    H175598   0.480   2.564  16.998 -0.7962 -0.9368 -0.1552
18061TIP3    H275599   0.522   2.678  16.907 -0.5874 -1.1401 -0.3148
18062TIP3   OH275600   2.743   1.529  13.415 -0.1325 -0.2193  0.2454
18062TIP3    H175601   2.826   1.483  13.429  1.1480  1.6219 -1.0434
18062TIP3    H275602   2.714   1.553  13.503  0.3596 -1.4556  0.7564
18063TIP3   OH275603   0.448   2.620   2.214  0.4579 -0.5177 -0.4567
18063TIP3    H175604   0.522   2.679   2.228  0.8627 -1.4213  1.4066
18063TIP3    H275605   0.370   2.675   2.222  0.8216 -0.2809  1.5817
18064TIP3   OH275606   5.518   1.419   6.442  0.0988 -0.5352 -0.8292
18064TIP3    H175607   5.573   1.495   6.424  0.2997 -0.3723  0.4649
18064TIP3    H275608   5.580   1.351   6.469 -0.3416 -0.3207  0.7394
18065TIP3   OH275609   5.186   5.947  11.683  0.1164  0.3152  0.3265
18065TIP3    H175610   5.131   5.962  11.606  0.4566  0.9422  0.2041
18065TIP3    H275611   5.214   5.856  11.675 -0.5170  0.1362  0.1386
18066TIP3   OH275612   1.509   5.118   5.827 -0.2669 -0.4161 -0.5112
18066TIP3    H175613   1.542   5.143   5.914  1.2423 -0.0073 -1.1939
18066TIP3    H275614   1.466   5.196   5.794  1.1592  0.1339 -1.0794
18067TIP3   OH275615   3.590   3.247   2.014 -0.9829 -0.3540  0.2329
18067TIP3    H175616   3.632   3.306   2.077 -3.4223  0.2621  1.3174
18067TIP3    H275617   3.563   3.172   2.066 -2.3604 -0.1717 -0.2186
18068TIP3   OH275618   0.924   1.668  12.533  0.1279 -0.1955 -0.1622
18068TIP3    H175619   0.887   1.682  12.620  0.8090  3.0756 -0.3410
18068TIP3    H275620   1.018   1.659  12.549  0.0037 -1.9494 -0.3477
18069TIP3   OH275621   3.120   4.272   3.191 -0.2305 -0.4309  0.1099
18069TIP3    H175622   3.199   4.259   3.244 -1.0181 -0.8432  1.1954
18069TIP3    H275623   3.138   4.227   3.109  0.3417 -1.2359  0.6731
18070TIP3   OH275624   5.313   5.140  13.805  0.0995  0.6840  0.2530
18070TIP3    H175625   5.244   5.185  13.854 -0.3515  0.0252  0.2315
18070TIP3    H275626   5.309   5.177  13.717  0.1304  1.0305  0.3961
18071TIP3   OH275627   0.134   1.197   5.565 -0.4405  0.4243  0.3918
18071TIP3    H175628   0.114   1.190   5.471 -0.1371 -0.3240  0.3853
18071TIP3    H275629   0.192   1.123   5.583 -1.7086 -0.3109  1.5076
18072TIP3   OH275630   6.607   2.115   3.430  0.5741  0.1342  0.3052
18072TIP3    H175631   6.643   2.181   3.371  0.9679  0.2869  0.7075
18072TIP3    H275632   6.672   2.045   3.430  0.4051 -0.0238  0.2823
18073TIP3   OH275633   6.578   5.485   3.832 -0.0120  0.0816 -0.1992
18073TIP3    H175634   6.642   5.459   3.766  0.4334 -0.2422  0.3670
18073TIP3    H275635   6.493   5.459   3.794  0.1393  0.9626 -1.1669
18074TIP3   OH275636   3.288   6.535   4.199  0.1322  0.4777  0.3830
18074TIP3    H175637   3.370   6.515   4.246 -0.3370 -0.4675  0.8189
18074TIP3    H275638   3.243   6.451   4.193 -1.4026  1.2066  1.2958
18075TIP3   OH275639   1.546   6.419   3.671  0.0044 -0.1012 -0.6235
18075TIP3    H175640   1.554   6.340   3.726 -0.0868 -0.5355 -1.2266
18075TIP3    H275641   1.496   6.480   3.725  0.9154 -0.0951  0.2357
18076TIP3   OH275642   4.989   0.940   4.548  0.4641  0.6082  0.1431
18076TIP3    H175643   4.963   0.909   4.462  0.9266 -0.4964  0.4002
18076TIP3    H275644   4.915   0.917   4.605 -0.6121  2.9124 -0.2802
18077TIP3   OH275645   0.130   3.947  17.128  0.1563  0.8606  1.2470
18077TIP3    H175646   0.181   4.005  17.071 -0.6110  0.2305 -0.1050
18077TIP3    H275647   0.130   3.990  17.213  1.2928  1.8391  0.7587
18078TIP3   OH275648   6.641   0.772   5.830 -0.2081 -0.2615 -0.6530
18078TIP3    H175649   6.624   0.693   5.881  2.0805 -1.3482 -1.5142
18078TIP3    H275650   6.615   0.844   5.887  0.4796 -1.5379  1.2980
18079TIP3   OH275651   0.516   0.737  13.949 -0.0556 -0.0273  0.3050
18079TIP3    H175652   0.467   0.804  13.901  0.7274  0.9014  0.8016
18079TIP3    H275653   0.580   0.704  13.886 -0.6767 -0.5819 -0.0521
18080TIP3   OH275654   3.453   6.437  10.470  0.2720  0.4809 -0.4340
18080TIP3    H175655   3.431   6.372  10.536 -0.3455  0.8219 -0.2988
18080TIP3    H275656   3.548   6.446  10.477  0.0350  1.8301  1.6723
18081TIP3   OH275657   6.461   0.029  12.470 -0.4334  0.1102 -0.1238
18081TIP3    H175658   6.467   0.099  12.405  2.4996  1.8243  1.9044
18081TIP3    H275659   6.517  -0.040  12.436 -1.2511 -0.2017 -0.8493
18082TIP3   OH275660   3.386   6.120  17.010  0.3212  1.0809 -0.1249
18082TIP3    H175661   3.342   6.127  17.095  1.8067  1.3722  0.6255
18082TIP3    H275662   3.408   6.027  17.002 -2.1753  0.5487 -1.4122
18083TIP3   OH275663   3.903   2.991  16.954 -0.3013 -0.4735  0.1021
18083TIP3    H175664   3.988   2.951  16.935  0.4515  0.7269  0.8887
18083TIP3    H275665   3.911   3.081  16.923 -1.4295 -0.4549 -0.1643
18084TIP3   OH275666   4.108   5.088   3.701 -0.3579 -0.0835 -0.0604
18084TIP3    H175667   4.153   5.090   3.616 -0.6115  1.8101 -0.1663
18084TIP3    H275668   4.100   5.179   3.726 -2.8622 -0.4519  0.6442
18085TIP3   OH275669   5.366   2.861   5.166 -0.4568 -0.2599 -0.4084
18085TIP3    H175670   5.315   2.941   5.150 -2.0158 -0.7836  1.6277
18085TIP3    H275671   5.374   2.820   5.081 -2.3898  0.4905 -0.9865
18086TIP3   OH275672   0.999   4.870  14.536 -0.3086 -0.1268  0.8017
18086TIP3    H175673   0.954   4.950  14.563  1.2950  0.7545  0.9518
18086TIP3    H275674   0.975   4.805  14.602 -2.6241 -0.1177 -0.0162
18087TIP3   OH275675   5.531   0.686  12.937  0.6873  0.0403 -0.0253
18087TIP3    H175676   5.523   0.755  12.872 -2.4204  0.1613  0.3888
18087TIP3    H275677   5.526   0.605  12.887  1.6744  0.1083 -0.2452
18088TIP3   OH275678   4.292   5.022  16.262 -0.1856  0.0425 -0.1044
18088TIP3    H175679   4.291   5.099  16.206 -0.2536 -0.9477 -1.4985
18088TIP3    H275680   4.273   5.055  16.350 -1.1534  1.4625 -0.8445
18089TIP3   OH275681   0.057   5.273   0.066  0.3772 -0.0835 -0.2184
18089TIP3    H175682   0.101   5.305  -0.012 -1.0582 -1.6186 -1.7109
18089TIP3    H275683   0.112   5.201   0.097  1.5487  1.2579  0.8757
18090TIP3   OH275684   4.173   1.898  14.314  0.3668  0.5352  0.4741
18090TIP3    H175685   4.245   1.934  14.261 -0.4312  2.3725  0.6133
18090TIP3    H275686   4.114   1.972  14.327 -1.3003 -0.8440  0.8045
18091TIP3   OH275687   5.219   2.837  11.585 -0.2123 -0.7245  0.5326
18091TIP3    H175688   5.167   2.778  11.640 -0.4188 -0.3678  0.7233
18091TIP3    H275689   5.305   2.795  11.580 -0.6320 -1.5235 -0.1222
18092TIP3   OH275690   4.151   2.605   2.702  0.6978 -0.2800 -0.4818
18092TIP3    H175691   4.116   2.681   2.656  0.2535 -0.3576 -0.2699
18092TIP3    H275692   4.074   2.554   2.727  0.7154  1.1118  2.7297
18093TIP3   OH275693   3.754   0.280  11.651 -0.3989 -0.6200  0.3955
18093TIP3    H175694   3.720   0.202  11.695  1.3652 -1.0782  0.9664
18093TIP3    H275695   3.730   0.268  11.559  0.9130 -2.4246  0.2763
18094TIP3   OH275696   2.964   6.519  11.504  0.0315 -0.0239  0.1373
18094TIP3    H175697   2.932   6.461  11.435 -1.6412  0.7443  0.2499
18094TIP3    H275698   3.007   6.461  11.567  0.6027 -0.8482 -0.9950
18095TIP3   OH275699   2.891   3.134   2.719  0.2677 -0.6655  0.4978
18095TIP3    H175700   2.965   3.194   2.705  0.7232 -1.2252  0.4803
18095TIP3    H275701   2.932   3.048   2.728 -0.6760 -1.6323 -3.6046
18096TIP3   OH275702   0.775   2.681   0.656 -0.3318 -0.1761 -0.1569
18096TIP3    H175703   0.727   2.703   0.576 -0.5243 -0.5560 -0.1470
18096TIP3    H275704   0.720   2.713   0.727  0.0744  0.6145 -0.1874
18097TIP3   OH275705   4.053   6.089   1.899  0.5677  0.1062 -0.5158
18097TIP3    H175706   4.104   6.036   1.959 -1.4398  2.2254  3.2156
18097TIP3    H275707   3.968   6.044   1.893  0.5332  0.2553 -1.3072
18098TIP3   OH275708   5.087   3.592  12.486 -0.3408 -0.1645 -0.0718
18098TIP3    H175709   5.002   3.568  12.448 -0.4502  1.2431 -0.7661
18098TIP3    H275710   5.064   3.639  12.566 -0.1896 -0.5101  0.1752
18099TIP3   OH275711   0.357   1.191   2.639  0.4204 -0.3203  0.3977
18099TIP3    H175712   0.297   1.257   2.674  0.1982 -0.1302 -0.3295
18099TIP3    H275713   0.430   1.241   2.604  1.0249 -0.5544  1.3067
18100TIP3   OH275714   4.541   1.509  13.065  0.5703  0.1710 -0.4057
18100TIP3    H175715   4.510   1.595  13.093  2.7265  0.8271  0.0712
18100TIP3    H275716   4.540   1.457  13.145 -0.1973 -0.0830 -0.5793
18101TIP3   OH275717   6.509   0.697  16.684 -0.3489 -0.4085 -0.1969
18101TIP3    H175718   6.586   0.688  16.628  0.7077 -2.6286  1.5594
18101TIP3    H275719   6.528   0.774  16.738 -0.0735 -0.0108 -0.8523
18102TIP3   OH275720   4.775   6.126  11.820  0.6802 -0.2083 -0.0935
18102TIP3    H175721   4.731   6.043  11.839  0.3743  0.0252  0.2224
18102TIP3    H275722   4.709   6.179  11.776  0.3863  0.4512  1.1406
18103TIP3   OH275723   6.103   4.047  15.927  0.2869 -0.3479 -0.0088
18103TIP3    H175724   6.173   3.997  15.969  0.7448 -0.5658 -1.0015
18103TIP3    H275725   6.133   4.138  15.931  0.3662 -0.3774  0.0701
18104TIP3   OH275726   0.158   6.565  15.041  0.0803  0.6596  0.1699
18104TIP3    H175727   0.130   6.628  14.974 -1.6450 -1.3926 -1.1305
18104TIP3    H275728   0.114   6.483  15.017  1.0603 -0.6740  2.6690
18105TIP3   OH275729   4.996   6.038  13.482 -0.2192  0.0259 -0.2999
18105TIP3    H175730   4.947   6.101  13.535 -0.4542  0.3552 -0.9124
18105TIP3    H275731   4.929   5.977  13.450 -0.0458 -0.3030 -0.0385
18106TIP3   OH275732   4.875   6.215  16.235 -0.4623  0.3645 -0.1636
18106TIP3    H175733   4.961   6.205  16.276 -0.5853  0.0022  0.0095
18106TIP3    H275734   4.892   6.211  16.141 -0.4252 -0.8334 -0.1085
18107TIP3   OH275735   5.175   0.015   2.717  0.3528  0.2177 -0.5916
18107TIP3    H175736   5.154   0.106   2.699 -2.0968  0.0351  1.1409
18107TIP3    H275737   5.146   0.000   2.807  1.2955 -2.0967 -0.6202
18108TIP3   OH275738   5.487   4.100  15.894 -0.5717 -0.3611  0.2371
18108TIP3    H175739   5.574   4.088  15.857 -0.5294  0.5684  0.0313
18108TIP3    H275740   5.438   4.022  15.867 -0.1217 -0.3698 -0.5567
18109TIP3   OH275741   5.124   5.882  14.517 -0.2231 -0.4381  0.1705
18109TIP3    H175742   5.037   5.889  14.554 -0.3979  0.5176 -0.4013
18109TIP3    H275743   5.183   5.911  14.586 -0.4210 -0.2997  0.2790
18110TIP3   OH275744   1.393   1.119  16.690 -0.0969  0.3689 -0.0669
18110TIP3    H175745   1.479   1.084  16.710  0.0262  0.7845  0.1319
18110TIP3    H275746   1.410   1.199  16.642 -0.3612  0.7543  0.4718
18111TIP3   OH275747   4.139   4.382  14.365 -0.2464 -0.1649 -0.1125
18111TIP3    H175748   4.051   4.373  14.329 -0.3718  0.0997  0.1308
18111TIP3    H275749   4.126   4.397  14.458  0.0619 -0.2815 -0.0508
18112TIP3   OH275750   0.215   4.471  12.574  0.0556  0.0414  0.2576
18112TIP3    H175751   0.281   4.525  12.617  0.0320  1.2666 -1.1857
18112TIP3    H275752   0.143   4.466  12.637  0.2570  1.3123  0.6113
18113TIP3   OH275753   5.964   5.699   5.220 -0.1352 -0.1384  0.3374
18113TIP3    H175754   5.879   5.726   5.186 -0.2261 -2.1668 -1.1939
18113TIP3    H275755   5.945   5.625   5.277  0.7053 -1.6461 -1.2829
18114TIP3   OH275756   4.482   1.470  10.985  0.2115  0.2236  0.2383
18114TIP3    H175757   4.574   1.462  10.959  0.2483  0.8800  0.1709
18114TIP3    H275758   4.482   1.536  11.054 -0.5557  2.1655 -1.5869
18115TIP3   OH275759   2.980   2.112   1.742 -0.2438  0.0203  0.1087
18115TIP3    H175760   2.918   2.079   1.677  0.8932  0.4548 -1.2268
18115TIP3    H275761   2.996   2.037   1.799  0.2157 -0.9555 -1.2621
18116TIP3   OH275762   5.761   1.537  15.352 -0.5016  1.0262  0.4400
18116TIP3    H175763   5.697   1.466  15.359  0.6194  0.0563  1.0526
18116TIP3    H275764   5.722   1.598  15.289 -1.7605  0.1686  0.3674
18117TIP3   OH275765   0.182   6.766  11.108  0.1298  0.9001 -0.3902
18117TIP3    H175766   0.129   6.808  11.041 -0.1035  1.8902  0.4002
18117TIP3    H275767   0.133   6.687  11.132 -0.3122  1.1041 -0.6219
18118TIP3   OH275768   2.485   6.633  12.260 -0.7921  0.6433  0.1717
18118TIP3    H175769   2.493   6.634  12.355 -0.2336  0.6547  0.1264
18118TIP3    H275770   2.507   6.544  12.235  0.4438  1.0047 -0.0584
18119TIP3   OH275771   2.177   0.939  11.867 -0.3915 -0.2943  0.3484
18119TIP3    H175772   2.268   0.940  11.838  0.0051 -0.4648  1.5458
18119TIP3    H275773   2.133   0.876  11.810  0.2518 -0.2487 -0.1942
18120TIP3   OH275774   5.206   3.273   1.985 -0.3401  0.4873  0.0480
18120TIP3    H175775   5.235   3.245   2.072 -1.1417 -1.8760 -0.4076
18120TIP3    H275776   5.116   3.302   1.997 -1.0609 -1.5102 -0.2554
18121TIP3   OH275777   1.709   2.860  14.272  0.2869 -0.8250 -0.1718
18121TIP3    H175778   1.702   2.877  14.179  0.7324  1.3205  0.1687
18121TIP3    H275779   1.752   2.774  14.278  3.7882  0.7175 -1.9197
18122TIP3   OH275780   6.340   4.711  14.226 -0.2704 -0.0528  0.2195
18122TIP3    H175781   6.299   4.659  14.295 -0.8174 -0.0190 -0.0780
18122TIP3    H275782   6.268   4.731  14.165 -0.0412  0.9336  0.2641
18123TIP3   OH275783   4.755   0.201  11.420 -0.4869 -0.2223  0.1828
18123TIP3    H175784   4.832   0.177  11.369 -2.0091 -0.5856 -1.9854
18123TIP3    H275785   4.739   0.293  11.398 -1.3229 -0.4624 -0.2103
18124TIP3   OH275786   6.240   2.935  13.552 -0.6441  0.5012 -0.0314
18124TIP3    H175787   6.331   2.956  13.535 -0.4663 -1.2576 -1.3186
18124TIP3    H275788   6.241   2.890  13.637 -0.7029  3.0079  1.3729
18125TIP3   OH275789   0.897   4.837  14.109 -0.0830 -0.3764  0.7950
18125TIP3    H175790   0.855   4.905  14.056 -0.9679 -1.3505  0.2173
18125TIP3    H275791   0.990   4.843  14.086 -0.3431 -0.2397 -0.2696
18126TIP3   OH275792   2.633   1.679  15.837  0.7161 -0.2347  0.1341
18126TIP3    H175793   2.591   1.622  15.902 -0.8872 -0.4411 -1.0464
18126TIP3    H275794   2.724   1.685  15.865  0.7357 -2.7501  0.7276
18127TIP3   OH275795   4.087   2.270  11.317  0.2974 -0.3556  0.6398
18127TIP3    H175796   4.102   2.219  11.397  1.3330 -0.7861  0.1887
18127TIP3    H275797   4.006   2.235  11.281  1.9149 -2.9927 -0.6196
18128TIP3   OH275798   2.270   0.784  16.123  0.1051  0.3925  0.4445
18128TIP3    H175799   2.206   0.740  16.068 -0.4085  1.5797  0.0648
18128TIP3    H275800   2.334   0.820  16.062  0.9143 -0.4300  0.7971
18129TIP3   OH275801   4.581   2.892   2.568 -0.5513 -1.1020  0.0407
18129TIP3    H175802   4.624   2.932   2.492  1.8516 -0.6821  1.5526
18129TIP3    H275803   4.567   2.964   2.629 -3.0900 -1.3163 -0.2384
18130TIP3   OH275804   3.075   5.143  12.038  0.5371 -0.1538  0.1590
18130TIP3    H175805   3.074   5.120  11.945 -1.4684 -2.4323  0.6994
18130TIP3    H275806   3.149   5.095  12.074  0.3214 -0.5846  0.0343
18131TIP3   OH275807   5.899   2.139  13.097  0.1317 -0.3690 -0.7785
18131TIP3    H175808   5.866   2.224  13.125  0.7478 -0.7298  1.1237
18131TIP3    H275809   5.866   2.077  13.162  0.7877 -1.3869 -1.3849
18132TIP3   OH275810   3.637   0.164  12.263  0.0146 -0.2258 -0.3248
18132TIP3    H175811   3.580   0.210  12.324  1.0934 -0.5353  0.9603
18132TIP3    H275812   3.687   0.233  12.219  0.0211 -0.0536 -0.0467
18133TIP3   OH275813   1.029   4.363  13.209 -0.0347  0.0883  0.3450
18133TIP3    H175814   0.969   4.289  13.196  1.0690 -0.4315 -2.0319
18133TIP3    H275815   1.027   4.411  13.126  0.2824  1.9995  1.4067
18134TIP3   OH275816   1.048   1.951  12.465 -0.0297  0.3658  0.0238
18134TIP3    H175817   1.050   1.858  12.485 -0.2468  0.6302  1.3076
18134TIP3    H275818   1.140   1.978  12.470  0.1154  0.0788 -1.0490
18135TIP3   OH275819   5.826   2.926  15.580  0.4415  0.0120  0.0109
18135TIP3    H175820   5.784   2.950  15.662 -0.3674  1.1600 -0.7379
18135TIP3    H275821   5.756   2.887  15.527  0.5429  0.9226 -0.8152
18136TIP3   OH275822   0.622   6.509  15.144 -0.3598  0.0189  0.0779
18136TIP3    H175823   0.663   6.596  15.153 -2.1940  1.2785 -2.8017
18136TIP3    H275824   0.597   6.505  15.051 -1.6747 -2.9851  0.5248
18137TIP3   OH275825   2.845   4.573  12.377  0.0514  0.5091 -0.1265
18137TIP3    H175826   2.896   4.507  12.331  0.1491 -0.7683  1.7548
18137TIP3    H275827   2.901   4.600  12.451 -0.2242  2.2795 -0.5335
18138TIP3   OH275828   0.499   3.916   2.302 -0.3640  0.1406 -0.1192
18138TIP3    H175829   0.452   3.973   2.241 -1.6588 -1.6930 -0.8788
18138TIP3    H275830   0.471   3.946   2.389 -2.4949 -0.5192 -0.5499
18139TIP3   OH275831   1.780   4.794   0.968  0.2666 -0.0273 -0.7255
18139TIP3    H175832   1.853   4.845   1.002 -0.9459  0.8960  0.5245
18139TIP3    H275833   1.750   4.742   1.043  0.0015 -0.8380 -1.3822
18140TIP3   OH275834   3.704   2.125  13.975  0.1675 -0.2779 -0.1564
18140TIP3    H175835   3.731   2.046  13.928 -2.4514 -0.0985 -2.0397
18140TIP3    H275836   3.722   2.197  13.915 -3.0422 -0.0301 -0.9007
18141TIP3   OH275837   6.438   2.166   0.271 -0.2615  0.6204 -0.1376
18141TIP3    H175838   6.417   2.117   0.192 -0.6615  1.4149 -0.5297
18141TIP3    H275839   6.401   2.114   0.342  2.6782 -1.6209 -0.1596
18142TIP3   OH275840   4.775   5.781   4.679 -0.1824  0.7623 -0.2408
18142TIP3    H175841   4.705   5.761   4.616  0.0175  0.2189 -0.2948
18142TIP3    H275842   4.731   5.786   4.763 -0.0318 -1.4779  0.0220
18143TIP3   OH275843   4.779   5.240   0.700  0.1544  0.0428  0.1864
18143TIP3    H175844   4.767   5.165   0.758  0.1570 -0.3379 -0.2961
18143TIP3    H275845   4.826   5.305   0.753  0.9676 -0.6465  0.3231
18144TIP3   OH275846   6.048   0.518   0.627  0.2108 -0.3907 -0.1779
18144TIP3    H175847   5.965   0.483   0.658  0.1149 -0.5063 -0.5666
18144TIP3    H275848   6.028   0.555   0.542  0.2246  0.9653  0.3921
18145TIP3   OH275849   0.686   2.596   1.839 -0.2588 -0.1289  0.3109
18145TIP3    H175850   0.777   2.574   1.822 -0.1141 -0.0626  0.9864
18145TIP3    H275851   0.680   2.690   1.822 -0.3353 -0.2437 -0.2965
18146TIP3   OH275852   3.595   5.640   1.875  0.4390  0.5267 -0.6144
18146TIP3    H175853   3.519   5.652   1.933  0.0379  0.2407 -1.0722
18146TIP3    H275854   3.656   5.587   1.926 -0.5539 -1.0217 -1.0065
18147TIP3   OH275855   1.769   6.543  12.186  0.0535 -0.2522 -0.2654
18147TIP3    H175856   1.816   6.619  12.221 -0.3931  0.2394 -0.7178
18147TIP3    H275857   1.838   6.479  12.167  0.2128 -0.9149  2.4124
18148TIP3   OH275858   4.588   4.124   4.221  0.1638 -0.4144 -0.0333
18148TIP3    H175859   4.656   4.127   4.288  0.5839 -1.3668 -0.3954
18148TIP3    H275860   4.600   4.038   4.179 -1.0740 -0.4721 -0.2958
18149TIP3   OH275861   3.641   6.124   5.463  0.0340 -0.3603 -0.3829
18149TIP3    H175862   3.562   6.122   5.518 -0.7089 -0.3858 -1.4333
18149TIP3    H275863   3.621   6.190   5.396  0.8195 -0.5358 -0.7927
18150TIP3   OH275864   1.200   0.352   4.314 -0.0887  0.1455  0.6489
18150TIP3    H175865   1.137   0.280   4.313  1.0136 -0.8638  1.8574
18150TIP3    H275866   1.283   0.311   4.288  0.2299  1.3027 -0.2010
18151TIP3   OH275867   4.185   3.032   5.552 -0.6110  0.4898  0.7021
18151TIP3    H175868   4.160   3.096   5.620 -0.6273 -0.2810  1.4317
18151TIP3    H275869   4.274   3.057   5.527 -0.2183  0.1644  1.7441
18152TIP3   OH275870   4.633   5.530  16.757 -0.5787  0.1257 -0.1136
18152TIP3    H175871   4.680   5.501  16.835 -1.8780  1.5307  1.2533
18152TIP3    H275872   4.671   5.616  16.737  0.5364 -0.7285 -1.7377
18153TIP3   OH275873   0.698   0.092  14.429 -0.0873 -0.1036 -0.3980
18153TIP3    H175874   0.650   0.035  14.368 -0.3686  0.7956 -1.0228
18153TIP3    H275875   0.757   0.143  14.373  0.5899 -0.1965  0.2250
18154TIP3   OH275876   1.247   5.253   4.819 -0.2648  0.2068 -0.0228
18154TIP3    H175877   1.175   5.236   4.880  0.1300  1.2124  0.7473
18154TIP3    H275878   1.207   5.305   4.749 -1.2586 -2.9580 -1.8985
18155TIP3   OH275879   2.096   4.750   2.236 -0.2883 -0.3613  0.2202
18155TIP3    H175880   2.118   4.797   2.156  0.2279 -1.6004 -0.3870
18155TIP3    H275881   2.021   4.695   2.212 -1.6949  1.0591  1.2645
18156TIP3   OH275882   5.009   3.176  10.713  0.4052 -0.1331 -0.0832
18156TIP3    H175883   5.039   3.188  10.803  3.9406  0.9726 -1.3380
18156TIP3    H275884   5.088   3.154  10.664 -1.1943  0.8289 -3.2146
18157TIP3   OH275885   0.136   0.991   0.527 -0.0482  0.2568 -0.2586
18157TIP3    H175886   0.194   0.997   0.603 -0.2844 -1.0090  0.0328
18157TIP3    H275887   0.173   1.053   0.464  0.2668  1.1737  0.8083
18158TIP3   OH275888   2.612   2.867   3.960 -0.3285 -0.3071  0.4980
18158TIP3    H175889   2.523   2.846   3.931 -0.7132 -0.0728  1.4949
18158TIP3    H275890   2.621   2.961   3.941 -0.4268 -0.2471  0.7542
18159TIP3   OH275891   1.947   0.355   1.423  0.2506  0.1332  0.0410
18159TIP3    H175892   1.961   0.349   1.329 -1.9412 -1.4038 -0.2217
18159TIP3    H275893   1.892   0.432   1.434  1.9698  1.3611  0.2728
18160TIP3   OH275894   3.091   4.497   2.504 -0.1661 -0.0161 -0.0727
18160TIP3    H175895   3.131   4.479   2.419  0.2528 -0.8449  0.2934
18160TIP3    H275896   3.158   4.545   2.553 -1.3881  2.8679 -1.1485
18161TIP3   OH275897   4.946   1.424  13.275 -0.5965  0.2415  0.0570
18161TIP3    H175898   4.950   1.459  13.186 -1.1372 -0.0289 -0.0802
18161TIP3    H275899   4.860   1.451  13.307 -0.8468 -0.5975  0.0965
18162TIP3   OH275900   5.970   0.399  15.088 -0.3714  0.5818  0.2755
18162TIP3    H175901   5.968   0.438  15.000 -2.1456  0.7422  0.3675
18162TIP3    H275902   6.056   0.423  15.123 -0.3765  2.1276 -0.7046
18163TIP3   OH275903   0.132   3.944  11.290  0.0497  0.1822  0.4365
18163TIP3    H175904   0.043   3.935  11.324 -0.4055  2.3581 -0.0915
18163TIP3    H275905   0.143   4.038  11.277  1.2263 -0.3420 -2.7138
18164TIP3   OH275906   2.967   2.898  16.311 -0.4103  0.2281  0.3601
18164TIP3    H175907   2.950   2.857  16.227 -0.1077 -0.5614  0.6778
18164TIP3    H275908   3.042   2.850  16.347  1.1886  2.3104 -0.1076
18165TIP3   OH275909   1.350   6.184  13.969 -0.5592 -0.3714 -0.1395
18165TIP3    H175910   1.292   6.215  14.039 -0.1030 -0.2213  0.1731
18165TIP3    H275911   1.438   6.192  14.005 -0.3977 -1.5069 -0.2652
18166TIP3   OH275912   6.428   4.423   5.011 -0.2538  0.7332  0.3287
18166TIP3    H175913   6.333   4.417   4.998 -0.2892  2.0662 -0.0873
18166TIP3    H275914   6.463   4.349   4.961 -1.1182 -0.3237  1.2387
18167TIP3   OH275915   0.720   0.796   4.387 -0.5375 -0.0104  0.2511
18167TIP3    H175916   0.658   0.803   4.459 -0.5096  0.6009  0.2155
18167TIP3    H275917   0.672   0.749   4.318 -1.3916  1.5670 -0.2515
18168TIP3   OH275918   3.787   4.923   3.181  0.3161 -0.6201 -0.0780
18168TIP3    H175919   3.814   4.843   3.135 -1.9511 -0.2507 -2.1345
18168TIP3    H275920   3.859   4.984   3.166  1.1810 -1.6281 -0.1287
18169TIP3   OH275921   6.372   2.933  15.183  0.4514  0.7314 -0.1124
18169TIP3    H175922   6.410   2.995  15.120 -0.6911  2.4609  0.8767
18169TIP3    H275923   6.325   2.870  15.128 -2.3760  3.4433 -0.9882
18170TIP3   OH275924   2.620   6.221  11.968 -0.5012  0.2136 -0.0371
18170TIP3    H175925   2.577   6.299  11.933 -1.0149 -0.2242 -0.4065
18170TIP3    H275926   2.581   6.149  11.919 -0.3871 -0.3164  0.6411
18171TIP3   OH275927   4.274   2.755   5.519 -0.1457 -0.2723 -0.1603
18171TIP3    H175928   4.212   2.827   5.526  1.0401  0.6762  0.6133
18171TIP3    H275929   4.219   2.676   5.525 -1.5043  0.5376 -1.6125
18172TIP3   OH275930   3.768   4.665   4.397  0.1217  0.6290 -0.2586
18172TIP3    H175931   3.693   4.718   4.424  0.2353  1.0218 -0.6968
18172TIP3    H275932   3.809   4.637   4.479 -0.1182  0.9674 -0.0229
18173TIP3   OH275933   0.225   6.596  14.284 -0.1040 -0.1132 -0.1990
18173TIP3    H175934   0.313   6.561  14.271  0.6954  1.0538  1.9000
18173TIP3    H275935   0.180   6.531  14.337 -0.6701 -0.9114 -1.6270
18174TIP3   OH275936   3.697   4.876   1.152  0.0366  0.3667  0.5492
18174TIP3    H175937   3.618   4.921   1.182  0.6093  1.6999  0.0911
18174TIP3    H275938   3.732   4.932   1.083  1.7933  0.1598  1.2539
18175TIP3   OH275939   4.739   2.246  15.639  0.3474  0.2920  0.0606
18175TIP3    H175940   4.766   2.314  15.577  2.3847 -0.1904  0.3996
18175TIP3    H275941   4.714   2.294  15.718  0.8578  0.7202 -0.0364
18176TIP3   OH275942   5.585   4.826   3.762  0.2744 -0.6690 -0.1021
18176TIP3    H175943   5.607   4.792   3.675 -0.0101 -2.0575  0.3466
18176TIP3    H275944   5.533   4.756   3.802  0.7231 -0.2093  1.3165
18177TIP3   OH275945   4.366   5.704   4.119 -0.3683 -0.2237 -0.0232
18177TIP3    H175946   4.351   5.724   4.211 -0.5985 -0.5611  0.0161
18177TIP3    H275947   4.288   5.735   4.074 -0.7468 -1.0642  0.0448
18178TIP3   OH275948   6.070   2.087   1.528  0.6385  0.6182  0.2318
18178TIP3    H175949   6.023   2.170   1.538 -0.8975 -0.0283 -1.3111
18178TIP3    H275950   6.133   2.104   1.458  0.3429  0.5199 -0.0645
18179TIP3   OH275951   0.218   3.646  14.227 -1.0379  0.4069  0.0388
18179TIP3    H175952   0.207   3.629  14.133 -0.5207  2.1684 -0.3572
18179TIP3    H275953   0.260   3.732  14.231 -1.5337  0.5775  1.9073
18180TIP3   OH275954   6.514   2.468   3.859  0.1205 -0.2897 -0.2164
18180TIP3    H175955   6.551   2.418   3.931  0.7818  0.0485 -0.3090
18180TIP3    H275956   6.541   2.420   3.780 -3.9088 -2.8786 -0.1624
18181TIP3   OH275957   3.787   6.212  15.533  0.0579 -0.1635 -0.2385
18181TIP3    H175958   3.828   6.149  15.592 -1.2913 -0.0831  0.8369
18181TIP3    H275959   3.699   6.225  15.570 -0.7367  0.0625 -2.1586
18182TIP3   OH275960   5.622   4.082   3.625 -0.0454  0.8752 -0.8597
18182TIP3    H175961   5.548   4.096   3.683  1.2134 -0.5406  1.1512
18182TIP3    H275962   5.644   4.169   3.592 -1.8078  1.4663 -0.5053
18183TIP3   OH275963   2.134   3.630   0.975  0.2616  0.2819 -0.4673
18183TIP3    H175964   2.094   3.601   1.057  1.6249 -2.0771 -0.5950
18183TIP3    H275965   2.080   3.704   0.946 -1.9346 -0.6855  1.0697
18184TIP3   OH275966   1.003   0.374   1.853 -0.0704  0.5666  0.2060
18184TIP3    H175967   1.072   0.314   1.825 -0.7967 -0.4889  0.6182
18184TIP3    H275968   1.044   0.432   1.917  0.4866  0.0838  0.2847
18185TIP3   OH275969   2.776   5.315  12.132 -0.5464  0.3490  0.6047
18185TIP3    H175970   2.749   5.276  12.215 -1.1354 -3.5780 -1.3403
18185TIP3    H275971   2.872   5.320  12.138 -0.1986 -3.6414  0.1106
18186TIP3   OH275972   0.276   0.325  10.924  0.3300 -0.2180 -0.2212
18186TIP3    H175973   0.209   0.257  10.924 -1.2602  1.2784 -2.9086
18186TIP3    H275974   0.272   0.363  11.012 -3.8421  1.1956 -0.9403
18187TIP3   OH275975   6.041   3.328   3.824  0.4266  0.1532  0.3449
18187TIP3    H175976   5.979   3.389   3.784 -2.0194 -2.5372 -0.1871
18187TIP3    H275977   6.020   3.330   3.918  0.1656 -0.0764  0.2910
18188TIP3   OH275978   2.668   1.204   4.079  0.0623  0.6310 -0.0286
18188TIP3    H175979   2.620   1.287   4.074 -1.6826 -0.3218  0.5976
18188TIP3    H275980   2.634   1.152   4.006  0.1106 -0.0703  0.4454
18189TIP3   OH275981   6.767   4.139  15.990  0.7825 -0.9728 -0.2341
18189TIP3    H175982   6.731   4.051  15.984 -1.0591 -0.4043  2.1778
18189TIP3    H275983   6.811   4.142  16.075 -0.9865  1.0560  0.6599
18190TIP3   OH275984   5.725   2.271   3.996 -0.4464 -0.0330 -0.0078
18190TIP3    H175985   5.815   2.297   4.012  1.1400 -3.0225 -3.3815
18190TIP3    H275986   5.673   2.344   4.029  3.2258  2.4086  0.6899
18191TIP3   OH275987   6.225   4.107   3.878  0.1580  0.3576 -0.5339
18191TIP3    H175988   6.306   4.093   3.927 -0.0705  0.6846 -0.0625
18191TIP3    H275989   6.210   4.201   3.884  0.6351  0.5467 -2.0303
18192TIP3   OH275990   4.243   5.358  13.794  0.2504 -0.2285 -0.5267
18192TIP3    H175991   4.263   5.348  13.701 -0.8029 -2.4907 -0.5583
18192TIP3    H275992   4.179   5.289  13.812 -0.6626  1.0986  1.5520
18193TIP3   OH275993   2.936   3.346  13.257  0.4035 -0.4718  0.0830
18193TIP3    H175994   3.004   3.304  13.205  0.9457 -3.0466  2.7213
18193TIP3    H275995   2.854   3.319  13.215  0.8838 -0.5945 -0.7914
18194TIP3   OH275996   6.393   5.757  15.112  0.0744 -0.0765 -0.0149
18194TIP3    H175997   6.420   5.696  15.180 -0.6983 -0.3802  0.0259
18194TIP3    H275998   6.384   5.841  15.158  0.1920 -0.1435  0.1276
18195TIP3   OH275999   2.881   0.975   3.057  0.1452  0.0422 -0.1857
18195TIP3    H176000   2.958   0.932   3.021  0.3824 -1.3047  1.8381
18195TIP3    H276001   2.832   1.005   2.980  0.6885 -2.6129 -1.6528
18196TIP3   OH276002   2.357   4.813  13.706  0.6717 -0.2017 -0.0127
18196TIP3    H176003   2.441   4.831  13.665  1.5316  0.0464  1.8210
18196TIP3    H276004   2.377   4.751  13.776 -0.6804 -0.1762  0.4167
18197TIP3   OH276005   0.708   0.205   0.968 -0.5732 -0.1116  0.9435
18197TIP3    H176006   0.711   0.195   0.873 -0.8889  0.9412  0.8172
18197TIP3    H276007   0.628   0.159   0.994 -1.0559  0.5036  0.5706
18198TIP3   OH276008   4.107   5.916   3.212  0.4696 -0.5980 -0.0745
18198TIP3    H176009   4.181   5.878   3.258  0.4297  1.2034  1.5317
18198TIP3    H276010   4.035   5.855   3.226  0.9933 -1.0793  0.5109
18199TIP3   OH276011   2.455   0.160  13.849  0.3790  0.5378  0.4952
18199TIP3    H176012   2.474   0.215  13.925 -1.6814  1.7062  0.2006
18199TIP3    H276013   2.456   0.220  13.774  3.1863 -0.7348 -0.5647
18200TIP3   OH276014   3.232   6.132  11.086 -0.2830 -0.3743  0.2570
18200TIP3    H176015   3.168   6.131  11.157  0.8210 -1.3220  1.2559
18200TIP3    H276016   3.216   6.050  11.039  1.8157 -1.8335  2.0032
18201TIP3   OH276017   0.995   3.573   3.869  0.4055 -0.1147  0.1593
18201TIP3    H176018   1.040   3.552   3.951  0.0542 -0.4337  0.2753
18201TIP3    H276019   1.018   3.664   3.851 -1.5948  0.8110  2.0034
18202TIP3   OH276020   6.743   4.893  14.056  0.1163  0.2123 -0.3195
18202TIP3    H176021   6.791   4.966  14.017 -2.3964  2.2477  0.2963
18202TIP3    H276022   6.707   4.845  13.982  0.5363  0.4370 -0.6740
18203TIP3   OH276023   6.056   3.637  13.692 -0.0995  0.2023 -0.3920
18203TIP3    H176024   6.129   3.648  13.632  0.4185 -1.6448 -0.1316
18203TIP3    H276025   6.094   3.651  13.779 -0.1774 -0.1393 -0.3005
18204TIP3   OH276026   3.305   2.731   4.539 -0.7182  0.0124  0.5471
18204TIP3    H176027   3.310   2.744   4.634  0.2527  1.3446  0.3211
18204TIP3    H276028   3.363   2.656   4.522 -1.5703 -0.7898  1.0915
18205TIP3   OH276029   2.611   6.535   2.075 -0.6102  0.4267 -0.2175
18205TIP3    H176030   2.555   6.464   2.107  0.2961  0.7882  2.3018
18205TIP3    H276031   2.671   6.493   2.013  0.5972 -1.2499  2.0277
18206TIP3   OH276032   6.613   0.138   4.332  0.2709 -0.3810  0.0986
18206TIP3    H176033   6.589   0.231   4.335 -0.1978 -0.5315  1.5853
18206TIP3    H276034   6.529   0.092   4.326  0.4175 -0.7485  0.8036
18207TIP3   OH276035   2.127   0.070   5.331 -0.3315  0.3280  0.1949
18207TIP3    H176036   2.167   0.062   5.244 -0.9383 -0.0075 -0.0564
18207TIP3    H276037   2.198   0.046   5.391 -0.4513 -1.3742 -0.3016
18208TIP3   OH276038   4.075   3.171  14.799 -0.0110  0.1073 -0.1222
18208TIP3    H176039   4.066   3.241  14.734  0.3519  0.8856  0.6566
18208TIP3    H276040   4.021   3.199  14.873  2.4551  1.0150  1.3894
18209TIP3   OH276041   3.613   1.258  15.645 -0.7179  0.2094  0.1198
18209TIP3    H176042   3.537   1.259  15.703 -0.5612  0.4850  0.3219
18209TIP3    H276043   3.600   1.334  15.588 -0.9327 -0.1290 -0.2871
18210TIP3   OH276044   3.165   0.064  13.973 -0.6498  0.2306 -0.4846
18210TIP3    H176045   3.188   0.041  14.063  1.4701  1.0582 -0.7993
18210TIP3    H276046   3.212   0.146  13.956 -1.6949  0.5279 -2.0758
18211TIP3   OH276047   6.058   1.196   0.250  0.0065  0.0260  0.0510
18211TIP3    H176048   5.992   1.151   0.198  1.7791 -0.6469 -1.6476
18211TIP3    H276049   6.140   1.184   0.202  1.5709 -0.0285  2.6485
18212TIP3   OH276050   6.406   6.639  14.295  0.3585  0.1715 -0.2427
18212TIP3    H176051   6.343   6.569  14.310  1.2276 -0.2504  1.5991
18212TIP3    H276052   6.487   6.594  14.272  0.8434  0.5906  0.6351
18213TIP3   OH276053   5.685   0.302   6.069  0.4998  0.3747  0.0483
18213TIP3    H176054   5.612   0.255   6.110 -0.7857  0.1805 -2.3950
18213TIP3    H276055   5.697   0.380   6.123  0.6289 -1.1933  2.3540
18214TIP3   OH276056   2.390   1.449   5.006 -0.1918  0.1041  0.2329
18214TIP3    H176057   2.312   1.424   5.056  1.1351  0.6642  2.6531
18214TIP3    H276058   2.365   1.531   4.963 -0.7350  0.6703  1.5825
18215TIP3   OH276059   5.396   2.351  15.266 -0.0811 -0.3065 -0.6206
18215TIP3    H176060   5.313   2.315  15.235  0.8176 -2.2936 -0.7805
18215TIP3    H276061   5.458   2.332  15.195 -0.0631  3.7783 -1.8197
18216TIP3   OH276062   4.922   6.537   1.566 -0.3107 -0.2421 -0.4826
18216TIP3    H176063   4.965   6.472   1.621  0.3809 -2.2811 -3.3691
18216TIP3    H276064   4.837   6.550   1.608 -0.5368 -3.1179  0.0701
18217TIP3   OH276065   0.269   0.511   2.559 -0.1323 -0.3483  1.1784
18217TIP3    H176066   0.302   0.580   2.616  1.3221 -1.4047  1.6522
18217TIP3    H276067   0.174   0.517   2.565 -0.0281  2.0367  0.6817
18218TIP3   OH276068   2.230   6.179   0.752  0.0536  0.4854 -0.3895
18218TIP3    H176069   2.176   6.148   0.825 -0.1315 -0.7674 -1.0507
18218TIP3    H276070   2.316   6.140   0.767  0.2719  0.9737 -0.3498
18219TIP3   OH276071   3.771   0.982  12.379 -0.1455  0.4159  0.0047
18219TIP3    H176072   3.834   1.020  12.318  0.6807  1.1847  1.2992
18219TIP3    H276073   3.708   1.053  12.396 -0.1994  0.3093  0.2645
18220TIP3   OH276074   1.852   3.003  14.035  0.1179 -0.3871  0.0549
18220TIP3    H176075   1.785   3.071  14.030 -0.0199 -0.5559 -0.5439
18220TIP3    H276076   1.907   3.018  13.958  0.8392 -0.1782  0.6093
18221TIP3   OH276077   6.719   2.284  12.154  1.0941  0.3208  0.2553
18221TIP3    H176078   6.719   2.290  12.058 -2.0680  0.8670  0.2294
18221TIP3    H276079   6.663   2.210  12.173 -0.1001  1.5646  1.7160
18222TIP3   OH276080   5.200   5.666  13.789  0.3228  0.2402 -0.7614
18222TIP3    H176081   5.218   5.671  13.883  0.6415  0.3920 -0.8288
18222TIP3    H276082   5.197   5.757  13.760 -2.6606  0.3102 -0.3732
18223TIP3   OH276083   5.405   1.438  15.043 -0.5167 -0.6641 -0.2352
18223TIP3    H176084   5.377   1.403  14.958  0.5512 -0.1413 -0.8203
18223TIP3    H276085   5.436   1.362  15.092 -0.9687 -0.9464 -0.3876
18224TIP3   OH276086   2.357   6.292  13.916 -0.5786 -0.8660 -0.3014
18224TIP3    H176087   2.387   6.382  13.913 -0.8534 -0.6798  1.6652
18224TIP3    H276088   2.277   6.291  13.864  0.4904 -0.4306 -1.9872
18225TIP3   OH276089   1.624   0.299  12.856  0.6411  0.4010 -0.0270
18225TIP3    H176090   1.688   0.241  12.814  2.1353  0.9946  1.4075
18225TIP3    H276091   1.632   0.382  12.809  0.0661  0.1430 -0.6080
18226TIP3   OH276092   2.687   5.218  14.854 -0.1727  0.3042 -0.1643
18226TIP3    H176093   2.740   5.138  14.862  1.0524  1.0562 -0.6986
18226TIP3    H276094   2.613   5.192  14.798  1.4633  0.1481 -2.2907
18227TIP3   OH276095   6.029   3.086  16.548 -0.4054  0.3928  0.1959
18227TIP3    H176096   5.971   3.054  16.617  0.6546 -1.2142  0.3714
18227TIP3    H276097   6.117   3.073  16.583  0.0904  2.9815  0.0127
18228TIP3   OH276098   3.081   0.305   3.950 -0.5609 -0.7709 -0.2086
18228TIP3    H176099   3.127   0.383   3.918 -1.4872 -0.5837 -1.1088
18228TIP3    H276100   3.110   0.234   3.892  0.5418 -1.1658  0.8230
18229TIP3   OH276101   3.002   3.786   1.554 -0.7253 -0.5941  0.3317
18229TIP3    H176102   3.027   3.694   1.561 -0.6708 -0.6567 -0.5488
18229TIP3    H276103   3.016   3.822   1.641  0.8435 -1.0266  0.2698
18230TIP3   OH276104   1.647   2.539  14.816 -0.2832 -0.2224  0.3921
18230TIP3    H176105   1.615   2.629  14.824 -1.3392 -0.5923  0.3180
18230TIP3    H276106   1.719   2.546  14.753 -1.1157  0.3886 -0.5112
18231TIP3   OH276107   3.769   5.188  17.210  0.0753  0.3283 -0.3615
18231TIP3    H176108   3.777   5.280  17.234  1.0611  0.0945  0.2318
18231TIP3    H276109   3.726   5.147  17.286  2.2480 -0.2164  0.6146
18232TIP3   OH276110   0.152   1.798  16.355 -0.2801  0.1915  0.5015
18232TIP3    H176111   0.162   1.709  16.390  1.0760 -1.1538 -3.1075
18232TIP3    H276112   0.061   1.802  16.326 -0.1210 -0.3148 -0.0761
18233TIP3   OH276113   2.406   5.910   5.865  0.0371 -0.0943 -0.4281
18233TIP3    H176114   2.358   5.909   5.782  0.7777  2.8912 -0.9475
18233TIP3    H276115   2.338   5.905   5.932 -0.7645  0.4697 -1.1857
18234TIP3   OH276116   4.269   5.106   0.762  0.0790 -0.3860  0.5244
18234TIP3    H176117   4.307   5.078   0.678 -0.6600 -0.5252  0.2349
18234TIP3    H276118   4.324   5.180   0.789 -0.9092  0.9736 -1.0911
18235TIP3   OH276119   0.002   0.462   0.145  0.0192 -0.4370 -0.4184
18235TIP3    H176120  -0.088   0.444   0.118 -0.2379  0.9342 -0.5082
18235TIP3    H276121   0.055   0.443   0.068 -0.3344  0.0205 -0.7746
18236TIP3   OH276122   0.408   6.106   3.680  0.2304 -0.2709  0.7574
18236TIP3    H176123   0.419   6.081   3.772 -2.2462 -2.4872  0.4931
18236TIP3    H276124   0.319   6.080   3.658  1.1277 -0.7629 -2.6108
18237TIP3   OH276125   1.033   1.138  13.980  0.2795 -0.3011  0.4197
18237TIP3    H176126   0.998   1.142  13.891  0.3647  0.5883  0.4167
18237TIP3    H276127   1.122   1.174  13.972  1.1693 -2.4326  0.4421
18238TIP3   OH276128   6.547   3.004  11.621  0.0673  0.1927 -0.5742
18238TIP3    H176129   6.567   2.953  11.700 -0.4664  0.1922 -0.4316
18238TIP3    H276130   6.599   2.963  11.552 -2.3345 -2.2391 -1.0386
18239TIP3   OH276131   1.196   1.671  10.629 -0.9161  0.6792 -0.6633
18239TIP3    H176132   1.153   1.603  10.576  0.5346 -1.3678  0.7002
18239TIP3    H276133   1.263   1.707  10.571 -0.7693 -0.0369 -0.9516
18240TIP3   OH276134   1.265   4.201   0.200 -0.3029 -0.1378  0.1945
18240TIP3    H176135   1.345   4.232   0.242  1.5334 -0.3959 -2.9209
18240TIP3    H276136   1.244   4.268   0.136 -1.1556 -1.2465 -0.7224
18241TIP3   OH276137   2.633   1.926   5.447 -0.0221 -0.5326  0.2050
18241TIP3    H176138   2.587   1.992   5.500  0.5764 -0.3376  0.4859
18241TIP3    H276139   2.723   1.928   5.479  0.3453 -0.4377 -0.7986
18242TIP3   OH276140   3.742   3.086  12.328 -0.4378  0.4891 -0.0815
18242TIP3    H176141   3.743   3.133  12.245  1.2406 -1.2135 -1.0454
18242TIP3    H276142   3.649   3.068  12.344 -0.7724  0.8405 -1.5624
18243TIP3   OH276143   6.107   6.325   5.360 -0.2095 -0.0200  0.0199
18243TIP3    H176144   6.109   6.236   5.327 -0.1635  0.2765 -0.7823
18243TIP3    H276145   6.131   6.379   5.285  4.0383  0.3842  1.5913
18244TIP3   OH276146   1.966   6.584  11.912 -0.7114  0.7954 -0.2362
18244TIP3    H176147   2.030   6.613  11.847  0.7493  1.8030  1.6196
18244TIP3    H276148   1.913   6.661  11.929 -1.1863  0.4901 -0.3268
18245TIP3   OH276149   3.262   4.026  16.145  1.0043  0.0150 -0.6537
18245TIP3    H176150   3.268   3.940  16.104  1.4853 -0.5243  0.5086
18245TIP3    H276151   3.205   4.077  16.087 -1.1718 -1.8024 -0.1935
18246TIP3   OH276152   3.417   0.054   2.864 -0.5648  0.0395 -0.9824
18246TIP3    H176153   3.489   0.109   2.893  1.1343 -3.3174  1.5402
18246TIP3    H276154   3.451   0.009   2.786 -0.5569 -0.2819 -0.7933
18247TIP3   OH276155   1.984   4.927   1.087  0.2503 -0.1158 -0.1710
18247TIP3    H176156   2.014   4.991   1.152  2.3248  1.1021 -2.2506
18247TIP3    H276157   2.031   4.846   1.108  1.0038  0.3115 -0.2187
18248TIP3   OH276158   5.988   5.638  16.957  0.1890  0.2275  0.0636
18248TIP3    H176159   5.984   5.542  16.962 -0.3610  0.3057  1.5690
18248TIP3    H276160   5.907   5.667  17.001 -0.8407  1.3449 -2.4904
18249TIP3   OH276161   0.518   4.140   0.884 -0.0232 -0.0308 -0.1017
18249TIP3    H176162   0.508   4.046   0.900  0.3548  0.0625  0.7101
18249TIP3    H276163   0.482   4.181   0.963 -2.9332  0.5976 -1.6860
18250TIP3   OH276164   3.205   0.967  16.765 -0.4791  0.1448  0.2903
18250TIP3    H176165   3.151   1.039  16.733  0.9516  1.2084  0.2435
18250TIP3    H276166   3.216   0.910  16.689 -1.9188 -0.3343  0.4237
18251TIP3   OH276167   0.178   1.640  11.440  0.1581 -0.0448  0.3201
18251TIP3    H176168   0.261   1.603  11.468  0.7775  1.4008  0.4145
18251TIP3    H276169   0.162   1.601  11.353  0.5302 -0.9227  0.6410
18252TIP3   OH276170   4.531   1.493   1.186  0.0124 -0.5735  0.4284
18252TIP3    H176171   4.475   1.568   1.168  0.0413 -1.0503 -1.8208
18252TIP3    H276172   4.475   1.430   1.231 -0.5645 -0.0371  0.4565
18253TIP3   OH276173   4.091   4.852  12.640  0.0427  0.1500  0.4498
18253TIP3    H176174   4.168   4.841  12.584  1.2134  1.2380  1.7891
18253TIP3    H276175   4.052   4.764  12.645 -0.3706  0.1421 -2.4044
18254TIP3   OH276176   1.536   3.617   4.630 -0.1843 -0.1482 -0.0631
18254TIP3    H176177   1.503   3.532   4.659 -0.1681 -0.2962 -0.4756
18254TIP3    H276178   1.460   3.674   4.633 -0.2770 -0.2673 -0.1421
18255TIP3   OH276179   3.456   5.859  11.935 -0.0579 -0.2854 -0.1698
18255TIP3    H176180   3.426   5.921  11.869  0.7371 -1.1488 -1.3662
18255TIP3    H276181   3.463   5.776  11.888  2.5274 -0.4779  0.4489
18256TIP3   OH276182   2.485   3.944   0.347 -0.5561 -0.2005  0.8259
18256TIP3    H176183   2.565   3.971   0.302 -0.9801  1.4095  1.0138
18256TIP3    H276184   2.423   3.924   0.276 -0.8035  1.0577  0.6809
18257TIP3   OH276185   2.214   3.295   4.419  0.1076 -0.0779  0.1010
18257TIP3    H176186   2.295   3.272   4.373 -1.0447  0.2852 -2.1546
18257TIP3    H276187   2.145   3.250   4.370 -1.0586 -0.5335  2.1117
18258TIP3   OH276188   2.314   2.009   5.803  0.4642 -0.1717  0.1659
18258TIP3    H176189   2.387   1.979   5.856  0.7259 -0.7666 -0.5263
18258TIP3    H276190   2.338   2.098   5.777  0.2195  0.2161  1.2443
18259TIP3   OH276191   0.161   2.155  15.106  0.3141  0.2593  0.3746
18259TIP3    H176192   0.172   2.073  15.059  0.4231  2.0134 -2.7740
18259TIP3    H276193   0.068   2.158  15.129 -0.2052  0.3498 -1.6576
18260TIP3   OH276194   3.924   1.932  10.801  0.2997  0.5688  0.3343
18260TIP3    H176195   3.840   1.889  10.818 -0.4651  2.2541  0.8743
18260TIP3    H276196   3.933   1.928  10.706 -0.6791  0.9049  0.2179
18261TIP3   OH276197   0.783   5.804   1.046  0.5348 -0.8593  0.4542
18261TIP3    H176198   0.771   5.709   1.052  1.8746 -1.0589  0.0607
18261TIP3    H276199   0.732   5.839   1.119  0.5117 -1.9246  0.9574
18262TIP3   OH276200   4.459   1.549   3.007 -0.2850 -0.1242  0.1371
18262TIP3    H176201   4.490   1.536   3.096  0.6089  0.4382 -0.0904
18262TIP3    H276202   4.529   1.516   2.951 -0.6424 -0.0561 -0.3618
18263TIP3   OH276203   5.276   6.252  17.142 -0.1298  0.6136 -0.1108
18263TIP3    H176204   5.230   6.172  17.170  1.1165 -0.4794 -1.1093
18263TIP3    H276205   5.252   6.262  17.050  1.8155 -0.1188 -0.7133
18264TIP3   OH276206   4.735   3.848   2.680 -0.2436 -0.5663 -0.1523
18264TIP3    H176207   4.794   3.840   2.605  0.6627 -1.4309  0.6327
18264TIP3    H276208   4.716   3.941   2.686  2.5105 -0.0267  0.6768
18265TIP3   OH276209   6.256   2.702   3.341 -0.4887 -0.1173 -0.3465
18265TIP3    H176210   6.239   2.776   3.399 -1.0933 -0.3735 -0.1824
18265TIP3    H276211   6.276   2.629   3.401 -2.0683 -0.6221 -0.3979
18266TIP3   OH276212   6.204   1.458   4.986  0.1074 -0.3884  0.0042
18266TIP3    H176213   6.256   1.500   4.918  0.6689 -1.4650 -0.2543
18266TIP3    H276214   6.196   1.523   5.055  2.5546 -0.4978  0.4361
18267TIP3   OH276215   5.385   0.836  11.615  0.5468 -0.0161 -0.5867
18267TIP3    H176216   5.429   0.777  11.676 -0.6649 -0.0014  0.3084
18267TIP3    H276217   5.374   0.918  11.664  2.4844  1.0942 -1.9128
18268TIP3   OH276218   6.074   5.780  11.002  0.3738 -0.8151 -0.0915
18268TIP3    H176219   6.062   5.728  10.923  0.0461  0.2793 -0.7683
18268TIP3    H276220   5.996   5.835  11.008  1.2274  0.4142 -0.0087
18269TIP3   OH276221   0.710   2.833  13.422  0.0294 -0.0564  0.5182
18269TIP3    H176222   0.744   2.789  13.344  1.1975  0.9434  0.4578
18269TIP3    H276223   0.669   2.763  13.473 -0.4067 -0.7856 -0.7960
18270TIP3   OH276224   4.724   4.237   5.628  0.0477  0.2204  0.1950
18270TIP3    H176225   4.685   4.236   5.716 -0.7848  1.5865 -0.1384
18270TIP3    H276226   4.780   4.314   5.628  0.3933 -0.0324 -0.3233
18271TIP3   OH276227   4.989   1.262  12.975  0.1723 -0.3917  0.6749
18271TIP3    H176228   5.028   1.345  12.947 -0.3695 -0.7508 -1.2291
18271TIP3    H276229   4.898   1.267  12.945 -0.1960 -1.1799  1.6189
18272TIP3   OH276230   1.981   1.045   2.925  0.2484 -0.2173 -0.3684
18272TIP3    H176231   1.967   1.123   2.979  1.3117 -0.6087  0.4929
18272TIP3    H276232   1.899   0.996   2.932  0.5965 -0.5958  1.4731
18273TIP3   OH276233   3.493   6.353  11.282 -0.4889 -0.1666  0.2575
18273TIP3    H176234   3.581   6.341  11.317 -0.4597  1.3900  0.7469
18273TIP3    H276235   3.505   6.358  11.187  0.2783  2.5359  0.4544
18274TIP3   OH276236   3.327   3.307  13.170 -0.5252  0.1036  0.4138
18274TIP3    H176237   3.256   3.275  13.115  0.2096 -2.2160  0.7683
18274TIP3    H276238   3.316   3.262  13.253  0.8160  0.4234  0.7846
18275TIP3   OH276239   6.185   3.149   5.815 -0.4388 -0.3823  0.0802
18275TIP3    H176240   6.109   3.191   5.774 -1.2529 -0.2471  1.6965
18275TIP3    H276241   6.202   3.072   5.760 -0.9858  0.2356 -0.9845
18276TIP3   OH276242   5.415   0.592   1.336  0.1611  0.3486 -0.0305
18276TIP3    H176243   5.365   0.669   1.308  0.3376  0.4254 -0.1372
18276TIP3    H276244   5.506   0.622   1.335  0.1970  0.2540  0.3019
18277TIP3   OH276245   3.792   3.795  15.414 -0.3335  0.1091 -0.0069
18277TIP3    H176246   3.877   3.832  15.392  0.4980 -1.4603  0.4215
18277TIP3    H276247   3.802   3.701  15.397 -0.6576 -0.7171  3.8629
18278TIP3   OH276248   4.058   3.940   5.846  0.1389 -0.0196 -0.6184
18278TIP3    H176249   4.006   3.983   5.914 -1.4207  0.4005 -2.0357
18278TIP3    H276250   4.100   4.011   5.799  0.6064 -0.2669 -0.5721
18279TIP3   OH276251   5.544   0.222   4.403 -0.0127 -0.3546  0.3971
18279TIP3    H176252   5.531   0.316   4.416  1.0631  0.0214 -1.0895
18279TIP3    H276253   5.460   0.189   4.372 -0.4424  0.0845  1.0935
18280TIP3   OH276254   1.184   1.997   2.151 -0.2462  0.4260  0.0155
18280TIP3    H176255   1.221   1.973   2.235 -0.4808  2.5329  0.7579
18280TIP3    H276256   1.119   1.929   2.132  0.7663 -0.7909  0.8732
18281TIP3   OH276257   1.895   1.838   1.403 -0.1208 -0.1345 -0.2060
18281TIP3    H176258   1.866   1.756   1.444  3.0129 -0.4224  1.5649
18281TIP3    H276259   1.863   1.832   1.313 -4.3965 -0.9285  1.2606
18282TIP3   OH276260   5.510   5.645   5.038 -0.1854 -0.2530  1.1613
18282TIP3    H176261   5.451   5.603   5.100 -1.3306  1.0938  0.9991
18282TIP3    H276262   5.569   5.575   5.011  0.7505 -0.7210  4.2257
18283TIP3   OH276263   1.081   4.459  11.232 -0.2468 -0.0221  0.7262
18283TIP3    H176264   1.102   4.546  11.198  1.0552 -1.0646 -1.2598
18283TIP3    H276265   1.108   4.399  11.162 -1.5180 -1.9954  1.8861
18284TIP3   OH276266   3.411   6.186  15.360  0.8523  0.2257  0.3996
18284TIP3    H176267   3.378   6.151  15.277 -0.3413  0.5521  0.7311
18284TIP3    H276268   3.381   6.277  15.361  1.5656  0.4548  0.8121
18285TIP3   OH276269   0.937   0.666   0.259  0.1516 -0.7655 -0.3909
18285TIP3    H176270   0.955   0.704   0.345  1.4295 -0.4995 -0.7652
18285TIP3    H276271   0.962   0.734   0.196  0.9904 -1.6269 -1.0188
18286TIP3   OH276272   0.496   5.520   4.961  0.5215  0.2206  0.1144
18286TIP3    H176273   0.582   5.562   4.965  0.3625  0.4349  1.6767
18286TIP3    H276274   0.479   5.490   5.051 -1.2933  0.7185 -0.0325
18287TIP3   OH276275   4.792   6.465  16.354  0.6829  0.1313  0.5194
18287TIP3    H176276   4.797   6.375  16.323  0.9518  0.5938 -0.8042
18287TIP3    H276277   4.827   6.518  16.282 -3.0000  1.6378 -0.2877
18288TIP3   OH276278   1.182   0.906  15.600  0.2777 -0.3780 -0.3786
18288TIP3    H176279   1.087   0.893  15.594 -0.0025  1.0510  0.7708
18288TIP3    H276280   1.205   0.953  15.520  0.2291 -1.7844 -1.2442
18289TIP3   OH276281   1.756   2.299  15.656  0.0356 -0.0659 -0.0513
18289TIP3    H176282   1.690   2.239  15.623  0.2176 -0.1498 -0.2607
18289TIP3    H276283   1.835   2.281  15.604  0.8282 -1.3824  1.5587
18290TIP3   OH276284   5.415   1.592  12.779 -0.2998 -0.5386  0.1450
18290TIP3    H176285   5.384   1.563  12.694 -1.3051 -2.2692  1.0540
18290TIP3    H276286   5.450   1.512  12.820  1.6192  0.5756  0.7347
18291TIP3   OH276287   5.566   4.952   3.313 -0.3104  0.0433  0.0770
18291TIP3    H176288   5.599   5.007   3.242  1.6948  0.0834  0.9926
18291TIP3    H276289   5.480   4.921   3.283  0.1006  0.8266 -1.9342
18292TIP3   OH276290   3.298   1.521  12.926 -0.2505  0.0296  0.2810
18292TIP3    H176291   3.336   1.456  12.986 -1.1138 -0.5092  0.2679
18292TIP3    H276292   3.205   1.496  12.920 -0.4499  0.8747 -0.2453
18293TIP3   OH276293   0.015   4.650   0.416  0.7460 -0.1038 -0.1797
18293TIP3    H176294   0.056   4.735   0.395 -0.1092  0.1749 -0.7384
18293TIP3    H276295   0.056   4.624   0.498  0.7225  1.0588  0.2090
18294TIP3   OH276296   2.409   4.865   0.368 -0.2630 -0.3710  0.3187
18294TIP3    H176297   2.340   4.930   0.381  0.4232  0.3760  0.2887
18294TIP3    H276298   2.487   4.917   0.349  0.0828 -1.2494 -0.6568
18295TIP3   OH276299   0.502   0.140  11.915 -0.2002 -0.2802  0.0156
18295TIP3    H176300   0.564   0.133  11.842  0.7449 -0.2304  0.8066
18295TIP3    H276301   0.521   0.065  11.970 -0.0300  0.4037  0.8938
18296TIP3   OH276302   5.543   6.024   1.453 -0.6973  0.0760  0.3480
18296TIP3    H176303   5.560   6.074   1.533 -0.0415  0.1109  0.1913
18296TIP3    H276304   5.513   5.939   1.485 -0.3299  0.0518  0.6393
18297TIP3   OH276305   2.390   1.074  14.277 -0.1886 -0.1722  1.1368
18297TIP3    H176306   2.336   1.110  14.348 -0.8117 -0.1279  0.6391
18297TIP3    H276307   2.450   1.146  14.254 -0.0991 -0.1292  1.4990
18298TIP3   OH276308   5.506   2.450  15.771  0.2837 -0.7026  0.0316
18298TIP3    H176309   5.413   2.471  15.777  0.5096  0.0442  1.2950
18298TIP3    H276310   5.529   2.419  15.858  1.3528 -0.2803 -0.0903
18299TIP3   OH276311   2.982   4.905   0.229  0.2384 -0.3075 -0.1793
18299TIP3    H176312   2.945   4.827   0.270  0.0317 -0.0743  0.0876
18299TIP3    H276313   2.999   4.964   0.303  0.7102 -0.2336 -0.3452
18300TIP3   OH276314   2.968   1.629  15.025  0.4104  0.0903  0.1869
18300TIP3    H176315   2.944   1.653  14.935 -1.2239  0.3744  0.6922
18300TIP3    H276316   3.031   1.697  15.051  1.9364 -0.7385 -1.1860
18301TIP3   OH276317   4.077   6.067  15.041 -0.3298  0.0607  0.2626
18301TIP3    H176318   4.021   6.056  15.118 -0.2636 -2.2406  0.0214
18301TIP3    H276319   4.060   6.156  15.011 -2.9914 -0.2224  0.8671
18302TIP3   OH276320   1.790   4.415   4.319 -0.0182 -0.0128 -0.3793
18302TIP3    H176321   1.750   4.446   4.238 -1.3082  0.2659  0.3536
18302TIP3    H276322   1.717   4.386   4.373  0.9739 -1.8866 -0.0040
18303TIP3   OH276323   1.219   0.162   2.305 -0.1027 -0.1311  0.0890
18303TIP3    H176324   1.284   0.111   2.257 -1.7923 -0.9383 -1.3656
18303TIP3    H276325   1.258   0.174   2.392  2.5880  0.5868 -1.1544
18304TIP3   OH276326   2.210   4.063   2.314  0.0397  0.2851 -0.1845
18304TIP3    H176327   2.228   4.087   2.223  0.4451 -1.4874 -0.5815
18304TIP3    H276328   2.157   3.984   2.309  0.5463 -0.1612  1.1378
18305TIP3   OH276329   3.630   0.440  14.684  0.3875  0.1846  0.5479
18305TIP3    H176330   3.538   0.429  14.707 -0.0871  0.4688 -1.1396
18305TIP3    H276331   3.628   0.477  14.596  2.1038  1.1703  0.8945
18306TIP3   OH276332   3.114   1.479   5.255 -0.1429  0.3162  0.8318
18306TIP3    H176333   3.053   1.406   5.252 -1.2924  1.2637  0.8180
18306TIP3    H276334   3.061   1.556   5.232  0.5451  1.4854  3.0376
18307TIP3   OH276335   0.310   6.079   5.373 -0.9330  0.8269 -0.2920
18307TIP3    H176336   0.270   6.114   5.453  0.5105  0.5325  0.5671
18307TIP3    H276337   0.339   6.157   5.325  1.6277  0.8927  1.2829
18308TIP3   OH276338   3.584   1.795  11.801 -0.0207 -0.2711 -0.3131
18308TIP3    H176339   3.501   1.806  11.847  0.0738 -1.2465  0.1006
18308TIP3    H276340   3.564   1.735  11.729  0.4579 -1.0405  0.1831
18309TIP3   OH276341   3.822   5.448  13.300 -0.3495 -0.2777  0.8352
18309TIP3    H176342   3.759   5.376  13.292  0.4733 -1.2499  2.7757
18309TIP3    H276343   3.908   5.405  13.291  0.0946  0.7234  0.2794
18310TIP3   OH276344   5.888   5.143   4.542 -0.7197 -0.4126 -0.2176
18310TIP3    H176345   5.956   5.075   4.538  1.0215  0.7123  5.3531
18310TIP3    H276346   5.927   5.218   4.498 -1.0950 -1.7333 -2.9115
18311TIP3   OH276347   1.339   1.121  14.348 -0.6785 -0.0493  0.3389
18311TIP3    H176348   1.327   1.215  14.335 -0.9413 -0.1491 -0.1658
18311TIP3    H276349   1.358   1.087  14.261 -1.3948 -0.5783  0.3841
18312TIP3   OH276350   4.772   2.284   3.366  0.4731 -0.0569  0.4075
18312TIP3    H176351   4.701   2.319   3.313  0.6669 -1.0694 -0.5147
18312TIP3    H276352   4.776   2.192   3.344 -0.8568 -1.0051  3.7613
18313TIP3   OH276353   2.394   0.525   2.977  0.3643  0.1746 -0.4259
18313TIP3    H176354   2.442   0.501   3.056  0.3053 -0.5207 -0.5960
18313TIP3    H276355   2.305   0.495   2.993 -0.0135  1.4426 -0.1214
18314TIP3   OH276356   3.179   6.697  13.715  0.4318 -0.4764  0.0236
18314TIP3    H176357   3.207   6.725  13.802  1.2135  0.2551 -0.4534
18314TIP3    H276358   3.122   6.767  13.684  1.2602 -0.0639 -0.6029
18315TIP3   OH276359   2.627   5.898  12.415 -0.5413 -0.1755  0.4018
18315TIP3    H176360   2.625   5.842  12.492 -0.4940  0.2205  0.6902
18315TIP3    H276361   2.624   5.987  12.449  0.2056  0.0160 -0.0261
18316TIP3   OH276362   1.358   3.515   5.146 -0.2791 -0.2559  0.7435
18316TIP3    H176363   1.425   3.497   5.213  0.3956 -0.3882  0.0342
18316TIP3    H276364   1.392   3.475   5.066 -1.9637 -1.7383  0.7441
18317TIP3   OH276365   5.231   2.712  13.599  0.0659 -0.6337  0.3455
18317TIP3    H176366   5.212   2.777  13.666  0.8777 -0.3417  0.3073
18317TIP3    H276367   5.311   2.669  13.629 -0.6014 -1.7743  0.4812
18318TIP3   OH276368   6.455   2.266  11.243  0.2409  0.1741  0.1226
18318TIP3    H176369   6.392   2.334  11.223  2.4732  2.2635 -0.0119
18318TIP3    H276370   6.528   2.312  11.285  2.2546 -1.9631 -0.9208
18319TIP3   OH276371   5.114   2.159  14.574  0.3272 -0.0281 -0.2020
18319TIP3    H176372   5.077   2.200  14.495  1.2303 -0.7633 -1.0177
18319TIP3    H276373   5.100   2.065  14.561 -1.3676 -0.0318  1.4818
18320TIP3   OH276374   2.357   5.191  13.730 -0.0730 -0.4032 -0.1406
18320TIP3    H176375   2.292   5.224  13.667 -0.6386 -0.4461  0.4190
18320TIP3    H276376   2.429   5.161  13.675 -0.1143  0.5265 -0.7288
18321TIP3   OH276377   2.911   5.262   1.095  0.1590  0.5710  0.2579
18321TIP3    H176378   2.947   5.254   1.007  0.2274  0.3129  0.3085
18321TIP3    H276379   2.968   5.325   1.139  0.6108  0.0886  0.3683
18322TIP3   OH276380   0.706   5.195   4.632 -0.1642  0.0307 -0.0699
18322TIP3    H176381   0.650   5.248   4.689  0.4524  0.8741 -0.2440
18322TIP3    H276382   0.762   5.146   4.692  0.8927  1.3605  0.0585
18323TIP3   OH276383   0.165   0.732  14.949 -0.0076  0.0401 -0.7808
18323TIP3    H176384   0.195   0.664  14.889  0.0710 -1.3438  0.7872
18323TIP3    H276385   0.076   0.707  14.972 -0.2030  0.8098 -0.6902
18324TIP3   OH276386   1.618   6.033   2.800 -0.3053  0.0900  0.1214
18324TIP3    H176387   1.569   5.952   2.809  0.7839 -0.4736  1.1860
18324TIP3    H276388   1.709   6.009   2.818 -0.0631  1.6775  1.1607
18325TIP3   OH276389   0.597   2.797   5.376 -0.4850  0.0734  0.4790
18325TIP3    H176390   0.587   2.767   5.286  0.3350 -0.2736  0.5021
18325TIP3    H276391   0.541   2.739   5.427 -1.2181  0.4880  0.1573
18326TIP3   OH276392   3.749   1.216  14.298  0.3030  0.1068  0.2142
18326TIP3    H176393   3.718   1.155  14.231 -1.1927  1.4278 -0.3473
18326TIP3    H276394   3.780   1.292  14.249  3.3703 -0.6911  0.8458
18327TIP3   OH276395   6.199   1.462  16.759 -0.4534  0.1389  0.3579
18327TIP3    H176396   6.248   1.424  16.686 -0.4291 -0.0722  0.4845
18327TIP3    H276397   6.227   1.410  16.835 -1.5283 -0.5554  0.2942
18328TIP3   OH276398   6.299   1.264  13.408 -0.5696  0.3834  0.9243
18328TIP3    H176399   6.393   1.267  13.392 -0.4943  1.0598  1.4815
18328TIP3    H276400   6.264   1.337  13.356 -1.0215 -1.0409 -0.8194
18329TIP3   OH276401   2.998   4.553   3.292  0.4977  0.6014 -0.0752
18329TIP3    H176402   3.069   4.617   3.299  1.1701 -0.2166  0.6506
18329TIP3    H276403   3.027   4.479   3.345 -0.7073  0.0831 -0.1261
18330TIP3   OH276404   4.578   6.698   1.854 -0.4781 -0.6669 -0.0159
18330TIP3    H176405   4.639   6.629   1.826 -0.7452 -0.8061 -0.2511
18330TIP3    H276406   4.588   6.700   1.950  0.6446  0.0105 -0.1327
18331TIP3   OH276407   6.768   5.164  15.899 -0.2714  0.5871 -0.3268
18331TIP3    H176408   6.735   5.240  15.948  0.2498  1.6839 -1.6390
18331TIP3    H276409   6.843   5.198  15.850  0.7666 -1.0911  0.0448
18332TIP3   OH276410   5.362   6.340  16.204  0.2342  0.2867 -0.2526
18332TIP3    H176411   5.414   6.390  16.266  0.1589  0.2893 -0.1906
18332TIP3    H276412   5.296   6.402  16.173  0.7883  0.5389 -0.9694
18333TIP3   OH276413   0.060   2.158   4.135  0.3159  0.2780 -0.4231
18333TIP3    H176414   0.021   2.071   4.128  0.0633  0.0200  3.2847
18333TIP3    H276415   0.153   2.140   4.152  0.8887  0.8119 -2.8345
18334TIP3   OH276416   5.057   4.498  12.946 -0.3409  0.3397  0.2250
18334TIP3    H176417   5.094   4.466  13.028  0.7300  1.3849  0.1630
18334TIP3    H276418   5.067   4.426  12.885  0.2943  0.1032  0.6029
18335TIP3   OH276419   6.330   3.182   6.045  0.2911  0.3150  0.0480
18335TIP3    H176420   6.284   3.202   5.964  0.8333  0.3135 -0.2658
18335TIP3    H276421   6.400   3.247   6.051  1.3414 -0.7394 -0.3908
18336TIP3   OH276422   1.979   5.137   5.555 -0.1150 -0.0738  0.8359
18336TIP3    H176423   1.897   5.097   5.527 -1.1815  0.8808  2.4931
18336TIP3    H276424   1.978   5.128   5.651  1.6548  0.0482  0.8711
18337TIP3   OH276425   4.307   0.429  17.164 -0.1994 -0.1395  0.0109
18337TIP3    H176426   4.345   0.352  17.206 -1.3094  0.0485  1.3915
18337TIP3    H276427   4.377   0.495  17.166  0.8519 -1.1890 -1.4512
18338TIP3   OH276428   4.868   5.676   5.065 -0.6061 -0.7703 -0.3765
18338TIP3    H176429   4.802   5.639   5.006 -2.0672 -1.0412  1.4167
18338TIP3    H276430   4.872   5.615   5.138  0.2667  0.2533  0.4409
18339TIP3   OH276431   0.717   0.968  12.198  0.0957  0.5934  0.1540
18339TIP3    H176432   0.812   0.964  12.205  0.0632 -0.3982  0.0969
18339TIP3    H276433   0.692   0.881  12.165 -0.9277  0.4065  1.4062
18340TIP3   OH276434   1.629   0.824   1.251  0.0925 -0.4775 -0.4762
18340TIP3    H176435   1.685   0.875   1.310  0.1866 -0.3560 -0.6692
18340TIP3    H276436   1.690   0.791   1.184  0.0603 -0.9771 -0.2598
18341TIP3   OH276437   4.452   6.237  14.963 -0.1952  0.1677 -0.4006
18341TIP3    H176438   4.531   6.245  14.909  0.2964 -0.7748  0.1469
18341TIP3    H276439   4.464   6.154  15.009 -2.5274 -1.1004 -1.9676
18342TIP3   OH276440   0.684   1.847   3.072  0.1871 -0.0587  0.3481
18342TIP3    H176441   0.700   1.818   3.162 -0.2418 -0.7376  0.2072
18342TIP3    H276442   0.680   1.943   3.078  1.4351 -0.0326  0.8377
18343TIP3   OH276443   5.306   2.280  11.558 -0.0827 -0.2678 -0.0262
18343TIP3    H176444   5.282   2.369  11.533 -0.9004 -0.8905 -1.5911
18343TIP3    H276445   5.263   2.266  11.643 -1.1949  0.3348 -0.4746
18344TIP3   OH276446   0.580   5.420   0.864  0.1450  0.1771  0.5911
18344TIP3    H176447   0.650   5.356   0.851 -0.1594  0.1674 -1.1474
18344TIP3    H276448   0.611   5.476   0.935  2.2729  0.6441 -0.6596
18345TIP3   OH276449   4.576   1.661  11.810 -0.0130 -0.0181 -0.2971
18345TIP3    H176450   4.559   1.570  11.786  1.5588  0.0563 -1.7534
18345TIP3    H276451   4.589   1.658  11.905  0.0941 -1.3182 -0.3361
18346TIP3   OH276452   3.535   2.411  15.470 -0.1949 -0.4460 -0.4771
18346TIP3    H176453   3.628   2.435  15.468 -0.2058 -0.3792 -0.2343
18346TIP3    H276454   3.535   2.317  15.484 -0.1629 -0.4406 -0.4398
18347TIP3   OH276455   2.775   6.722   5.523 -0.4577 -0.1960 -0.8446
18347TIP3    H176456   2.833   6.653   5.556 -1.6488 -0.1662  1.4153
18347TIP3    H276457   2.705   6.727   5.588 -0.1516  3.4515 -0.7236
18348TIP3   OH276458   2.816   4.259   4.454  0.3599 -0.1268  0.1326
18348TIP3    H176459   2.863   4.286   4.375  2.0032 -0.2896  1.0176
18348TIP3    H276460   2.749   4.326   4.466  1.9485  1.5053  0.1770
18349TIP3   OH276461   6.728   1.911   4.110 -0.0066  0.2364  0.1058
18349TIP3    H176462   6.799   1.850   4.130 -0.0892  0.3801  0.8503
18349TIP3    H276463   6.666   1.900   4.182 -1.2380 -0.6245 -1.0626
18350TIP3   OH276464   0.133   6.083   0.627 -0.3430 -0.2228 -0.7219
18350TIP3    H176465   0.197   6.118   0.689  0.3494  0.2343 -1.6605
18350TIP3    H276466   0.174   6.003   0.594 -0.8171 -0.5948 -0.4006
18351TIP3   OH276467   3.177   1.784  16.985 -1.0681 -0.1566  0.5665
18351TIP3    H176468   3.177   1.734  16.903  0.7352  1.0731 -0.2136
18351TIP3    H276469   3.231   1.732  17.045  0.3192  0.5099 -0.0656
18352TIP3   OH276470   1.231   1.849  14.134  0.0862  0.3128 -0.6895
18352TIP3    H176471   1.325   1.859  14.146  0.2660  0.2472 -1.9805
18352TIP3    H276472   1.203   1.797  14.210  0.7218  2.0855  0.8133
18353TIP3   OH276473   3.360   3.488   1.710 -0.2502  0.3162 -0.1625
18353TIP3    H176474   3.288   3.519   1.766 -0.9368 -0.7223 -0.4609
18353TIP3    H276475   3.432   3.549   1.729 -1.2308  1.4385  0.0557
18354TIP3   OH276476   2.753   0.637  15.657  0.0741  0.1712 -0.1512
18354TIP3    H176477   2.802   0.556  15.671 -1.0636 -0.5101 -0.0659
18354TIP3    H276478   2.695   0.618  15.584 -1.3540  0.3636  0.8990
18355TIP3   OH276479   3.184   2.541  14.060 -0.3363 -0.3541  0.0707
18355TIP3    H176480   3.231   2.587  13.991  0.9079 -2.3486 -0.4394
18355TIP3    H276481   3.151   2.461  14.018 -0.7024 -0.9400  1.4328
18356TIP3   OH276482   1.995   2.361  14.728  0.1607 -0.8700 -0.1678
18356TIP3    H176483   2.032   2.415  14.797  0.9197 -2.7422  0.9455
18356TIP3    H276484   1.914   2.327  14.765  0.5447 -1.8465 -0.2074
18357TIP3   OH276485   5.468   3.779  11.146 -0.2388  0.0903  0.2107
18357TIP3    H176486   5.445   3.695  11.106  1.6918 -1.5155  2.3709
18357TIP3    H276487   5.436   3.773  11.236  0.4699  1.4036  0.5705
18358TIP3   OH276488   5.505   5.531  14.147 -0.0092 -0.2998  0.2460
18358TIP3    H176489   5.472   5.597  14.086  0.4927  1.0928  1.4554
18358TIP3    H276490   5.499   5.573  14.233 -1.3216 -2.4816  1.2372
18359TIP3   OH276491   0.206   5.293   3.837 -0.1380 -0.2569  0.1153
18359TIP3    H176492   0.127   5.347   3.842 -1.1219 -1.7878  2.0589
18359TIP3    H276493   0.208   5.261   3.747  0.3000  2.6967 -1.0023
18360TIP3   OH276494   2.752   6.573   4.861  0.1959  0.3618  0.1324
18360TIP3    H176495   2.714   6.621   4.787 -0.6561 -1.6763 -0.8153
18360TIP3    H276496   2.814   6.513   4.820  1.1694  0.5744  1.2801
18361TIP3   OH276497   3.100   2.453  13.598  0.0071 -0.3102 -0.1234
18361TIP3    H176498   3.039   2.437  13.526 -1.7932 -0.1374  1.3435
18361TIP3    H276499   3.094   2.547  13.615 -1.5294 -0.7325  1.9234
18362TIP3   OH276500   2.538   0.098  12.652  0.1289  0.6451  0.1941
18362TIP3    H176501   2.623   0.141  12.647  0.8670 -0.9216 -1.3247
18362TIP3    H276502   2.487   0.136  12.579 -0.3262  1.2496  0.8211
18363TIP3   OH276503   3.060   3.361   2.671  0.1348 -0.4865  0.5791
18363TIP3    H176504   3.093   3.450   2.666  0.7398 -0.6616  1.3376
18363TIP3    H276505   3.129   3.307   2.632 -0.4615 -0.5748 -0.3769
18364TIP3   OH276506   2.448   1.464  13.321  0.3641  0.3634  0.2957
18364TIP3    H176507   2.505   1.540  13.332 -0.0614  1.0057 -1.7665
18364TIP3    H276508   2.439   1.428  13.410  3.0705  0.8832  0.8163
18365TIP3   OH276509   0.859   3.528   0.167  0.3963 -0.0905 -0.2431
18365TIP3    H176510   0.885   3.483   0.087 -0.2943 -0.4471 -0.2669
18365TIP3    H276511   0.938   3.576   0.194  0.8497 -0.5566 -0.7281
18366TIP3   OH276512   0.109   3.580   5.163  0.6602 -0.2202 -0.2873
18366TIP3    H176513   0.189   3.553   5.119 -0.0424 -2.1924 -0.4056
18366TIP3    H276514   0.068   3.498   5.191 -1.6822  0.6822 -0.8925
18367TIP3   OH276515   1.263   5.706   4.802  0.3392 -0.0392 -0.2482
18367TIP3    H176516   1.283   5.794   4.769 -0.4748  0.2109 -0.0844
18367TIP3    H276517   1.282   5.648   4.728 -2.0884  0.5820 -1.4283
18368TIP3   OH276518   3.776   3.063   6.222  0.1728 -0.2478  0.2759
18368TIP3    H176519   3.713   3.045   6.291 -1.9291  0.7929 -1.3049
18368TIP3    H276520   3.724   3.066   6.142  2.2326  0.7404 -1.0820
18369TIP3   OH276521   0.938   2.684   1.190  0.2447 -0.0318  0.0361
18369TIP3    H176522   0.912   2.776   1.198 -4.3481 -1.0481 -1.6624
18369TIP3    H276523   0.990   2.680   1.110 -2.2494  0.6050 -1.6572
18370TIP3   OH276524   0.001   4.194  13.628  0.1178  0.1488 -0.1066
18370TIP3    H176525   0.012   4.268  13.568  0.9534  0.0899 -0.0377
18370TIP3    H276526  -0.092   4.196  13.652 -0.2575  0.0766 -1.5029
18371TIP3   OH276527   5.604   3.197  12.503 -0.3491 -0.0767  0.2449
18371TIP3    H176528   5.603   3.113  12.548  1.7672  0.3294  1.1022
18371TIP3    H276529   5.611   3.175  12.410 -1.2039 -0.8445  0.3521
18372TIP3   OH276530   2.633   3.019   2.784  0.1525  0.0410 -0.2127
18372TIP3    H176531   2.581   3.088   2.825 -0.6840 -1.1719  0.8408
18372TIP3    H276532   2.723   3.050   2.789 -0.1453  0.7729  0.8377
18373TIP3   OH276533   6.134   3.523   4.264  0.0372 -0.6088  0.0278
18373TIP3    H176534   6.129   3.491   4.354 -0.8918 -0.5876 -0.0022
18373TIP3    H276535   6.206   3.586   4.264  1.6052 -2.3675  0.1887
18374TIP3   OH276536   4.965   5.360   3.219  0.1203 -0.4194 -0.0351
18374TIP3    H176537   4.963   5.368   3.124 -0.6174  0.5605  0.0468
18374TIP3    H276538   4.897   5.296   3.240  0.3800 -0.7400 -0.1777
18375TIP3   OH276539   5.995   2.419  14.181 -0.2849 -0.3262 -0.2390
18375TIP3    H176540   6.015   2.451  14.093  1.2276  0.5876  0.4334
18375TIP3    H276541   5.903   2.443  14.194 -0.7226 -1.0504 -1.8081
18376TIP3   OH276542   3.223   3.970   4.604  0.9974  0.5539 -0.0481
18376TIP3    H176543   3.285   3.981   4.532 -1.1746 -0.5062 -2.1433
18376TIP3    H276544   3.159   4.040   4.592  1.2110  1.0305  1.4954
18377TIP3   OH276545   5.249   4.845   1.050  0.3371 -0.3861  0.1551
18377TIP3    H176546   5.330   4.813   1.091  0.5160  0.2554  0.3206
18377TIP3    H276547   5.265   4.839   0.956  1.3067  1.4963  0.1806
18378TIP3   OH276548   6.099   2.558   4.175 -0.3523  0.2816  0.6415
18378TIP3    H176549   6.151   2.492   4.221 -1.4545 -3.1491 -2.7472
18378TIP3    H276550   6.163   2.604   4.121  0.2940  1.4912  2.3887
18379TIP3   OH276551   4.847   1.014  16.406  0.4507  0.0802  0.5211
18379TIP3    H176552   4.810   0.989  16.321 -1.3105  3.3741  0.2386
18379TIP3    H276553   4.889   1.099  16.390  2.1393 -0.3509  2.4354
18380TIP3   OH276554   5.705   2.614  10.745 -0.5326  0.1580  0.2406
18380TIP3    H176555   5.637   2.590  10.681 -1.1701  0.5452  0.7562
18380TIP3    H276556   5.745   2.531  10.770  0.3105  0.0814 -1.2988
18381TIP3   OH276557   6.286   1.511   3.466 -0.3076 -0.3680  0.2091
18381TIP3    H176558   6.272   1.420   3.439  3.1363 -1.1579  0.7916
18381TIP3    H276559   6.290   1.560   3.383 -1.6166 -0.8113 -0.1309
18382TIP3   OH276560   0.351   4.448   3.766  0.1054 -0.0889 -0.0111
18382TIP3    H176561   0.426   4.442   3.825  0.1911 -0.0898 -0.1194
18382TIP3    H276562   0.296   4.516   3.804 -0.0075 -0.3337  0.2573
18383TIP3   OH276563   5.751   6.191   5.760  0.2629  0.0493 -0.2058
18383TIP3    H176564   5.703   6.135   5.698  0.7655 -1.6443  0.8884
18383TIP3    H276565   5.722   6.161   5.846 -0.0102  2.0157  0.3920
18384TIP3   OH276566   6.477   5.404  17.081  0.4165  0.4705 -0.1655
18384TIP3    H176567   6.559   5.406  17.033  0.2778  1.8849 -0.3705
18384TIP3    H276568   6.435   5.488  17.060 -0.0078  0.7739  1.7555
18385TIP3   OH276569   6.028   1.985  15.528  0.1113  0.1293  0.1018
18385TIP3    H176570   5.968   2.054  15.556 -1.6488 -0.9109 -0.9784
18385TIP3    H276571   6.047   1.935  15.608 -0.1870  0.6820  0.5200
18386TIP3   OH276572   4.813   5.019   3.605 -0.0364 -0.4622 -0.4886
18386TIP3    H176573   4.863   4.937   3.596  4.0720  2.1162 -2.4922
18386TIP3    H276574   4.825   5.063   3.521 -0.0104  3.3523  1.4410
18387TIP3   OH276575   1.182   0.535  16.035 -0.0466 -0.1235 -0.7778
18387TIP3    H176576   1.143   0.451  16.011  1.3693 -1.4369  1.4136
18387TIP3    H276577   1.238   0.557  15.960 -1.2162 -0.6011 -1.8108
18388TIP3   OH276578   2.340   0.785  13.241  0.2358 -0.5524  0.0376
18388TIP3    H176579   2.333   0.847  13.314  0.5158 -0.9296  0.3864
18388TIP3    H276580   2.423   0.807  13.199 -0.0449 -0.1683 -0.3279
18389TIP3   OH276581   3.500   1.376   1.633 -0.2124 -0.2830 -0.5317
18389TIP3    H176582   3.508   1.398   1.541  0.3748 -0.7397 -0.5976
18389TIP3    H276583   3.502   1.280   1.635  1.2119 -0.2533  0.0639
18390TIP3   OH276584   4.116   3.280  13.844  0.4495  0.0122 -0.4037
18390TIP3    H176585   4.078   3.349  13.897  0.3315 -0.1407 -0.2882
18390TIP3    H276586   4.119   3.316  13.756 -1.5662 -0.5958 -0.7440
18391TIP3   OH276587   4.263   3.018   6.112  0.0949  0.3294  0.8653
18391TIP3    H176588   4.209   2.987   6.185 -0.5587  0.9665  0.6629
18391TIP3    H276589   4.336   2.957   6.108 -1.7851 -1.8962 -0.3125
18392TIP3   OH276590   3.617   2.094   0.128 -0.2687 -0.1883 -0.5476
18392TIP3    H176591   3.619   2.179   0.083  0.8156  0.1448  0.1031
18392TIP3    H276592   3.569   2.112   0.210  0.0926 -0.1671 -0.3406
18393TIP3   OH276593   3.232   1.158  12.348  0.2561  0.0015 -0.2728
18393TIP3    H176594   3.222   1.063  12.341 -0.3535 -0.0126  0.7614
18393TIP3    H276595   3.296   1.180  12.280 -0.5467 -0.9828 -1.3649
18394TIP3   OH276596   0.992   2.623   5.559  0.1222  0.0399  0.1551
18394TIP3    H176597   0.947   2.705   5.579 -1.6051 -0.0649 -2.9951
18394TIP3    H276598   1.074   2.650   5.518  0.6646  0.2042  1.3462
18395TIP3   OH276599   3.978   5.043  12.168  0.2193  0.1621 -0.2231
18395TIP3    H176600   4.008   5.134  12.165 -0.8457  0.6309  2.1703
18395TIP3    H276601   3.899   5.043  12.114  0.2837  0.6473 -0.3253
18396TIP3   OH276602   5.856   0.935  16.912  0.3078  0.0551  0.2139
18396TIP3    H176603   5.763   0.938  16.935  0.1949  1.7763 -0.4293
18396TIP3    H276604   5.859   0.881  16.833  0.1398 -1.8595  1.4700
18397TIP3   OH276605   4.910   3.351  13.436  0.4706  0.0101  0.1772
18397TIP3    H176606   4.905   3.283  13.368  0.8971 -1.3368  1.4613
18397TIP3    H276607   4.919   3.302  13.518 -2.1160  1.5310  1.4568
18398TIP3   OH276608   0.963   5.166  10.233 -0.0238 -0.2495  0.2118
18398TIP3    H176609   0.878   5.193  10.266  0.6641 -0.2608  2.0359
18398TIP3    H276610   1.006   5.248  10.207 -1.0350 -0.3496 -1.8392
18399TIP3   OH276611   6.625   5.137  11.743 -0.2039  0.5481 -0.3096
18399TIP3    H176612   6.652   5.229  11.735  1.8711 -0.0105  0.1399
18399TIP3    H276613   6.706   5.089  11.756 -1.2404 -1.4193 -0.9478
18400TIP3   OH276614   5.229   4.337  16.055 -0.1977  0.3729 -0.3852
18400TIP3    H176615   5.146   4.384  16.051  0.2813  1.2631 -0.0737
18400TIP3    H276616   5.205   4.245  16.052 -1.1301  0.6438 -1.3510
18401TIP3   OH276617   1.549   1.683  11.856  0.0974 -0.0942  0.1516
18401TIP3    H176618   1.542   1.771  11.895  1.3906 -1.1587  2.9246
18401TIP3    H276619   1.643   1.664  11.858 -0.0092 -0.9058 -1.9516
18402TIP3   OH276620   4.098   5.368   3.594  0.8496  0.3545  0.0086
18402TIP3    H176621   4.097   5.412   3.509  2.1559 -0.5630 -0.4985
18402TIP3    H276622   4.080   5.437   3.657 -0.8607  0.9182 -1.0657
18403TIP3   OH276623   3.399   5.938  14.633 -0.3795 -0.2590  0.3365
18403TIP3    H176624   3.406   6.033  14.629  2.2919 -0.4830 -0.8836
18403TIP3    H276625   3.305   5.921  14.639 -0.9541  2.4000 -0.7390
18404TIP3   OH276626   0.417   0.901   3.399  0.5738  0.7798 -0.2206
18404TIP3    H176627   0.334   0.904   3.352 -0.2584  3.0106  1.3034
18404TIP3    H276628   0.420   0.814   3.438  0.6625 -0.6260 -3.2088
18405TIP3   OH276629   0.949   4.195  16.166 -0.3915 -0.1474 -0.1741
18405TIP3    H176630   0.970   4.111  16.126  1.6905 -0.2524  1.0658
18405TIP3    H276631   1.013   4.256  16.130 -0.5070  0.4404  0.5898
18406TIP3   OH276632   6.076   0.388   5.579 -0.8755  0.9639 -0.3677
18406TIP3    H176633   6.099   0.360   5.667 -0.0129  1.5946 -0.3837
18406TIP3    H276634   5.982   0.374   5.573 -0.6651 -0.7707  0.0276
18407TIP3   OH276635   5.494   2.083   0.445 -0.0531  0.5086  0.3196
18407TIP3    H176636   5.554   2.095   0.518  0.3831 -0.2029  0.0838
18407TIP3    H276637   5.549   2.091   0.367 -0.2849  0.0018  0.0997
18408TIP3   OH276638   4.319   6.294  14.309 -0.3154 -0.3580  0.0703
18408TIP3    H176639   4.382   6.365  14.303  0.0701 -0.6609  0.5147
18408TIP3    H276640   4.247   6.331  14.361 -0.3805 -0.1064 -0.1958
18409TIP3   OH276641   5.709   3.522   0.122  0.1451 -0.3695  0.8776
18409TIP3    H176642   5.771   3.486   0.185  2.1583 -0.3379 -1.0340
18409TIP3    H276643   5.741   3.610   0.104 -0.7526 -0.1677  0.2174
18410TIP3   OH276644   2.261   6.435  13.276  0.1757 -0.0610 -0.2327
18410TIP3    H176645   2.192   6.385  13.320  0.5094  1.6800  2.3750
18410TIP3    H276646   2.227   6.524  13.271  1.5253  0.4611 -0.4423
18411TIP3   OH276647   0.890   1.725  14.881  0.0817 -0.0496 -0.6540
18411TIP3    H176648   0.983   1.707  14.900 -0.6071 -1.6291  1.5051
18411TIP3    H276649   0.872   1.808  14.925  1.0224  1.4560 -3.0344
18412TIP3   OH276650   4.228   1.199  11.034  0.4261  0.0231 -0.1777
18412TIP3    H176651   4.291   1.270  11.031  0.7740 -0.3229 -1.3046
18412TIP3    H276652   4.275   1.126  11.075  0.4821  0.0199 -0.2490
18413TIP3   OH276653   0.884   0.996  14.674  0.2748  0.4657 -0.1565
18413TIP3    H176654   0.956   1.001  14.611  1.1726 -0.7933  0.7364
18413TIP3    H276655   0.808   0.970  14.621  0.2497  2.5974 -1.2443
18414TIP3   OH276656   1.420   6.458   4.374  0.6503 -0.0892  0.8306
18414TIP3    H176657   1.333   6.419   4.374  0.5388  0.1534  0.2215
18414TIP3    H276658   1.479   6.387   4.348  0.5901 -0.1625  0.8973
18415TIP3   OH276659   0.478   0.343   0.638  0.4176  0.2876  0.0944
18415TIP3    H176660   0.488   0.355   0.732 -0.2150  1.4894  0.0190
18415TIP3    H276661   0.463   0.249   0.627  2.1494 -0.1369  1.0352
18416TIP3   OH276662   1.138   0.040   1.219 -0.1070  0.7146  0.6936
18416TIP3    H176663   1.196   0.099   1.171 -0.6961  0.4508 -0.3766
18416TIP3    H276664   1.190  -0.039   1.232  0.1704  0.9116  0.7774
18417TIP3   OH276665   1.814   4.818   1.404  0.5845 -0.2206  0.1070
18417TIP3    H176666   1.765   4.898   1.420  0.2250 -0.3287 -0.4457
18417TIP3    H276667   1.765   4.773   1.335  1.0292 -0.7008  0.1015
18418TIP3   OH276668   4.158   4.855  10.829 -0.0878  0.6923  0.6192
18418TIP3    H176669   4.133   4.867  10.738 -0.9579  0.5593  0.8354
18418TIP3    H276670   4.249   4.826  10.825 -1.1690 -2.7926 -0.3992
18419TIP3   OH276671   0.845   2.956   5.324 -0.2981 -0.1018 -0.5930
18419TIP3    H176672   0.777   2.894   5.351 -0.2657 -0.2765 -0.9112
18419TIP3    H276673   0.800   3.041   5.320  0.1048  0.2719  1.8158
18420TIP3   OH276674   3.135   0.962   4.713 -0.0841 -0.2650  0.0350
18420TIP3    H176675   3.143   0.979   4.619 -0.9779 -0.6325 -0.1094
18420TIP3    H276676   3.199   1.021   4.754 -0.8994  1.1433 -0.6798
18421TIP3   OH276677   5.962   3.332   3.066  0.4193  0.2998 -0.2593
18421TIP3    H176678   5.998   3.259   3.015 -1.6869 -0.4522 -0.7158
18421TIP3    H276679   5.879   3.352   3.023 -1.0526  0.1542  2.4088
18422TIP3   OH276680   4.845   1.992   4.106 -0.1663 -0.5592 -0.7628
18422TIP3    H176681   4.799   2.052   4.165 -0.5247  0.8161 -2.4056
18422TIP3    H276682   4.932   2.030   4.097  0.5740 -1.9243  0.5427
18423TIP3   OH276683   6.605   2.627  16.936  0.2485 -0.0527 -0.0274
18423TIP3    H176684   6.551   2.584  17.002  0.0104 -1.0380 -0.8399
18423TIP3    H276685   6.634   2.708  16.977 -0.0624 -0.5567  1.2041
18424TIP3   OH276686   2.451   3.692  15.434  0.2399  0.1141 -0.0775
18424TIP3    H176687   2.423   3.635  15.506 -1.3661 -0.6426 -1.2539
18424TIP3    H276688   2.376   3.692  15.374  0.0283  3.7565  0.0482
18425TIP3   OH276689   0.928   3.312   5.833  0.7560  0.0932  0.8433
18425TIP3    H176690   0.936   3.258   5.754 -0.2939 -1.7846  1.9551
18425TIP3    H276691   0.936   3.402   5.802 -1.2319 -0.5135 -1.6594
18426TIP3   OH276692   1.385   1.261   5.813 -0.0461 -0.0844 -0.2296
18426TIP3    H176693   1.443   1.325   5.772 -0.6823 -0.3519 -1.5696
18426TIP3    H276694   1.322   1.314   5.862 -0.7865  0.3415 -1.6231
18427TIP3   OH276695   1.826   5.875  12.326 -0.5444  0.2044 -0.2517
18427TIP3    H176696   1.733   5.887  12.303 -0.6476  1.3770  0.7309
18427TIP3    H276697   1.870   5.951  12.287  0.1729 -0.9002 -1.6239
18428TIP3   OH276698   1.210   2.549   2.674 -0.2052 -0.4060 -0.2149
18428TIP3    H176699   1.134   2.491   2.679  0.5250 -1.3179  0.4412
18428TIP3    H276700   1.201   2.592   2.588 -2.1300  0.4525  0.3721
18429TIP3   OH276701   1.661   5.296  11.333 -0.4825  0.3945  0.8552
18429TIP3    H176702   1.737   5.351  11.310  1.5446 -1.7521  2.1914
18429TIP3    H276703   1.629   5.333  11.415 -0.7552  1.1763  0.4019
18430TIP3   OH276704   0.331   0.370  16.807  0.2845  0.0010  0.2339
18430TIP3    H176705   0.240   0.399  16.806  1.0041  2.4455 -3.5003
18430TIP3    H276706   0.330   0.293  16.864 -4.0645 -0.0308  0.3348
18431TIP3   OH276707   1.581   6.397   5.535  0.4922  0.1133  0.0284
18431TIP3    H176708   1.597   6.312   5.576 -1.1764 -0.1369  0.2036
18431TIP3    H276709   1.519   6.441   5.594 -0.0978  0.6896 -1.0040
18432TIP3   OH276710   3.848   0.668   5.071  0.1145  0.4307 -0.3842
18432TIP3    H176711   3.848   0.746   5.127  0.8399  0.3021 -0.1963
18432TIP3    H276712   3.843   0.703   4.982 -0.8929  0.6412 -0.2450
18433TIP3   OH276713   0.876   5.238   1.380  0.6294  0.4485 -0.3349
18433TIP3    H176714   0.914   5.285   1.454  3.4467  2.0871 -2.7373
18433TIP3    H276715   0.909   5.148   1.389 -0.9006  0.0519  1.6119
18434TIP3   OH276716   0.381   3.225  13.898  0.3996 -0.4686 -0.2050
18434TIP3    H176717   0.383   3.168  13.975  0.5164  0.6291  0.6074
18434TIP3    H276718   0.300   3.202  13.853 -0.5433  0.0868  1.1681
18435TIP3   OH276719   2.830   1.590   2.048  0.2283 -0.0171  0.4977
18435TIP3    H176720   2.836   1.678   2.086 -0.7349  0.0156  0.5835
18435TIP3    H276721   2.912   1.579   2.000  0.1716  1.1051  0.1175
18436TIP3   OH276722   1.963   0.080   1.490 -0.4936  0.6312 -0.3144
18436TIP3    H176723   1.953   0.082   1.585 -1.6750  1.5989 -0.4445
18436TIP3    H276724   1.942   0.169   1.462 -2.3089 -0.1865 -1.6698
18437TIP3   OH276725   2.279   5.686   3.311 -0.0988  0.1343  0.7613
18437TIP3    H176726   2.374   5.674   3.322 -0.0888  0.1997  0.7493
18437TIP3    H276727   2.263   5.774   3.344 -0.4066 -0.4807  2.3134
18438TIP3   OH276728   0.126   6.304  11.430  0.6389  0.4129  0.0768
18438TIP3    H176729   0.188   6.321  11.502  0.2999 -0.8187  0.6698
18438TIP3    H276730   0.041   6.329  11.466  0.8667  2.9019 -1.0189
18439TIP3   OH276731   2.176   1.519   4.760  0.0734  0.3444  0.8896
18439TIP3    H176732   2.242   1.510   4.691 -0.5191 -0.3600  0.4039
18439TIP3    H276733   2.154   1.612   4.760 -1.6307 -0.0094 -1.4918
18440TIP3   OH276734   6.613   5.719  10.536 -0.0272 -0.2054 -0.2754
18440TIP3    H176735   6.639   5.748  10.449  0.3263 -1.5077 -0.6080
18440TIP3    H276736   6.573   5.633  10.523  0.9360 -0.8645  0.9471
18441TIP3   OH276737   4.795   2.006  16.805  0.4348  0.5694  0.2445
18441TIP3    H176738   4.758   1.984  16.891  0.0606  0.3742  0.0369
18441TIP3    H276739   4.767   2.096  16.789 -1.6524 -0.2342 -0.7952
18442TIP3   OH276740   0.194   5.926  15.963 -0.1831  0.4919 -0.2280
18442TIP3    H176741   0.140   6.004  15.971 -0.0283  0.7397 -1.4055
18442TIP3    H276742   0.265   5.938  16.026  0.0120  1.4505 -0.6241
18443TIP3   OH276743   1.997   0.159   0.158 -0.3505 -0.1969  0.2065
18443TIP3    H176744   1.965   0.246   0.182 -0.2717 -0.6400  2.0025
18443TIP3    H276745   1.918   0.109   0.140 -0.3687  0.4191 -1.5137
18444TIP3   OH276746   4.526   5.147  15.293  0.3419  0.1353  0.2504
18444TIP3    H176747   4.447   5.202  15.296  1.4379  1.7539  0.1669
18444TIP3    H276748   4.562   5.154  15.382  2.2906  2.2894 -0.6699
18445TIP3   OH276749   5.936   5.344   1.879 -0.0962  0.1042 -0.2491
18445TIP3    H176750   5.853   5.297   1.873 -1.4345  2.4674 -0.7098
18445TIP3    H276751   5.969   5.344   1.789  0.1679 -0.3908 -0.1554
18446TIP3   OH276752   1.938   0.042   5.559 -0.1296  0.5308 -0.2287
18446TIP3    H176753   1.868  -0.013   5.521  0.6131 -1.7830  1.6538
18446TIP3    H276754   1.996   0.060   5.485 -0.0678 -1.7520 -0.7750
18447TIP3   OH276755   5.662   4.268  16.179  0.0076 -0.7921  0.3550
18447TIP3    H176756   5.697   4.356  16.190  1.7986 -1.4398  0.0404
18447TIP3    H276757   5.687   4.221  16.259 -1.0176 -1.0020  0.5616
18448TIP3   OH276758   3.666   4.177  14.723  0.4569  0.6585  0.3470
18448TIP3    H176759   3.623   4.243  14.778 -1.4938 -0.2571 -0.0173
18448TIP3    H276760   3.641   4.093  14.762 -1.8760 -0.0540 -2.4854
18449TIP3   OH276761   3.830   3.765   0.657 -0.3315 -0.0120 -0.1331
18449TIP3    H176762   3.912   3.716   0.653  0.0080  0.5463  0.0894
18449TIP3    H276763   3.844   3.841   0.601  0.6556  2.1147  2.8503
18450TIP3   OH276764   4.499   3.420  15.594  0.7817  0.2833  0.2462
18450TIP3    H176765   4.583   3.441  15.553 -0.0225  1.5969 -0.7841
18450TIP3    H276766   4.442   3.395  15.522  0.2544 -0.4937  0.9256
18451TIP3   OH276767   1.594   2.997   3.547 -0.0902  0.0165 -0.8057
18451TIP3    H176768   1.591   3.093   3.541 -0.3911 -0.0401 -1.6148
18451TIP3    H276769   1.688   2.976   3.546 -0.0265  0.2989 -0.7846
18452TIP3   OH276770   0.687   2.736   2.640  0.7525  0.3489 -0.3185
18452TIP3    H176771   0.621   2.670   2.619  0.9851  0.4465 -1.4035
18452TIP3    H276772   0.719   2.710   2.727 -0.7566  0.3650  0.2585
18453TIP3   OH276773   0.275   1.170   4.365 -0.2691  0.0924  0.6708
18453TIP3    H176774   0.285   1.264   4.378  0.3776  0.1994 -0.4911
18453TIP3    H276775   0.237   1.162   4.277 -1.6956 -0.6755  1.3440
18454TIP3   OH276776   6.039   4.233   4.727 -0.7006 -0.3578  0.4263
18454TIP3    H176777   5.978   4.294   4.770 -0.1368  1.2839 -1.0311
18454TIP3    H276778   6.105   4.214   4.793 -1.7244 -0.6204  1.3956
18455TIP3   OH276779   3.642   1.988   6.178  0.2322  0.1087  0.3769
18455TIP3    H176780   3.680   2.053   6.119 -0.7580  0.2846 -0.0801
18455TIP3    H276781   3.628   1.911   6.124 -0.4673  0.1929  0.4299
18456TIP3   OH276782   2.247   0.814  14.337 -0.2713 -0.5037  0.7346
18456TIP3    H176783   2.199   0.782  14.261  0.9961  0.0879 -0.3400
18456TIP3    H276784   2.257   0.908  14.320  0.5087 -0.4742  1.3607
18457TIP3   OH276785   5.600   0.326   5.795 -0.0500 -0.1155  0.0386
18457TIP3    H176786   5.606   0.310   5.889  0.2363  1.4503  0.2977
18457TIP3    H276787   5.507   0.335   5.777 -0.0277  0.9637  0.4238
18458TIP3   OH276788   2.943   3.528  14.364 -0.2499  0.2539  0.1333
18458TIP3    H176789   3.035   3.514  14.387  0.2735  1.5362 -1.0959
18458TIP3    H276790   2.916   3.448  14.320  0.9347  0.7043 -1.4511
18459TIP3   OH276791   0.597   2.875  15.034 -0.2831 -0.5094  0.2681
18459TIP3    H176792   0.593   2.805  15.099 -0.9673 -0.8635 -0.1546
18459TIP3    H276793   0.515   2.923  15.045 -0.2069 -0.3053 -0.0418
18460TIP3   OH276794   3.444   0.448  13.092  0.0620  0.3702  0.2888
18460TIP3    H176795   3.439   0.399  13.010 -1.4580  0.5604  0.2564
18460TIP3    H276796   3.538   0.466  13.104  0.4616 -1.1231 -0.5304
18461TIP3   OH276797   3.745   6.218  11.076 -0.0776 -0.0394 -0.0383
18461TIP3    H176798   3.700   6.302  11.068 -0.7947 -0.1378  2.4461
18461TIP3    H276799   3.684   6.162  11.123  0.8267 -1.6117 -0.7098
18462TIP3   OH276800   0.143   0.674   4.888 -0.2652  0.2800 -0.2666
18462TIP3    H176801   0.177   0.733   4.955 -0.3258  1.5829 -1.3557
18462TIP3    H276802   0.217   0.619   4.864  0.2454  1.0284 -0.4149
18463TIP3   OH276803   2.104   2.135   4.265 -0.0103 -0.2421 -0.1259
18463TIP3    H176804   2.029   2.185   4.235 -0.1474  1.0196  2.2677
18463TIP3    H276805   2.180   2.190   4.245  0.0598 -0.2718  0.0576
18464TIP3   OH276806   5.441   2.077  12.425 -0.2061 -0.0863 -0.0649
18464TIP3    H176807   5.473   2.062  12.514  1.1771 -1.6586 -0.8061
18464TIP3    H276808   5.511   2.128  12.383 -0.5734  0.1159 -0.4310
18465TIP3   OH276809   3.416   5.499  15.714 -0.4945  0.5991 -0.3895
18465TIP3    H176810   3.476   5.436  15.753  0.6553  2.5249  1.0439
18465TIP3    H276811   3.462   5.532  15.637  0.8405  2.8324  1.2722
18466TIP3   OH276812   3.569   2.192  11.042  0.2736  0.2479 -0.2388
18466TIP3    H176813   3.592   2.283  11.055 -1.7496  0.7196  0.2063
18466TIP3    H276814   3.597   2.148  11.123  0.4921  0.6238 -0.1105
18467TIP3   OH276815   1.322   2.022   0.283 -0.0776 -0.3623  0.2559
18467TIP3    H176816   1.310   2.005   0.377 -0.1599 -0.6297  0.1983
18467TIP3    H276817   1.348   1.938   0.247  0.4232 -0.1458  0.1143
18468TIP3   OH276818   0.764   4.266   1.735  0.0332 -0.3905  0.5569
18468TIP3    H176819   0.685   4.223   1.704  2.2596 -3.0699 -1.6308
18468TIP3    H276820   0.800   4.311   1.658 -0.0922  2.0911  1.8769
18469TIP3   OH276821   6.376   6.586  10.426 -0.0946 -0.8548 -0.3720
18469TIP3    H176822   6.458   6.557  10.386  0.3340  1.5940 -1.3234
18469TIP3    H276823   6.318   6.606  10.352 -0.5521  0.2206  0.2633
18470TIP3   OH276824   0.743   1.350   1.384  0.4364  0.0815 -0.7732
18470TIP3    H176825   0.756   1.367   1.477 -1.1579 -0.9379 -0.3469
18470TIP3    H276826   0.673   1.409   1.357  0.7018  0.1821 -1.2579
18471TIP3   OH276827   2.403   5.722  10.785 -0.5399 -0.2262  0.1173
18471TIP3    H176828   2.430   5.666  10.859  3.0708 -0.3183 -1.1826
18471TIP3    H276829   2.357   5.662  10.726  1.4732 -1.4239 -0.2850
18472TIP3   OH276830   2.386   5.868  16.957  0.1972 -0.2344  0.3205
18472TIP3    H176831   2.446   5.885  17.029 -1.2220  1.4727  1.1279
18472TIP3    H276832   2.379   5.772  16.954  1.5004 -0.3818  1.4044
18473TIP3   OH276833   3.294   5.476   1.385 -0.3859 -0.7598 -0.5015
18473TIP3    H176834   3.285   5.400   1.328 -2.3267  0.3293 -1.7016
18473TIP3    H276835   3.377   5.516   1.359 -1.6713  0.2329 -3.2685
18474TIP3   OH276836   3.644   2.120   1.521 -0.1167 -0.1199  0.0242
18474TIP3    H176837   3.699   2.191   1.489 -1.3800  1.1409  0.6147
18474TIP3    H276838   3.555   2.152   1.510 -0.6461 -0.6470  2.4780
18475TIP3   OH276839   2.585   1.697   4.246 -0.0423 -0.3594 -0.3849
18475TIP3    H176840   2.585   1.787   4.280  2.2524 -0.3088 -0.4378
18475TIP3    H276841   2.513   1.695   4.183 -1.0981  0.9952  0.7432
18476TIP3   OH276842   1.129   4.106  10.813  0.3672 -0.2927  0.0576
18476TIP3    H176843   1.118   4.103  10.718 -1.1706 -1.5226  0.2485
18476TIP3    H276844   1.122   4.015  10.841  0.4206  0.1027  1.3947
18477TIP3   OH276845   6.677   4.879  14.327  0.0427  0.2747 -0.4993
18477TIP3    H176846   6.636   4.794  14.338  0.9117 -0.1881 -0.7878
18477TIP3    H276847   6.693   4.886  14.232 -0.8830  1.1679 -0.6052
18478TIP3   OH276848   0.207   0.808  16.426 -0.4655 -0.0652  0.3097
18478TIP3    H176849   0.252   0.726  16.403 -1.3442 -0.7683  1.0477
18478TIP3    H276850   0.217   0.815  16.521 -0.6139  0.5536  0.2798
18479TIP3   OH276851   6.374   3.244   4.243 -0.4986  0.3366  0.0275
18479TIP3    H176852   6.293   3.219   4.288 -0.8349 -0.0547 -0.7805
18479TIP3    H276853   6.357   3.224   4.151  0.9240 -0.8302 -0.0017
18480TIP3   OH276854   3.585   0.084   6.222  0.0222  0.0698  0.2472
18480TIP3    H176855   3.634   0.045   6.294  0.3109  0.0715  0.0516
18480TIP3    H276856   3.504   0.116   6.262 -0.3662 -1.0157  0.3559
18481TIP3   OH276857   3.470   4.409  13.761 -0.4652  0.3993 -0.1341
18481TIP3    H176858   3.389   4.459  13.750 -0.1470  0.3059 -3.6300
18481TIP3    H276859   3.526   4.439  13.689  1.3866 -1.8051  0.3457
18482TIP3   OH276860   2.882   4.363  12.652 -0.9856  0.2616 -0.3020
18482TIP3    H176861   2.936   4.430  12.609 -0.1918  1.0671  1.9018
18482TIP3    H276862   2.943   4.310  12.702 -2.3470  2.7592  4.3315
18483TIP3   OH276863   0.004   5.407   4.080  0.0648  0.6731  0.6810
18483TIP3    H176864  -0.089   5.424   4.099 -0.9595  0.0893 -3.4228
18483TIP3    H276865   0.031   5.345   4.148 -3.6552 -2.2165 -0.3029
18484TIP3   OH276866   4.558   5.565  11.125 -0.1483  0.5895  0.3862
18484TIP3    H176867   4.559   5.475  11.094  0.7676  0.4652  0.7733
18484TIP3    H276868   4.503   5.612  11.062  1.3095  0.2505 -1.1883
18485TIP3   OH276869   3.919   1.161   4.832 -0.8595  0.0144  0.0855
18485TIP3    H176870   3.910   1.248   4.871  1.9786  1.6172 -2.5433
18485TIP3    H276871   3.989   1.119   4.883 -0.7937  0.0655  0.0365
18486TIP3   OH276872   2.622   4.996  12.186  0.2231 -1.1903 -0.6741
18486TIP3    H176873   2.551   5.008  12.123  0.0598  0.2507 -0.2444
18486TIP3    H276874   2.702   5.014  12.136  0.0998 -0.1504 -0.5070
18487TIP3   OH276875   0.277   3.444  12.800 -0.1093 -0.5710 -0.0132
18487TIP3    H176876   0.325   3.390  12.737 -0.9772 -2.1840  0.6743
18487TIP3    H276877   0.205   3.481  12.749  0.4531 -0.0936 -0.4724
18488TIP3   OH276878   5.507   2.768   3.367 -0.4045  0.6511 -0.3519
18488TIP3    H176879   5.566   2.729   3.304 -0.3662  0.5957 -0.2812
18488TIP3    H276880   5.421   2.729   3.348 -0.0616 -0.6658  0.7526
18489TIP3   OH276881   4.201   2.577  11.557 -0.1594 -0.0441 -0.2419
18489TIP3    H176882   4.272   2.628  11.597 -0.6857  0.7029 -0.2451
18489TIP3    H276883   4.203   2.493  11.602  0.7017 -0.0111 -0.2105
18490TIP3   OH276884   0.274   3.688   5.606  0.1767  0.2868  0.5725
18490TIP3    H176885   0.342   3.715   5.545  0.3261 -2.2231 -0.4309
18490TIP3    H276886   0.197   3.671   5.551 -0.8006  1.5099  1.5122
18491TIP3   OH276887   5.938   4.126   4.192 -0.1289  0.0358 -0.4548
18491TIP3    H176888   6.018   4.075   4.180 -0.8044 -1.4839  1.3247
18491TIP3    H276889   5.968   4.211   4.224  0.7582 -0.6571  0.5752
18492TIP3   OH276890   4.555   6.339  12.578  0.0263  0.2466 -0.4166
18492TIP3    H176891   4.468   6.379  12.574  1.0320  2.8992  2.0486
18492TIP3    H276892   4.608   6.391  12.517  0.0179 -1.0916 -1.5900
18493TIP3   OH276893   3.941   6.728   0.172 -0.0079  0.2731 -0.2798
18493TIP3    H176894   3.992   6.702   0.248  3.2270  3.2503 -1.2495
18493TIP3    H276895   3.893   6.806   0.200  0.1694  0.6034 -0.8648
18494TIP3   OH276896   0.393   5.325  15.106 -0.0462  1.0162  0.1657
18494TIP3    H176897   0.397   5.253  15.170 -1.8309 -1.1553 -2.0621
18494TIP3    H276898   0.300   5.338  15.090  0.3439  2.1719 -1.3122
18495TIP3   OH276899   2.630   1.578   3.476  0.1248 -0.1525  0.0053
18495TIP3    H176900   2.553   1.524   3.492  1.6993 -1.9303  1.9279
18495TIP3    H276901   2.598   1.653   3.426 -2.6826 -1.2448  0.1140
18496TIP3   OH276902   1.840   6.742  14.555  0.5898  0.5044  0.2083
18496TIP3    H176903   1.870   6.832  14.545 -0.1085  0.5574 -1.5235
18496TIP3    H276904   1.913   6.689  14.523 -0.5570  0.5963 -2.6963
18497TIP3   OH276905   6.506   5.043  11.513  0.1420 -0.7465 -0.2538
18497TIP3    H176906   6.443   5.113  11.531  1.1911 -0.1396  1.1075
18497TIP3    H276907   6.565   5.043  11.588 -0.4821 -3.8272  0.3076
18498TIP3   OH276908   3.807   6.529  14.001 -0.3791  0.0610  0.0837
18498TIP3    H176909   3.835   6.608  14.047 -0.1049  0.4664 -0.7720
18498TIP3    H276910   3.740   6.491  14.058  1.8199 -0.8635  2.1146
18499TIP3   OH276911   6.552   2.448   3.029  0.1698 -0.0496 -0.0109
18499TIP3    H176912   6.490   2.519   3.045  0.7611  0.2766  0.8641
18499TIP3    H276913   6.525   2.411   2.945  0.0779  1.4491 -0.6536
18500TIP3   OH276914   2.399   3.912  13.084 -0.0925  0.4302  0.1343
18500TIP3    H176915   2.372   3.969  13.011 -2.4593  1.0472  1.4526
18500TIP3    H276916   2.340   3.837  13.078  1.4758 -0.8032 -0.1626
18501TIP3   OH276917   4.783   4.694  11.596  0.1217  0.4520  0.5724
18501TIP3    H176918   4.781   4.700  11.501 -0.4765  0.1700  0.5626
18501TIP3    H276919   4.696   4.722  11.624  0.0968 -0.0354  1.0017
18502TIP3   OH276920   3.652   2.166  16.030 -0.3335 -0.2770  0.2772
18502TIP3    H176921   3.649   2.169  15.934  1.2494 -1.5669  0.1589
18502TIP3    H276922   3.726   2.108  16.049  0.9245  1.9233  2.2929
18503TIP3   OH276923   5.182   1.608  13.688  0.3994  0.1604 -0.3938
18503TIP3    H176924   5.166   1.536  13.628  2.6653  0.0857 -0.9521
18503TIP3    H276925   5.242   1.666  13.642 -2.0307  2.9112 -0.3010
18504TIP3   OH276926   5.797   3.767   0.109  0.2381  0.4258 -0.2245
18504TIP3    H176927   5.770   3.771   0.201  1.3069 -0.2966  0.1167
18504TIP3    H276928   5.819   3.857   0.087 -1.7872  0.9342 -0.3169
18505TIP3   OH276929   5.471   5.504  15.651  0.1098  0.2763 -0.0524
18505TIP3    H176930   5.545   5.562  15.632  0.2249  0.2551  0.3213
18505TIP3    H276931   5.400   5.563  15.675 -0.1381  0.3209 -0.8668
18506TIP3   OH276932   1.824   2.336  11.505 -0.3555  0.3779 -0.3948
18506TIP3    H176933   1.852   2.379  11.425 -0.2541 -0.5623 -0.8677
18506TIP3    H276934   1.790   2.407  11.560 -1.3670  0.8802 -1.6638
18507TIP3   OH276935   1.116   0.483   0.453  0.2195 -0.1597  0.2280
18507TIP3    H176936   1.080   0.431   0.525  0.9103 -0.6737  0.2017
18507TIP3    H276937   1.042   0.496   0.393 -0.0489 -0.7876  0.4238
18508TIP3   OH276938   4.093   1.857   0.075 -0.0258  0.3542 -0.2402
18508TIP3    H176939   4.022   1.919   0.085  0.4496  0.9630 -0.5903
18508TIP3    H276940   4.122   1.838   0.164 -0.0257  0.8110 -0.1418
18509TIP3   OH276941   4.995   0.808  16.037  0.3813 -0.1469  0.3364
18509TIP3    H176942   5.057   0.844  16.100 -0.0191 -0.5955  0.9858
18509TIP3    H276943   4.937   0.881  16.015  0.8565  0.1535  0.0636
18510TIP3   OH276944   2.074   4.521  16.623  0.1796 -0.2172  0.1872
18510TIP3    H176945   2.100   4.535  16.532 -0.3842 -0.1348  0.0409
18510TIP3    H276946   1.982   4.495  16.619  0.2833 -0.6840  0.6959
18511TIP3   OH276947   1.923   6.091  13.605 -0.1272  0.0853  0.4976
18511TIP3    H176948   1.994   6.154  13.614  0.4866 -0.7858  1.9821
18511TIP3    H276949   1.846   6.137  13.640  0.4993 -0.2734  2.3862
18512TIP3   OH276950   1.197   5.999   1.829  0.1453  0.1761  0.1937
18512TIP3    H176951   1.235   5.930   1.775  0.1522  0.1846  0.1875
18512TIP3    H276952   1.136   6.045   1.771  1.3400  1.2009 -0.2576
18513TIP3   OH276953   3.923   1.177   3.547  0.0938 -0.0911 -1.0083
18513TIP3    H176954   3.851   1.234   3.574  0.4823 -0.3353  0.5917
18513TIP3    H276955   3.934   1.195   3.454 -1.4444  0.6044 -1.0733
18514TIP3   OH276956   6.146   5.907  14.984  0.8902  0.5748  0.6236
18514TIP3    H176957   6.156   6.002  14.989 -1.9349  1.0141 -0.7713
18514TIP3    H276958   6.122   5.890  14.892 -0.5438 -1.2587  1.2981
18515TIP3   OH276959   2.193   1.853   6.339  0.3462 -0.3910 -0.4765
18515TIP3    H176960   2.099   1.869   6.327  0.2113 -0.6966  0.1531
18515TIP3    H276961   2.206   1.858   6.433  0.8320 -1.0517 -0.5029
18516TIP3   OH276962   4.720   2.069   4.861  0.7880  0.0765 -0.5632
18516TIP3    H176963   4.711   1.997   4.923 -0.4861  0.1999 -0.5753
18516TIP3    H276964   4.768   2.032   4.787  1.8739 -0.2065  0.2769
18517TIP3   OH276965   3.337   5.408  16.332  0.3805 -0.0389 -0.0075
18517TIP3    H176966   3.337   5.478  16.267 -0.0514 -0.4302 -0.4297
18517TIP3    H276967   3.245   5.384  16.342  0.5687 -0.9051 -0.2632
18518TIP3   OH276968   4.957   3.109  15.899 -0.1696  0.1110 -0.2691
18518TIP3    H176969   4.930   3.071  15.982  0.2582  0.9182  0.2387
18518TIP3    H276970   4.915   3.054  15.833 -0.5238 -0.5179  0.4795
18519TIP3   OH276971   3.408   4.177  12.507 -0.0777 -0.5631  0.1105
18519TIP3    H176972   3.427   4.088  12.478  1.7336  0.1702 -0.9782
18519TIP3    H276973   3.423   4.232  12.430 -1.0078  0.7223  0.8121
18520TIP3   OH276974   2.704   4.917   2.798  0.2932 -0.3606 -0.0109
18520TIP3    H176975   2.791   4.880   2.784  0.5061  0.1458 -0.0380
18520TIP3    H276976   2.649   4.842   2.822  1.1046 -0.4399  1.6625
18521TIP3   OH276977   5.949   0.817  12.792 -0.3955 -0.0212 -0.0041
18521TIP3    H176978   6.034   0.845  12.760 -1.0075  0.0593 -1.5929
18521TIP3    H276979   5.911   0.896  12.832 -0.5714  0.4674 -1.1298
18522TIP3   OH276980   4.084   5.729  11.536  0.5549  0.2454  0.7511
18522TIP3    H176981   4.156   5.789  11.556 -0.9937  1.8672  1.5835
18522TIP3    H276982   4.029   5.777  11.474 -0.0168 -0.8175  0.4262
18523TIP3   OH276983   0.855   3.925  12.294 -0.4278 -0.1055 -0.3254
18523TIP3    H176984   0.875   3.862  12.224  0.1872 -0.9454  0.6025
18523TIP3    H276985   0.780   3.974  12.260  0.2012 -0.1313 -1.8155
18524TIP3   OH276986   5.599   2.336   4.643  0.4113  0.2564 -0.2939
18524TIP3    H176987   5.600   2.390   4.563 -0.1445  1.8797  0.7724
18524TIP3    H276988   5.550   2.388   4.706 -2.4247 -2.6244  0.0181
18525TIP3   OH276989   0.750   4.787  11.619 -0.6260  0.3322 -0.4076
18525TIP3    H176990   0.729   4.840  11.542 -0.6001  1.0895  0.0997
18525TIP3    H276991   0.692   4.820  11.687  1.4046  1.7147  0.7053
18526TIP3   OH276992   3.801   0.804  15.872  0.3261  0.0793 -0.3053
18526TIP3    H176993   3.838   0.761  15.795 -0.1704 -4.2886  1.7498
18526TIP3    H276994   3.867   0.793  15.940 -1.5105 -1.1105  1.3526
18527TIP3   OH276995   5.684   4.600   6.520 -0.5308  0.1454  0.0094
18527TIP3    H176996   5.613   4.607   6.458 -2.0790  2.5645  1.9382
18527TIP3    H276997   5.674   4.513   6.559  0.2322 -1.2384 -2.7593
18528TIP3   OH276998   5.290   1.151  13.481 -0.3106  0.6483  0.2854
18528TIP3    H176999   5.373   1.112  13.454 -0.4583  0.5370 -0.0102
18528TIP3    H277000   5.243   1.079  13.524 -0.6171  0.4742 -0.3347
18529TIP3   OH277001   0.601   0.708   4.776  0.0996  0.1034  0.7064
18529TIP3    H177002   0.573   0.689   4.686  1.0000 -4.7379  1.3483
18529TIP3    H277003   0.522   0.695   4.829  0.7313 -2.0436  1.1585
18530TIP3   OH277004   5.232   3.324  14.843 -0.1251  0.5208  0.3935
18530TIP3    H177005   5.179   3.252  14.809 -1.0815  0.7858  1.2840
18530TIP3    H277006   5.310   3.282  14.879 -0.6014 -0.0491  0.7648
18531TIP3   OH277007   4.946   4.592   2.765  0.1626  0.1096  0.0354
18531TIP3    H177008   4.974   4.580   2.856  0.4922  2.1948  0.2332
18531TIP3    H277009   4.895   4.513   2.745  4.0285 -2.6039  0.4759
18532TIP3   OH277010   5.632   6.153   3.998 -0.5019  0.2387  0.1294
18532TIP3    H177011   5.610   6.125   4.087  1.1269  0.0492  0.4919
18532TIP3    H277012   5.548   6.175   3.958 -1.2341  0.5111  1.7809
18533TIP3   OH277013   2.546   2.353   0.530  0.3550  0.0673 -0.6623
18533TIP3    H177014   2.481   2.333   0.463  0.5818 -2.2163 -0.2539
18533TIP3    H277015   2.494   2.377   0.607  0.0588  0.6422 -1.0342
18534TIP3   OH277016   1.767   0.726  11.443 -0.2209 -0.0893  0.5538
18534TIP3    H177017   1.782   0.721  11.349 -0.1722 -1.0606  0.6130
18534TIP3    H277018   1.841   0.679  11.482  0.6814  1.7696  1.1508
18535TIP3   OH277019   2.709   1.479  16.495 -0.0217 -0.4138 -0.2063
18535TIP3    H177020   2.686   1.567  16.467  0.4734  0.2539  1.4434
18535TIP3    H277021   2.717   1.485  16.591 -1.8507 -2.6610  0.1234
18536TIP3   OH277022   6.664   4.821   4.407 -0.4243 -0.1045  0.4025
18536TIP3    H177023   6.681   4.762   4.480  2.5799  0.9582  0.6388
18536TIP3    H277024   6.716   4.899   4.426 -0.5877  0.7150 -2.2422
18537TIP3   OH277025   3.400   6.268  12.173  0.0754  0.0601  0.0172
18537TIP3    H177026   3.443   6.185  12.189 -2.5560 -1.0160  1.9168
18537TIP3    H277027   3.452   6.332  12.222 -1.0071 -1.3707  3.1466
18538TIP3   OH277028   6.503   6.769  15.403  0.0472  0.1045 -0.6095
18538TIP3    H177029   6.445   6.840  15.429  1.3419  1.7369 -2.1082
18538TIP3    H277030   6.460   6.729  15.328  0.4949  0.8463 -1.2633
18539TIP3   OH277031   1.811   0.260  14.482  0.6479 -0.4675 -0.0489
18539TIP3    H177032   1.744   0.274  14.415  0.2086 -0.7469  0.3319
18539TIP3    H277033   1.894   0.276  14.436  0.2472  1.9545 -0.0121
18540TIP3   OH277034   1.268   1.965  15.062 -0.5683  0.5221  0.4922
18540TIP3    H177035   1.350   1.967  15.014 -0.5014  0.9889  0.6166
18540TIP3    H277036   1.227   1.882  15.038 -0.8570  1.0506 -0.9167
18541TIP3   OH277037   2.740   4.851  10.843  0.0311 -0.2102 -0.1763
18541TIP3    H177038   2.693   4.933  10.826 -0.2142 -0.1864  0.5826
18541TIP3    H277039   2.832   4.878  10.849  0.1419 -0.2391 -1.5313
18542TIP3   OH277040   1.391   2.062  16.209 -0.0950  0.1277  0.3614
18542TIP3    H177041   1.436   2.033  16.129 -0.6302 -0.6482  0.3379
18542TIP3    H277042   1.385   2.157  16.200  2.0660  0.3013  0.6461
18543TIP3   OH277043   1.105   4.833   2.282 -1.4122 -0.8748  0.2167
18543TIP3    H177044   1.065   4.905   2.330  0.3389  0.9052 -0.9208
18543TIP3    H277045   1.165   4.793   2.345  1.1010  1.6316 -0.4633
18544TIP3   OH277046   5.935   4.230   3.438  0.0504 -0.1869  0.3179
18544TIP3    H177047   5.980   4.180   3.370 -2.7920 -0.5441 -1.3733
18544TIP3    H277048   5.904   4.164   3.500  0.0080 -0.1085  0.3803
18545TIP3   OH277049   0.190   1.924  14.933 -0.5686 -0.8507  0.2355
18545TIP3    H177050   0.255   1.956  14.872 -1.1028  3.0877  1.6049
18545TIP3    H277051   0.106   1.935  14.888 -0.8251  0.5635  1.0198
18546TIP3   OH277052   1.235   4.433   0.045  0.3831  0.1383 -0.4267
18546TIP3    H177053   1.283   4.482  -0.021  0.5375 -0.8337 -1.0557
18546TIP3    H277054   1.175   4.496   0.084  1.7476  1.2203 -0.0486
18547TIP3   OH277055   5.848   1.808   1.001  0.1558 -0.3712 -0.0311
18547TIP3    H177056   5.767   1.831   1.048  0.0913 -1.8517  0.6004
18547TIP3    H277057   5.819   1.786   0.913 -0.0287 -0.0782 -0.0449
18548TIP3   OH277058   0.944   6.695   1.067 -0.0334  0.0473  0.3792
18548TIP3    H177059   1.001   6.766   1.097  0.4350  0.8688 -2.3691
18548TIP3    H277060   0.904   6.662   1.148  1.2043  2.1425  1.9194
18549TIP3   OH277061   1.921   4.721  14.908  0.2238  0.5893 -0.2231
18549TIP3    H177062   1.940   4.805  14.949  1.9596 -0.0114  0.2185
18549TIP3    H277063   1.842   4.690  14.952  0.8439  0.9563  1.1497
18550TIP3   OH277064   3.338   3.803  13.236  0.3079  0.1561 -0.3054
18550TIP3    H177065   3.408   3.841  13.182  0.4328 -0.9783 -0.9529
18550TIP3    H277066   3.331   3.863  13.311 -0.3100  2.1217 -1.8723
18551TIP3   OH277067   3.552   5.056  15.753  0.3494  0.3297 -0.1107
18551TIP3    H177068   3.575   5.027  15.665  0.1360 -0.8361  0.2009
18551TIP3    H277069   3.469   5.103  15.743  0.3803  0.2872 -0.5448
18552TIP3   OH277070   3.175   5.425   2.769 -0.7167  0.3575 -0.1326
18552TIP3    H177071   3.208   5.508   2.735 -1.1749  0.4957 -0.2297
18552TIP3    H277072   3.087   5.444   2.800 -0.3884  0.1743  0.9265
18553TIP3   OH277073   5.455   4.685  13.321 -0.0769 -0.9482 -0.2275
18553TIP3    H177074   5.493   4.772  13.308 -0.3392 -0.3329  2.7365
18553TIP3    H277075   5.509   4.646  13.390 -0.7805 -2.6287 -0.6139
18554TIP3   OH277076   4.218   3.389  12.889  0.0410 -0.1776 -0.3516
18554TIP3    H177077   4.173   3.387  12.974 -2.7965  3.0403 -1.6368
18554TIP3    H277078   4.247   3.480  12.880 -1.3488  0.0288 -3.5542
18555TIP3   OH277079   3.406   1.244  13.016 -0.1255  0.6561  0.3815
18555TIP3    H177080   3.423   1.166  13.068 -1.6258 -0.9004 -1.4173
18555TIP3    H277081   3.327   1.223  12.966 -0.5008  3.2877 -0.1922
18556TIP3   OH277082   1.594   1.975  12.961  0.4933  0.0817  0.1821
18556TIP3    H177083   1.606   1.988  13.055  1.6206  1.1874 -0.1014
18556TIP3    H277084   1.592   2.063  12.925 -0.0028 -0.3395 -0.8303
18557TIP3   OH277085   0.357   4.233  16.578  0.1070  0.1030 -0.4868
18557TIP3    H177086   0.444   4.270  16.564  0.2085  0.1100  0.1367
18557TIP3    H277087   0.366   4.180  16.658  0.0051 -1.4047 -1.4568
18558TIP3   OH277088   5.675   0.472   1.393  0.2056 -0.6311 -0.2014
18558TIP3    H177089   5.674   0.402   1.327  0.1159  0.8770 -1.8230
18558TIP3    H277090   5.606   0.448   1.455 -2.0889 -0.2993 -2.5458
18559TIP3   OH277091   0.964   0.786   3.207  0.1240 -0.0072 -0.0099
18559TIP3    H177092   0.970   0.835   3.289  2.3628  0.0123 -0.1525
18559TIP3    H277093   1.033   0.824   3.152 -0.5013 -0.9009 -1.4208
18560TIP3   OH277094   4.449   4.308   3.194  0.6131 -0.5042  0.7284
18560TIP3    H177095   4.459   4.397   3.226 -1.4717 -0.3765  1.0952
18560TIP3    H277096   4.354   4.295   3.188  0.9032 -2.1261 -0.9099
18561TIP3   OH277097   0.207   3.182  15.809 -0.5276  0.0131  0.4827
18561TIP3    H177098   0.233   3.175  15.717 -1.0632  1.0002  0.2442
18561TIP3    H277099   0.285   3.216  15.853 -1.0576  2.0187 -0.0607
18562TIP3   OH277100   1.118   6.336  15.069 -0.2340 -0.0432  0.2379
18562TIP3    H177101   1.137   6.259  15.123  2.7983  0.2844 -0.2525
18562TIP3    H277102   1.191   6.339  15.007 -1.6407  1.8002 -1.3557
18563TIP3   OH277103   0.983   4.522   6.683 -0.0964 -0.1361  0.1763
18563TIP3    H177104   1.079   4.520   6.680  0.0179 -1.3719  2.9210
18563TIP3    H277105   0.961   4.612   6.660  1.6844 -0.0001 -1.1563
18564TIP3   OH277106   0.121   2.134   5.860  0.3960 -0.2745 -0.0160
18564TIP3    H177107   0.127   2.056   5.915 -0.0086 -1.2972 -1.4279
18564TIP3    H277108   0.136   2.103   5.771 -0.0717  1.2082 -0.6329
18565TIP3   OH277109   1.640   0.881  17.120 -0.4589  0.6347 -0.1064
18565TIP3    H177110   1.617   0.866  17.028  1.3863  2.4521 -0.9093
18565TIP3    H277111   1.562   0.924  17.157 -0.5493  1.5395 -1.2942
18566TIP3   OH277112   5.047   2.304   0.496  0.1164 -0.5302 -0.3641
18566TIP3    H177113   5.102   2.225   0.500 -0.3458 -0.7711  2.3488
18566TIP3    H277114   4.968   2.277   0.450  0.7223 -1.1374 -1.0688
18567TIP3   OH277115   5.662   1.843  15.435 -0.3467 -0.3293 -0.0394
18567TIP3    H177116   5.660   1.867  15.343  0.8688 -0.6744 -0.1633
18567TIP3    H277117   5.659   1.926  15.482  2.9289  0.0687 -0.4488
18568TIP3   OH277118   2.245   4.342  13.351 -0.3128 -0.1027 -0.3379
18568TIP3    H177119   2.270   4.413  13.292  0.6379  0.9256  1.2785
18568TIP3    H277120   2.258   4.378  13.439 -1.9371 -1.5254  0.5121
18569TIP3   OH277121   4.388   2.021   1.454  0.3166  0.1569  0.7688
18569TIP3    H177122   4.402   2.115   1.454  1.5995 -0.0166  2.0196
18569TIP3    H277123   4.293   2.010   1.446  0.3496  1.4842 -2.5085
18570TIP3   OH277124   1.770   1.859   2.731  0.2800 -0.1665 -0.0854
18570TIP3    H177125   1.790   1.853   2.637 -0.4314 -0.5514 -0.2107
18570TIP3    H277126   1.784   1.951   2.752  0.6927 -0.1273 -0.5149
18571TIP3   OH277127   4.906   1.548  14.324  0.0833  0.4390  0.1604
18571TIP3    H177128   4.979   1.485  14.323  0.0779  0.4361  0.0176
18571TIP3    H277129   4.898   1.577  14.234 -1.7098 -1.4166 -0.2924
18572TIP3   OH277130   5.214   5.019  15.602 -0.0229  0.0105  0.0890
18572TIP3    H177131   5.256   4.951  15.550  0.4042  0.9160 -0.7715
18572TIP3    H277132   5.275   5.036  15.674 -1.9188 -3.3145  2.6539
18573TIP3   OH277133   6.526   0.934   1.482  0.0867  0.1736 -0.1732
18573TIP3    H177134   6.523   1.017   1.435  1.2654  0.5480  0.4214
18573TIP3    H277135   6.588   0.880   1.433  1.2019  0.5104  0.8556
18574TIP3   OH277136   5.998   2.248  12.091 -0.1322  0.3233  0.5116
18574TIP3    H177137   6.000   2.340  12.116  0.4420  0.7456 -1.0117
18574TIP3    H277138   5.907   2.222  12.101 -1.0204  2.0560 -2.4284
18575TIP3   OH277139   5.851   1.708   2.000 -0.4779  0.2282  0.3833
18575TIP3    H177140   5.936   1.728   1.961 -0.4540 -0.1296  0.2453
18575TIP3    H277141   5.793   1.697   1.925 -0.2997 -1.0586  0.4104
18576TIP3   OH277142   2.755   1.537  11.144  0.1096  0.2311 -0.1474
18576TIP3    H177143   2.770   1.603  11.211 -1.9179  2.6797 -2.0009
18576TIP3    H277144   2.830   1.545  11.084 -0.1286  0.8425 -0.3610
18577TIP3   OH277145   2.690   5.560  14.565  0.8580  0.2274  0.6276
18577TIP3    H177146   2.663   5.568  14.473  3.8830  0.5247 -0.2770
18577TIP3    H277147   2.683   5.649  14.600 -1.6013 -0.1113  1.1270
18578TIP3   OH277148   3.033   2.562   3.372  0.5335  0.0488  0.0691
18578TIP3    H177149   3.013   2.516   3.454  1.1461  1.9680  1.3361
18578TIP3    H277150   2.997   2.650   3.385 -1.0094 -0.1565 -2.4798
18579TIP3   OH277151   6.752   3.902   0.689  0.3589  0.0139  0.3551
18579TIP3    H177152   6.668   3.872   0.724  0.8038 -0.5868  0.9198
18579TIP3    H277153   6.817   3.873   0.753  0.9282  1.1141  0.2880
18580TIP3   OH277154   1.756   2.288  14.868  0.4201 -0.4273 -0.3038
18580TIP3    H177155   1.723   2.272  14.956 -1.3065 -2.1268 -1.2162
18580TIP3    H277156   1.702   2.360  14.835  0.6166 -0.2350 -0.2033
18581TIP3   OH277157   5.657   1.029  14.987  0.1016 -0.4380  0.3064
18581TIP3    H177158   5.627   1.117  14.968 -1.3354 -0.6926  1.2763
18581TIP3    H277159   5.596   0.972  14.941  1.2282 -0.9389 -0.6022
18582TIP3   OH277160   4.338   0.036  16.590 -0.0433 -0.4206 -0.4552
18582TIP3    H177161   4.278   0.033  16.515  0.3187  1.2268 -0.8135
18582TIP3    H277162   4.284   0.067  16.662  0.0127 -0.4148 -0.4150
18583TIP3   OH277163   2.405   5.497   2.702 -0.0647 -0.1890 -0.2438
18583TIP3    H177164   2.484   5.545   2.677 -1.2498  1.6861 -0.4883
18583TIP3    H277165   2.412   5.487   2.797  0.4338  0.0091 -0.2607
18584TIP3   OH277166   6.270   2.700  13.398  0.3216  0.4974 -0.1008
18584TIP3    H177167   6.191   2.646  13.395  0.8230 -0.1523 -2.1588
18584TIP3    H277168   6.246   2.774  13.454 -1.6534  0.1981 -0.5170
18585TIP3   OH277169   4.849   1.621  11.319 -0.0345 -0.7196 -0.3473
18585TIP3    H177170   4.785   1.556  11.346 -1.0774 -0.7593 -2.7618
18585TIP3    H277171   4.809   1.705  11.341 -0.4063 -0.7781 -0.8058
18586TIP3   OH277172   2.980   1.324  12.674 -0.0518 -0.1185  0.1300
18586TIP3    H177173   3.070   1.302  12.650  0.4840  0.0579  1.9206
18586TIP3    H277174   2.989   1.382  12.749 -1.6676 -0.4618  0.6017
18587TIP3   OH277175   1.647   2.148  12.735  0.1072  0.2134 -0.3725
18587TIP3    H177176   1.727   2.096  12.728 -0.4765 -0.9441  1.1106
18587TIP3    H277177   1.635   2.187  12.648  2.6127  0.9269 -0.4247
18588TIP3   OH277178   3.947   5.255   5.440 -0.4411  0.4898  0.0106
18588TIP3    H177179   3.888   5.181   5.454 -0.2437  0.6162  1.6559
18588TIP3    H277180   4.035   5.218   5.450 -0.2775  0.5883 -1.0062
18589TIP3   OH277181   4.302   6.389   2.847 -0.1925  0.0721 -0.3071
18589TIP3    H177182   4.225   6.341   2.818 -0.7809  1.2478 -0.7388
18589TIP3    H277183   4.366   6.322   2.869 -0.5387 -0.8849 -2.1358
18590TIP3   OH277184   0.895   0.955   0.448 -0.0075 -0.1717  0.1210
18590TIP3    H177185   0.900   1.017   0.375 -0.1540  0.1404  0.3730
18590TIP3    H277186   0.805   0.963   0.480  0.2437  0.1629  0.7451
18591TIP3   OH277187   0.897   0.442   6.216  0.1097 -0.2249  0.5549
18591TIP3    H177188   0.862   0.401   6.138  1.1733  0.0654 -0.0879
18591TIP3    H277189   0.965   0.502   6.184 -0.9632  1.5640  1.5059
18592TIP3   OH277190   6.314   3.949  11.243  0.7262  0.1601 -0.1842
18592TIP3    H177191   6.310   4.030  11.191 -0.1883 -0.2497 -0.7686
18592TIP3    H277192   6.378   3.894  11.196 -0.2465 -0.2883 -1.0060
18593TIP3   OH277193   0.826   0.892   5.468  0.0794 -0.0606  0.2323
18593TIP3    H177194   0.907   0.939   5.489  1.7173 -2.6828 -0.0840
18593TIP3    H277195   0.827   0.884   5.373  0.0878 -1.2348  0.3354
18594TIP3   OH277196   2.077   3.781   1.364 -0.1186 -0.3492  0.8486
18594TIP3    H177197   2.146   3.803   1.427 -1.8290  1.6019  2.1324
18594TIP3    H277198   2.107   3.819   1.282  0.3498  0.5131  1.4039
18595TIP3   OH277199   2.497   4.595  11.986 -0.1525  1.0018  0.4182
18595TIP3    H177200   2.451   4.654  11.926  0.3387  0.7305 -0.2236
18595TIP3    H277201   2.553   4.652  12.038  0.6709  1.0704 -0.5155
18596TIP3   OH277202   3.304   1.614  11.732  0.2163 -0.1908 -0.2611
18596TIP3    H177203   3.389   1.615  11.687 -0.6202  1.0539 -1.8641
18596TIP3    H277204   3.253   1.549  11.684 -0.1612 -0.0102 -0.1054
18597TIP3   OH277205   4.995   5.019  11.834  0.0345 -0.6990 -0.5285
18597TIP3    H177206   5.080   5.061  11.848 -0.0713 -0.5328 -0.3916
18597TIP3    H277207   5.010   4.960  11.760 -0.3628  1.1823 -2.1475
18598TIP3   OH277208   0.337   3.016   3.376  0.1398 -1.0755  0.3541
18598TIP3    H177209   0.279   2.947   3.343  0.1688  0.2283 -2.5404
18598TIP3    H277210   0.410   3.019   3.314 -0.0915  1.8383  0.1265
18599TIP3   OH277211   0.506   5.118  10.477  0.4014  0.2267 -0.1277
18599TIP3    H177212   0.549   5.160  10.551  0.7929  1.6028 -1.1114
18599TIP3    H277213   0.561   5.140  10.402 -0.4277 -0.4643 -0.9517
18600TIP3   OH277214   1.781   1.365   0.930  0.2187  0.2376 -0.2930
18600TIP3    H177215   1.700   1.330   0.967  0.7505 -1.5396 -0.7463
18600TIP3    H277216   1.753   1.440   0.878 -0.8317  1.1666  1.5641
18601TIP3   OH277217   1.106   6.294   0.469 -0.0493 -0.0444  0.2856
18601TIP3    H177218   1.133   6.351   0.397 -0.6235 -0.8107 -0.5550
18601TIP3    H277219   1.181   6.293   0.529 -0.4183  2.3758  0.8163
18602TIP3   OH277220   3.397   1.041  16.111  0.1150  0.5038 -0.3912
18602TIP3    H177221   3.397   1.047  16.206  0.1213 -1.9734 -0.1995
18602TIP3    H277222   3.454   0.967  16.091 -1.9512 -0.6797 -2.1835
18603TIP3   OH277223   4.840   5.968  15.900  0.3566  0.3731  0.3216
18603TIP3    H177224   4.870   5.882  15.930  0.6330  0.2153 -0.4073
18603TIP3    H277225   4.745   5.965  15.909  0.2294 -0.5782 -1.1944
18604TIP3   OH277226   2.554   4.215   0.572 -0.3688  0.4282  0.1215
18604TIP3    H177227   2.465   4.195   0.600 -0.3028 -0.4734 -0.2986
18604TIP3    H277228   2.546   4.235   0.479  0.3405 -3.0680 -0.7528
18605TIP3   OH277229   5.006   6.438   1.818  0.0564  0.0028 -0.1247
18605TIP3    H177230   5.077   6.427   1.881 -0.3154 -0.1761  0.2747
18605TIP3    H277231   4.931   6.467   1.872  0.0375  0.9587 -0.6435
18606TIP3   OH277232   5.287   3.362  10.731  0.6489  0.2596 -0.2545
18606TIP3    H177233   5.208   3.359  10.677  0.2364  0.8323  0.3081
18606TIP3    H277234   5.318   3.271  10.732  0.8241  0.2792 -1.6742
18607TIP3   OH277235   5.303   5.604  10.143  0.3619 -0.2716  0.2019
18607TIP3    H177236   5.291   5.578  10.234 -1.9083 -1.2718 -0.3532
18607TIP3    H277237   5.318   5.521  10.096  0.1741  0.1026 -0.5291
18608TIP3   OH277238   3.359   4.863   3.690 -0.2325 -0.0467  0.3129
18608TIP3    H177239   3.406   4.791   3.650 -1.1560 -1.7745  2.2289
18608TIP3    H277240   3.402   4.876   3.775  1.8052  3.6509 -1.1581
18609TIP3   OH277241   0.995   6.644  15.359 -0.3535 -0.2585 -0.1544
18609TIP3    H177242   0.932   6.716  15.354 -1.9242 -1.7218 -2.7935
18609TIP3    H277243   1.037   6.644  15.273  1.8889 -0.5292  0.9089
18610TIP3   OH277244   6.121   1.255  14.868 -1.0308  0.2501  0.0546
18610TIP3    H177245   6.046   1.259  14.927 -0.7746  0.0760  0.3917
18610TIP3    H277246   6.195   1.236  14.925 -0.5367  1.5807 -0.1141
18611TIP3   OH277247   2.378   1.841  16.331  0.1661  0.2958  0.7576
18611TIP3    H177248   2.307   1.903  16.346  0.6222  0.8087  0.8397
18611TIP3    H277249   2.426   1.876  16.256 -0.4466 -0.7589 -0.1464
18612TIP3   OH277250   0.213   5.607   1.102 -0.3353 -0.3083  0.0025
18612TIP3    H177251   0.276   5.615   1.030 -0.4845 -1.3559 -0.2620
18612TIP3    H277252   0.128   5.622   1.061 -0.2891  0.8475  0.3100
18613TIP3   OH277253   2.000   1.017  17.145 -0.0086 -0.2544 -0.0479
18613TIP3    H177254   1.984   0.951  17.212  0.3746  0.4199  0.7163
18613TIP3    H277255   1.913   1.045  17.118 -0.1682 -0.5531  0.1544
18614TIP3   OH277256   4.653   3.412  12.879 -0.6533  0.4972 -0.0552
18614TIP3    H177257   4.587   3.358  12.835  0.2013  1.0688 -2.0951
18614TIP3    H277258   4.689   3.466  12.809  2.8575 -0.6740  0.7823
18615TIP3   OH277259   6.416   3.696   6.557 -0.0497  0.2987 -0.4520
18615TIP3    H177260   6.423   3.625   6.493 -0.7362  2.0902 -2.5922
18615TIP3    H277261   6.321   3.711   6.565 -0.1263 -1.3748  2.7382
18616TIP3   OH277262   2.436   6.225  15.360 -0.1628  0.1448  0.3001
18616TIP3    H177263   2.448   6.191  15.449  0.9426  0.8986  0.4445
18616TIP3    H277264   2.428   6.319  15.372  0.9483  0.3450 -0.4836
18617TIP3   OH277265   1.640   0.059  11.576 -0.1530  0.3131  0.2966
18617TIP3    H177266   1.641   0.047  11.481 -0.4732  0.7751  0.2382
18617TIP3    H277267   1.714   0.006  11.607 -0.6436 -0.6240 -0.1143
18618TIP3   OH277268   2.036   0.963  12.843 -0.3915  0.2289 -0.4126
18618TIP3    H177269   2.109   0.989  12.899 -0.5417  0.6920 -0.4332
18618TIP3    H277270   1.996   1.045  12.816  0.9446  0.1149 -2.8825
18619TIP3   OH277271   2.840   0.962   0.675  0.5455  0.8166  0.6437
18619TIP3    H177272   2.791   0.962   0.757 -0.4657  2.1379  0.0554
18619TIP3    H277273   2.825   1.049   0.638  2.7732  1.0120  0.1006
18620TIP3   OH277274   2.388   4.177  10.515 -0.6786  0.1756  0.3737
18620TIP3    H177275   2.483   4.187  10.521 -0.6930  0.0305  0.9250
18620TIP3    H277276   2.375   4.096  10.467 -0.5178  0.0148  0.5982
18621TIP3   OH277277   5.109   6.121   2.772  0.2481  0.3764  0.0409
18621TIP3    H177278   5.080   6.205   2.809  1.4340  0.4590  0.8124
18621TIP3    H277279   5.160   6.080   2.842  1.6100  0.0449 -1.1129
18622TIP3   OH277280   5.921   5.487  10.228  0.0261  0.1189  0.4493
18622TIP3    H177281   5.835   5.529  10.217 -0.5777 -1.2987 -0.3431
18622TIP3    H277282   5.955   5.526  10.309 -0.2543  2.5464 -0.5577
18623TIP3   OH277283   0.434   6.563   4.546 -0.0093 -0.5036 -0.2192
18623TIP3    H177284   0.398   6.603   4.626 -1.0398  0.6970 -1.2730
18623TIP3    H277285   0.359   6.519   4.506  0.8094 -2.2840  0.1802
18624TIP3   OH277286   4.439   0.912   0.206 -0.0477 -0.1200 -0.3315
18624TIP3    H177287   4.421   0.949   0.120 -0.7935 -2.2281 -1.1145
18624TIP3    H277288   4.527   0.875   0.199 -0.3782 -0.9030 -0.4159
18625TIP3   OH277289   5.491   5.747   4.064 -0.3020 -0.6644 -0.5738
18625TIP3    H177290   5.551   5.800   4.117  0.1902 -1.4854 -0.2931
18625TIP3    H277291   5.417   5.729   4.123 -2.4235  3.0682 -1.9267
18626TIP3   OH277292   2.059   4.379  14.599  0.8894  0.3843  0.4123
18626TIP3    H177293   2.085   4.413  14.514 -3.6962  0.4027 -1.0963
18626TIP3    H277294   2.036   4.456  14.650  1.4523  0.2323  0.9018
18627TIP3   OH277295   6.291   4.179   4.514  0.2564 -0.0253 -0.1647
18627TIP3    H177296   6.281   4.092   4.553  0.9136 -0.2144 -0.4085
18627TIP3    H277297   6.347   4.226   4.575  0.2962  0.0721 -0.2762
18628TIP3   OH277298   3.552   2.846  12.538 -0.1970 -0.2648 -0.1601
18628TIP3    H177299   3.634   2.813  12.575 -0.0855 -0.7243 -0.8030
18628TIP3    H277300   3.557   2.825  12.445  0.5194  2.9367 -0.8828
18629TIP3   OH277301   4.627   3.609  10.177 -0.0969  0.1940  0.0773
18629TIP3    H177302   4.585   3.568  10.253  0.1483 -1.9744 -0.8974
18629TIP3    H277303   4.710   3.642  10.211  0.4436 -1.6190  0.5790
18630TIP3   OH277304   2.413   4.024  14.035  0.7077 -0.5388  0.1351
18630TIP3    H177305   2.323   4.010  14.004  0.3661 -1.9055  1.6781
18630TIP3    H277306   2.463   3.953  13.996  0.5872 -1.3201  1.3642
18631TIP3   OH277307   3.997   1.665  11.190 -0.4823  0.3080  0.0964
18631TIP3    H177308   3.911   1.688  11.155 -0.3060 -0.4590 -0.8477
18631TIP3    H277309   4.041   1.618  11.119  0.4942  0.1715  0.7747
18632TIP3   OH277310   4.694   1.845  12.327 -0.2853 -0.6206  0.0344
18632TIP3    H177311   4.783   1.827  12.355 -0.6030 -1.1872  0.7162
18632TIP3    H277312   4.642   1.775  12.368 -1.0003 -0.4429 -0.5583
18633TIP3   OH277313   1.375   5.174   3.131 -0.1588 -0.0396 -0.2988
18633TIP3    H177314   1.455   5.171   3.079 -0.3122  0.5497 -0.5863
18633TIP3    H277315   1.345   5.083   3.136  0.2241 -0.1852 -0.6726
18634TIP3   OH277316   2.886   5.354  14.642  0.0077  0.1458  0.9118
18634TIP3    H177317   2.848   5.315  14.721 -1.0061 -0.3965  0.1756
18634TIP3    H277318   2.827   5.427  14.621 -0.5999 -0.6487 -0.1904
18635TIP3   OH277319   5.321   1.345  14.804 -0.4305  0.0462  0.2029
18635TIP3    H177320   5.399   1.291  14.789 -1.5723 -1.5434 -0.1925
18635TIP3    H277321   5.281   1.355  14.718  0.4607  2.6961  0.0430
18636TIP3   OH277322   6.146   5.485  15.897  0.1231 -0.3074  0.2406
18636TIP3    H177323   6.053   5.507  15.899  0.6798  2.1888  0.8923
18636TIP3    H277324   6.174   5.506  15.808  0.1512 -0.6442  0.1698
18637TIP3   OH277325   3.407   2.657  15.935  0.0330  0.2668 -0.3625
18637TIP3    H177326   3.430   2.599  15.862 -1.1294 -1.3369  0.5107
18637TIP3    H277327   3.458   2.623  16.008  1.0078  1.7221 -0.3425
18638TIP3   OH277328   0.959   1.914  11.912  0.2075 -0.1365 -0.1013
18638TIP3    H177329   0.968   1.915  12.007 -3.6541 -0.8729  0.3717
18638TIP3    H277330   0.960   2.006  11.886  3.2058 -0.0031  0.3844
18639TIP3   OH277331   0.001   6.308   0.743  0.5481  0.3614 -0.1298
18639TIP3    H177332   0.040   6.252   0.676  0.0893 -0.8424  0.5774
18639TIP3    H277333   0.041   6.277   0.825 -0.8916 -0.0191  0.4505
18640TIP3   OH277334   0.148   1.658  12.877 -0.3214 -0.1423  0.5276
18640TIP3    H177335   0.101   1.720  12.820 -0.0046 -0.0285  0.3840
18640TIP3    H277336   0.167   1.708  12.956 -0.3487 -0.1533  0.5411
18641TIP3   OH277337   0.242   5.043  14.312  0.2256  0.5646 -0.4367
18641TIP3    H177338   0.189   5.029  14.234  1.3968 -0.4999 -1.0494
18641TIP3    H277339   0.290   5.123  14.295  0.1865  0.5430 -0.6485
18642TIP3   OH277340   6.772   1.287   4.914 -0.8967  0.3044  0.0140
18642TIP3    H177341   6.752   1.339   4.837 -0.2996  0.3132 -0.1396
18642TIP3    H277342   6.692   1.238   4.932 -0.8960 -0.0302 -0.8729
18643TIP3   OH277343   5.061   0.665   1.126  0.2404  0.1587 -0.0542
18643TIP3    H177344   5.107   0.725   1.068 -1.3294  1.4634  0.0014
18643TIP3    H277345   5.056   0.712   1.209 -1.5868  0.2705 -0.1986
18644TIP3   OH277346   1.385   5.397   0.312  0.4840  0.2785 -0.0028
18644TIP3    H177347   1.294   5.381   0.286  1.1050 -0.2118 -2.0002
18644TIP3    H277348   1.399   5.490   0.292  0.9836 -0.1161 -1.6041
18645TIP3   OH277349   5.526   6.110  14.068 -0.3555  0.3831 -0.0715
18645TIP3    H177350   5.607   6.140  14.027  0.1728  0.3166  0.9207
18645TIP3    H277351   5.475   6.073  13.995 -0.3166  2.1400 -1.0288
18646TIP3   OH277352   6.432   3.270  13.883  0.0799 -0.6972  0.0780
18646TIP3    H177353   6.462   3.360  13.892 -0.7883 -0.4101  0.1823
18646TIP3    H277354   6.362   3.274  13.817 -0.0879 -1.2641  0.2156
18647TIP3   OH277355   6.294   5.325   1.515 -0.1435  0.3050  0.6362
18647TIP3    H177356   6.305   5.280   1.431 -1.2079  2.0652 -0.4863
18647TIP3    H277357   6.374   5.378   1.524 -0.4126  0.7630  0.3241
18648TIP3   OH277358   2.142   0.255  13.954 -0.2384 -0.5826 -0.0621
18648TIP3    H177359   2.190   0.172  13.957  1.3808  0.3226 -0.2889
18648TIP3    H277360   2.210   0.322  13.948 -1.4979  0.8176  0.8886
18649TIP3   OH277361   1.785   1.660   4.152  0.6535  0.5099 -0.1779
18649TIP3    H177362   1.823   1.745   4.130  1.0932  1.0528  2.5362
18649TIP3    H277363   1.811   1.645   4.243 -1.5805 -1.3265  0.1953
18650TIP3   OH277364   4.749   1.027   3.980  0.1395  0.3203 -0.6089
18650TIP3    H177365   4.771   0.934   3.976 -0.5908  0.2060 -3.0648
18650TIP3    H277366   4.656   1.031   3.958 -0.3438  1.4832  1.4911
18651TIP3   OH277367   2.886   5.509   3.022 -0.6096 -0.0844  0.7682
18651TIP3    H177368   2.892   5.504   2.927  1.3290 -0.6562  0.8944
18651TIP3    H277369   2.887   5.417   3.051  0.6312  0.1229  1.4180
18652TIP3   OH277370   2.012   4.502   2.788 -0.3722 -0.1126 -0.6641
18652TIP3    H177371   2.040   4.411   2.785 -0.3720 -0.1491  0.1589
18652TIP3    H277372   2.078   4.549   2.738 -0.6942 -0.6416 -1.5892
18653TIP3   OH277373   2.821   5.244   0.415 -0.2256  0.1419 -0.0832
18653TIP3    H177374   2.726   5.240   0.405 -0.2827  0.1052  0.4599
18653TIP3    H277375   2.835   5.297   0.494  0.1937 -0.2042  0.0759
18654TIP3   OH277376   4.967   0.380  13.101  0.3417 -0.4436  0.0442
18654TIP3    H177377   4.884   0.421  13.127  0.5364 -1.4367  2.3880
18654TIP3    H277378   4.941   0.309  13.043 -0.4590 -0.7850  0.8028
18655TIP3   OH277379   2.290   1.645  13.874  0.1420 -0.1793  0.1955
18655TIP3    H177380   2.318   1.554  13.869  2.9032  0.5140  1.8217
18655TIP3    H277381   2.198   1.640  13.902  0.6560 -2.4527  1.6728
18656TIP3   OH277382   1.827   4.723   3.210  0.0065  0.4463  0.2596
18656TIP3    H177383   1.871   4.642   3.236 -1.3058 -0.6232 -0.7661
18656TIP3    H277384   1.855   4.788   3.274  2.4754 -0.3901  0.0514
18657TIP3   OH277385   3.034   5.847   1.959  0.0584  0.2327  0.2322
18657TIP3    H177386   3.127   5.826   1.949 -0.0228  0.3538 -0.8175
18657TIP3    H277387   2.988   5.766   1.935 -0.0972 -0.0336  1.3796
18658TIP3   OH277388   5.353   0.752  10.246  0.4599  0.2905 -0.0352
18658TIP3    H177389   5.396   0.670  10.220 -1.0572 -0.7989  0.8422
18658TIP3    H277390   5.310   0.732  10.329 -1.9256  1.2815 -0.9803
18659TIP3   OH277391   0.544   6.557  14.858  0.5467 -0.0210 -0.5603
18659TIP3    H177392   0.535   6.652  14.864  0.2483 -0.1341  0.8590
18659TIP3    H277393   0.485   6.531  14.787  0.3655  0.8100 -0.7134
18660TIP3   OH277394   3.266   2.841   0.733  0.2997 -0.0459  0.1364
18660TIP3    H177395   3.180   2.839   0.691 -0.5727 -0.4864  1.8724
18660TIP3    H277396   3.299   2.752   0.723  0.1138 -0.1383  0.3330
18661TIP3   OH277397   2.504   6.084   3.115 -0.3410 -0.1904 -0.0349
18661TIP3    H177398   2.513   6.050   3.026  3.0859  1.8879 -0.5961
18661TIP3    H277399   2.548   6.169   3.112  1.3035 -0.7866  4.0306
18662TIP3   OH277400   3.244   4.295   4.457  0.4645 -0.2331  0.1770
18662TIP3    H177401   3.321   4.263   4.410  1.2092  1.1944  0.4055
18662TIP3    H277402   3.257   4.390   4.462  0.1497 -0.3023  2.7908
18663TIP3   OH277403   3.823   2.249  12.056  0.8128 -0.8529  0.6892
18663TIP3    H177404   3.834   2.344  12.042 -1.0502 -0.3621  2.3852
18663TIP3    H277405   3.731   2.239  12.079  0.6785 -3.2781 -0.7924
18664TIP3   OH277406   0.260   5.317  11.243 -0.1017 -0.4511  0.3275
18664TIP3    H177407   0.252   5.239  11.189 -1.6268  0.8930 -1.4679
18664TIP3    H277408   0.217   5.294  11.326  0.9253 -2.0295  0.4375
18665TIP3   OH277409   1.665   4.385   1.540 -0.7540  0.4471 -0.2638
18665TIP3    H177410   1.696   4.465   1.582  0.6810  0.3355 -1.0618
18665TIP3    H277411   1.744   4.347   1.501 -1.8912  0.0431 -2.1986
18666TIP3   OH277412   1.333   1.633  11.461  0.5111  0.0711 -0.3013
18666TIP3    H177413   1.258   1.683  11.428 -0.0395 -0.0402  0.7968
18666TIP3    H277414   1.384   1.696  11.512 -0.7914 -0.7536  2.0571
18667TIP3   OH277415   1.119   2.614   1.379  0.0474 -0.1263 -0.0676
18667TIP3    H177416   1.043   2.654   1.337  1.2491  3.3499  0.8702
18667TIP3    H277417   1.183   2.603   1.309 -0.6731 -1.4765 -0.5324
18668TIP3   OH277418   3.870   4.026   3.311 -0.0976 -0.0793 -0.5501
18668TIP3    H177419   3.885   3.942   3.267  2.9105 -0.7091  1.5431
18668TIP3    H277420   3.851   4.087   3.239  2.4531 -1.5481 -2.5678
18669TIP3   OH277421   1.065   1.961   4.228  0.0320  0.1750 -0.8134
18669TIP3    H177422   1.023   2.029   4.175  1.1358  1.7389  0.2786
18669TIP3    H277423   1.076   2.001   4.315  2.5240 -0.6697 -0.6971
18670TIP3   OH277424   2.765   5.072   5.667 -0.4595 -0.1323 -0.1375
18670TIP3    H177425   2.742   5.096   5.756 -1.3712 -3.0373  0.4645
18670TIP3    H277426   2.681   5.069   5.620 -0.3421 -1.7057 -0.2748
18671TIP3   OH277427   0.362   1.514   0.963  0.5214 -0.5187 -0.4210
18671TIP3    H177428   0.382   1.445   1.026  0.6120  0.4875  0.6731
18671TIP3    H277429   0.296   1.568   1.006 -0.6530 -0.7603 -1.8634
18672TIP3   OH277430   6.551   4.690   5.283  0.1410 -0.1711 -0.0360
18672TIP3    H177431   6.456   4.682   5.281 -0.0779  1.6733  1.8230
18672TIP3    H277432   6.583   4.611   5.239 -2.2407 -0.6463 -0.9451
18673TIP3   OH277433   0.263   6.150  15.116  0.4819 -0.2298 -0.3343
18673TIP3    H177434   0.301   6.145  15.204  0.6420 -0.9866 -0.4449
18673TIP3    H277435   0.286   6.067  15.075  1.1109  0.4451 -1.3790
18674TIP3   OH277436   0.226   4.502  12.926  0.1400 -0.1894 -0.8137
18674TIP3    H177437   0.295   4.480  12.989  0.1703  1.2161 -0.3509
18674TIP3    H277438   0.213   4.421  12.876  2.5933 -0.2671 -1.3667
18675TIP3   OH277439   4.724   4.983   5.118  0.1918 -0.1546  0.0617
18675TIP3    H177440   4.634   5.014   5.108  1.0147  1.7750 -1.6751
18675TIP3    H277441   4.766   5.049   5.173  0.4167 -1.3688  1.3765
18676TIP3   OH277442   5.044   0.032   4.388 -0.4455  0.0383 -0.1559
18676TIP3    H177443   5.078   0.070   4.307  1.4456 -1.7116 -0.2086
18676TIP3    H277444   5.097   0.073   4.457  1.0054 -1.7948 -0.1518
18677TIP3   OH277445   0.099   4.123  15.369 -0.0680 -1.3205  0.2526
18677TIP3    H177446   0.168   4.140  15.434 -1.0506 -0.7402  1.1515
18677TIP3    H277447   0.136   4.053  15.314  0.6047 -2.1356  1.6942
18678TIP3   OH277448   3.291   6.555  12.107 -0.2822 -0.2315 -0.1888
18678TIP3    H177449   3.214   6.601  12.074 -0.5484 -0.3173  0.3102
18678TIP3    H277450   3.267   6.528  12.195  0.7788  0.8630  0.4598
18679TIP3   OH277451   6.599   1.925   1.507  0.1026  0.0283 -0.6053
18679TIP3    H177452   6.637   2.010   1.485 -1.3291  0.6073 -0.9060
18679TIP3    H277453   6.601   1.876   1.424 -1.3086  0.6492 -1.0100
18680TIP3   OH277454   0.746   0.163   2.705 -0.0838  0.2136  0.6398
18680TIP3    H177455   0.838   0.160   2.679 -0.4594  1.1863 -0.8770
18680TIP3    H277456   0.698   0.148   2.624 -1.2633 -0.7091  1.5011
18681TIP3   OH277457   2.840   6.505   3.754 -0.8245 -0.2450 -0.0274
18681TIP3    H177458   2.849   6.511   3.659 -0.7789 -0.4979 -0.0398
18681TIP3    H277459   2.820   6.594   3.782  1.2737  0.2368 -0.0328
18682TIP3   OH277460   4.350   0.134  15.721  0.1694 -0.0116  0.6272
18682TIP3    H177461   4.412   0.207  15.728 -1.2234  1.5603 -2.4178
18682TIP3    H277462   4.264   0.174  15.734 -0.6418 -1.0333 -1.3457
18683TIP3   OH277463   2.207   0.446   4.257  0.1961  0.2879  0.2443
18683TIP3    H177464   2.176   0.535   4.238 -1.4100 -0.5409 -1.0780
18683TIP3    H277465   2.174   0.428   4.345  0.5469  1.0013  0.5308
18684TIP3   OH277466   6.601   5.453   5.676 -0.2769  0.1591 -0.7250
18684TIP3    H177467   6.629   5.517   5.611  1.4296 -0.0428 -0.1942
18684TIP3    H277468   6.662   5.380   5.667  0.0072  0.1298  1.1015
18685TIP3   OH277469   5.611   2.577  14.587  0.1876 -0.0091  0.3569
18685TIP3    H177470   5.661   2.496  14.577  0.2620  0.0026  0.6218
18685TIP3    H277471   5.562   2.565  14.668  2.8764  1.5985  2.3036
18686TIP3   OH277472   3.611   5.805  10.967  0.1060 -0.3085  0.5157
18686TIP3    H177473   3.541   5.786  11.030 -0.2883  1.1253  0.5345
18686TIP3    H277474   3.586   5.757  10.888 -2.3833  2.2844 -0.3978
18687TIP3   OH277475   0.276   0.162   2.366  0.1350 -0.1131  0.3062
18687TIP3    H177476   0.365   0.181   2.395 -0.1215  1.2505  0.2122
18687TIP3    H277477   0.288   0.100   2.293  0.9400 -0.7721  0.9816
18688TIP3   OH277478   3.954   4.311   3.427 -0.0762  0.5373 -0.1986
18688TIP3    H177479   3.868   4.271   3.418 -0.0251  0.0140  1.3896
18688TIP3    H277480   4.009   4.243   3.466  0.8576  1.0962 -0.5158
18689TIP3   OH277481   5.841   4.854   3.288 -0.0233  0.0952 -0.7848
18689TIP3    H177482   5.746   4.860   3.296  0.0813  1.4311 -0.4852
18689TIP3    H277483   5.856   4.772   3.240 -1.1798 -1.6227  1.6868
18690TIP3   OH277484   1.927   3.597   1.199  0.1422 -0.0016 -0.0204
18690TIP3    H177485   1.968   3.643   1.273  1.4217 -1.8851  0.4659
18690TIP3    H277486   1.946   3.505   1.215 -2.4322 -0.7332 -0.9547
18691TIP3   OH277487   5.992   3.340   5.397  0.3520  0.3207  0.0156
18691TIP3    H177488   5.989   3.303   5.486 -0.0641 -0.5301 -0.3493
18691TIP3    H277489   5.995   3.435   5.411  2.1171  0.1389  0.9706
18692TIP3   OH277490   5.106   2.305   1.421 -0.0035 -0.2474  0.0115
18692TIP3    H177491   5.149   2.271   1.500  0.0002 -0.5932 -0.1387
18692TIP3    H277492   5.055   2.380   1.452 -0.3857 -0.6769  0.4273
18693TIP3   OH277493   2.834   5.858  11.792 -0.1625 -0.4375  0.0885
18693TIP3    H177494   2.909   5.817  11.749  0.1545  0.8077 -0.5585
18693TIP3    H277495   2.870   5.896  11.872  0.4568  2.5393 -1.5677
18694TIP3   OH277496   3.232   1.658   2.536 -0.2781 -0.0342 -0.1993
18694TIP3    H177497   3.289   1.716   2.587 -0.0163 -0.5955  0.1512
18694TIP3    H277498   3.243   1.687   2.446  0.2316  0.1382 -0.0847
18695TIP3   OH277499   6.022   0.489   0.289  0.3888 -0.3630 -0.2371
18695TIP3    H177500   6.080   0.414   0.298  0.5690 -0.0935  0.8236
18695TIP3    H277501   5.942   0.464   0.335  1.2569  0.9417  2.0288
18696TIP3   OH277502   3.599   3.328  11.046  0.5259 -0.2859 -0.1294
18696TIP3    H177503   3.625   3.326  10.954  0.7402  0.7098 -0.0949
18696TIP3    H277504   3.679   3.306  11.094  1.3791  2.7685 -0.0247
18697TIP3   OH277505   0.676   5.904   2.640  1.1516  0.2649  0.5296
18697TIP3    H177506   0.764   5.906   2.603  1.8173  1.6451  2.1765
18697TIP3    H277507   0.689   5.897   2.734 -0.5218 -0.2756  0.7404
18698TIP3   OH277508   6.722   4.131  13.114 -0.4977  0.8722  0.6428
18698TIP3    H177509   6.649   4.190  13.095 -0.8141  0.1360 -0.5383
18698TIP3    H277510   6.723   4.070  13.039  0.0773 -0.3352  1.6103
18699TIP3   OH277511   1.995   6.076   2.928  0.0293 -0.4572  1.0545
18699TIP3    H177512   2.026   5.992   2.894  0.2496  0.2347 -0.5355
18699TIP3    H277513   1.950   6.055   3.010  0.1138 -2.1136  0.6848
18700TIP3   OH277514   4.447   0.622   2.498  0.2718 -0.0769  0.2069
18700TIP3    H177515   4.514   0.573   2.449 -0.6489  0.4017 -1.5429
18700TIP3    H277516   4.411   0.557   2.559  1.8937 -0.5031  0.7483
18701TIP3   OH277517   3.781   1.943   4.316 -0.6031 -0.6104 -0.5133
18701TIP3    H177518   3.702   1.918   4.269 -0.6664  1.1654 -1.4142
18701TIP3    H277519   3.765   2.033   4.344  1.3335 -0.0018 -1.2582
18702TIP3   OH277520   2.139   2.924  14.851 -0.2728  0.1838  0.4408
18702TIP3    H177521   2.234   2.916  14.842 -0.1883 -1.2891  2.4128
18702TIP3    H277522   2.126   2.984  14.924 -0.8333 -0.7765  1.1518
18703TIP3   OH277523   1.897   5.981  11.547 -0.0071  0.1066 -0.7015
18703TIP3    H177524   1.812   6.025  11.548 -0.0915 -0.0185 -1.8689
18703TIP3    H277525   1.949   6.030  11.483  0.7693  0.1232 -0.0609
18704TIP3   OH277526   2.164   5.119  10.410  0.0622  0.0725  0.2426
18704TIP3    H177527   2.113   5.049  10.369  0.7367 -1.1322  1.4255
18704TIP3    H277528   2.151   5.107  10.504 -1.1228  2.5433  0.4519
18705TIP3   OH277529   6.097   5.733   3.303  0.0967 -0.3799 -0.1132
18705TIP3    H177530   6.156   5.805   3.280 -0.1187  0.4951  1.9515
18705TIP3    H277531   6.078   5.690   3.220 -0.8580  2.7858 -1.6025
18706TIP3   OH277532   2.697   0.480  14.568 -0.3553  0.2320 -0.2652
18706TIP3    H177533   2.746   0.517  14.495  2.8127 -1.0874  1.1157
18706TIP3    H277534   2.751   0.498  14.645 -2.3326 -0.7829  1.4109
18707TIP3   OH277535   3.442   0.689  11.580 -0.8683  0.0674 -0.0920
18707TIP3    H177536   3.425   0.626  11.510 -0.7406  1.6873 -1.5982
18707TIP3    H277537   3.355   0.708  11.616 -0.9543 -0.6178  0.0794
18708TIP3   OH277538   3.590   6.046  12.942 -0.0286  0.2388 -0.4236
18708TIP3    H177539   3.683   6.052  12.963 -0.0731  0.4124 -0.2729
18708TIP3    H277540   3.553   6.129  12.973 -0.8057 -1.0821  2.4146
18709TIP3   OH277541   6.723   2.827   2.980  0.1271 -0.1562 -0.2472
18709TIP3    H177542   6.636   2.837   2.943  0.0739  0.8052  0.1431
18709TIP3    H277543   6.712   2.840   3.074  0.3432 -2.1622  0.0718
18710TIP3   OH277544   3.972   5.518  14.702  0.2574  0.0690 -0.5070
18710TIP3    H177545   3.922   5.479  14.630 -0.9367 -0.6660  0.6921
18710TIP3    H277546   3.925   5.599  14.723  1.5841  1.1709 -1.6607
18711TIP3   OH277547   3.015   2.946   1.601  0.4476 -0.2363 -0.4280
18711TIP3    H177548   2.951   2.937   1.531  1.1375  0.4781 -1.1497
18711TIP3    H277549   3.073   3.017   1.573 -0.1297  1.0376  1.5192
18712TIP3   OH277550   2.853   6.013   4.509  0.0529 -0.2141 -0.9075
18712TIP3    H177551   2.858   6.027   4.415 -0.6011  0.1048 -0.8982
18712TIP3    H277552   2.759   6.005   4.527  0.3061 -2.9353 -0.6686
18713TIP3   OH277553   2.213   5.921   4.279 -0.1304 -0.6644  0.5670
18713TIP3    H177554   2.308   5.909   4.279 -0.0035  0.2205  1.2468
18713TIP3    H277555   2.182   5.864   4.350 -0.1404 -1.2040  0.1271
18714TIP3   OH277556   6.177   6.744  16.621  0.1705  0.5666  0.0750
18714TIP3    H177557   6.270   6.722  16.625 -0.7522 -4.0809 -0.8734
18714TIP3    H277558   6.133   6.660  16.608 -4.0114  2.9494 -2.2307
18715TIP3   OH277559   2.447   2.269  12.150  0.0956  0.2280 -0.5851
18715TIP3    H177560   2.424   2.273  12.058  0.8255 -0.4920 -0.8061
18715TIP3    H277561   2.455   2.175  12.169 -1.1764  0.3174  0.4924
18716TIP3   OH277562   4.317   0.754  11.856  0.3281  0.1853 -0.1998
18716TIP3    H177563   4.258   0.696  11.903  0.6991  1.4696  1.9337
18716TIP3    H277564   4.263   0.831  11.834  0.3018 -0.1679 -1.3898
18717TIP3   OH277565   3.202   4.524  11.278 -0.3844  0.4667 -0.2939
18717TIP3    H177566   3.237   4.435  11.283  0.3631  0.6244 -2.5177
18717TIP3    H277567   3.255   4.574  11.339  1.1447  0.0166 -1.2477
18718TIP3   OH277568   1.351   2.041   0.582  0.2567  0.2851 -0.2576
18718TIP3    H177569   1.307   2.125   0.578  0.6477  0.5931  1.6779
18718TIP3    H277570   1.444   2.063   0.585  0.4443 -0.2820 -1.5430
18719TIP3   OH277571   3.761   5.776  15.662 -0.0916  0.2945 -0.0003
18719TIP3    H177572   3.820   5.839  15.621 -0.4530 -0.4020 -1.6499
18719TIP3    H277573   3.714   5.827  15.728  0.7663  1.3704 -0.1991
18720TIP3   OH277574   2.191   3.840  15.254  0.0425 -0.3713  0.5091
18720TIP3    H177575   2.171   3.932  15.234 -0.0103 -0.0807  1.8791
18720TIP3    H277576   2.221   3.804  15.170 -0.9273  0.6175 -0.2857
18721TIP3   OH277577   1.275   0.582  12.218  0.2966 -0.7079  0.5338
18721TIP3    H177578   1.260   0.653  12.155  0.7561  0.5329  1.8069
18721TIP3    H277579   1.323   0.623  12.290  1.1764 -2.4694  0.9824
18722TIP3   OH277580   1.792   5.199   0.630 -0.2163 -0.2390 -0.3301
18722TIP3    H177581   1.871   5.215   0.577 -0.0794 -0.3669 -0.1634
18722TIP3    H277582   1.825   5.177   0.717 -0.4744  1.3486  0.1808
18723TIP3   OH277583   3.482   5.330  17.159  0.2345 -0.5125  0.1593
18723TIP3    H177584   3.444   5.248  17.128 -0.6586 -0.3764  0.8678
18723TIP3    H277585   3.547   5.303  17.224 -1.6006 -0.5796  1.9916
18724TIP3   OH277586   1.563   4.328  15.626  0.8697  0.3927  0.1987
18724TIP3    H177587   1.481   4.375  15.636  0.1710 -0.3142 -1.9903
18724TIP3    H277588   1.604   4.365  15.548  2.0888 -0.0765  0.5882
18725TIP3   OH277589   4.527   2.541  12.298  0.0998  0.1705  0.6183
18725TIP3    H177590   4.587   2.467  12.301 -2.0566 -1.6175  1.1056
18725TIP3    H277591   4.560   2.596  12.226  1.3176 -1.6236 -0.2299
18726TIP3   OH277592   4.064   6.285   2.724  0.3069 -0.0673  0.1481
18726TIP3    H177593   3.992   6.228   2.700  1.0304 -1.1763  0.6004
18726TIP3    H277594   4.107   6.306   2.641 -0.5816  0.6681 -0.1311
18727TIP3   OH277595   5.313   0.257   5.923 -0.4235  0.0270 -0.1718
18727TIP3    H177596   5.224   0.288   5.938 -0.6053  0.1448 -1.3998
18727TIP3    H277597   5.340   0.218   6.006 -1.7349 -0.2858  0.1203
18728TIP3   OH277598   2.106   3.366  13.113 -0.0825  0.2466 -0.1425
18728TIP3    H177599   2.054   3.302  13.161  0.3582  0.3750  0.5139
18728TIP3    H277600   2.044   3.408  13.054 -0.5249 -0.2664 -0.0451
18729TIP3   OH277601   2.040   4.244  12.214  0.3299  0.1666  0.7799
18729TIP3    H177602   2.119   4.214  12.259 -0.2995 -0.0359  1.7519
18729TIP3    H277603   1.971   4.236  12.279 -0.5881 -0.1263 -0.2302
18730TIP3   OH277604   2.057   1.229  14.245  0.1358 -0.6393 -0.4609
18730TIP3    H177605   1.975   1.222  14.294  0.6902 -3.9084  0.1194
18730TIP3    H277606   2.124   1.202  14.308  1.7418  2.2690 -0.8489
18731TIP3   OH277607   6.667   3.832   1.800  0.3804  0.3529  0.1575
18731TIP3    H177608   6.753   3.872   1.792 -0.0284  1.2862  0.3745
18731TIP3    H277609   6.626   3.846   1.714 -0.5364  2.2307  0.8854
18732TIP3   OH277610   1.950   6.729  12.631 -0.6117  0.4270 -0.2469
18732TIP3    H177611   2.009   6.773  12.691  0.4280 -0.5984 -0.5082
18732TIP3    H277612   1.992   6.645  12.611 -0.8809  0.7785 -2.4709
18733TIP3   OH277613   6.698   1.543   3.830 -0.3478 -0.4615  0.5911
18733TIP3    H177614   6.645   1.617   3.858  1.1876  1.7297 -2.0250
18733TIP3    H277615   6.670   1.525   3.741  0.8147 -1.6085  0.4299
18734TIP3   OH277616   6.170   0.449   3.105 -0.2201 -0.1866 -0.3434
18734TIP3    H177617   6.226   0.437   3.182 -0.6467 -1.4492 -0.2226
18734TIP3    H277618   6.081   0.437   3.138 -0.6438  2.5487 -0.3833
18735TIP3   OH277619   5.337   1.593   6.551 -0.4039 -0.0962  0.5225
18735TIP3    H177620   5.332   1.646   6.472 -1.4420 -1.0597 -0.0760
18735TIP3    H277621   5.385   1.515   6.525 -2.8476 -1.5317  0.1781
18736TIP3   OH277622   2.196   2.387   4.251 -0.1092  0.3621 -0.9749
18736TIP3    H177623   2.233   2.388   4.163 -1.3053  1.1024 -1.4809
18736TIP3    H277624   2.126   2.452   4.248  0.1667  0.7649  0.6647
18737TIP3   OH277625   5.113   3.107  12.254 -0.4461  0.4213  0.1320
18737TIP3    H177626   5.175   3.050  12.299  0.9952  1.6437 -0.2814
18737TIP3    H277627   5.103   3.068  12.167 -0.0766  0.3575  0.1194
18738TIP3   OH277628   2.643   1.862   2.295  0.3263  0.1591 -0.1559
18738TIP3    H177629   2.563   1.819   2.326  1.0761 -1.1904 -0.0068
18738TIP3    H277630   2.680   1.902   2.374 -0.3003  0.9364 -0.2611
18739TIP3   OH277631   3.266   0.200  16.517  0.8192  0.2346  0.0658
18739TIP3    H177632   3.330   0.231  16.581  0.2585  0.6600  0.4232
18739TIP3    H277633   3.245   0.111  16.546  1.4876 -0.0317 -0.2445
18740TIP3   OH277634   4.659   3.211  16.405  0.8095 -0.0323  0.4629
18740TIP3    H177635   4.609   3.269  16.347  1.0855  1.2191  1.4535
18740TIP3    H277636   4.718   3.270  16.452  2.8405 -1.4223 -0.3011
18741TIP3   OH277637   3.082   3.864   3.603  0.2539 -0.6738 -0.5204
18741TIP3    H177638   3.033   3.944   3.587 -2.7846 -2.2306  0.5462
18741TIP3    H277639   3.089   3.822   3.517 -0.0385 -0.2826 -0.7326
18742TIP3   OH277640   0.215   0.451  15.699  0.5516  0.3552 -0.0628
18742TIP3    H177641   0.222   0.355  15.692 -0.3061  0.2243  0.7416
18742TIP3    H277642   0.301   0.479  15.730  0.0784 -0.3993  2.0097
18743TIP3   OH277643   3.083   1.195  16.973  0.3313 -0.5097  0.0530
18743TIP3    H177644   3.111   1.104  16.970 -0.4263 -0.7268 -0.6048
18743TIP3    H277645   3.033   1.208  16.892 -1.7991 -0.2553  1.3638
18744TIP3   OH277646   3.263   0.387  11.644 -0.2360  0.2923  0.6491
18744TIP3    H177647   3.183   0.348  11.609 -0.2363  1.6266 -0.8923
18744TIP3    H277648   3.240   0.478  11.661  0.8163  0.5612  0.6841
18745TIP3   OH277649   1.415   6.161   1.853  0.1669  0.2503  0.1330
18745TIP3    H177650   1.481   6.104   1.814 -0.6346  1.4810 -3.2213
18745TIP3    H277651   1.332   6.115   1.839  0.1449 -0.7812  3.3392
18746TIP3   OH277652   3.757   4.273  13.231 -0.3093  0.5741 -0.2292
18746TIP3    H177653   3.845   4.305  13.209  0.0810  0.3464  1.0070
18746TIP3    H277654   3.738   4.209  13.162  0.7293  0.2094 -0.1968
18747TIP3   OH277655   5.286   2.626  13.139 -0.3767 -0.1631  0.2458
18747TIP3    H177656   5.286   2.681  13.217  0.5159  1.2226 -0.7137
18747TIP3    H277657   5.308   2.539  13.171 -0.2598  0.3424  1.5765
18748TIP3   OH277658   0.627   3.303  12.972  0.4277  0.1901  0.5863
18748TIP3    H177659   0.632   3.393  13.002  0.2107  0.8321 -1.2353
18748TIP3    H277660   0.625   3.309  12.876 -1.1392 -1.6456  0.4497
18749TIP3   OH277661   4.284   4.652  16.690 -0.5821 -0.3787 -0.4434
18749TIP3    H177662   4.248   4.627  16.776  0.5689 -0.7102 -0.0404
18749TIP3    H277663   4.357   4.710  16.711  0.2827 -1.1905 -1.1593
18750TIP3   OH277664   2.139   5.898  14.796  0.1161  0.1892  0.6267
18750TIP3    H177665   2.152   5.806  14.775  1.9831  0.6311 -0.3705
18750TIP3    H277666   2.224   5.926  14.832 -0.3175  1.5751  0.5985
18751TIP3   OH277667   4.288   5.749   6.091  0.1375  0.0782 -0.3339
18751TIP3    H177668   4.350   5.693   6.043 -0.2681 -2.0323  1.5481
18751TIP3    H277669   4.204   5.705   6.082 -0.1171  0.1769  1.5387
18752TIP3   OH277670   1.337   6.583   3.735 -1.0762 -0.2132 -0.4002
18752TIP3    H177671   1.249   6.555   3.762 -0.0646 -0.7654  2.4070
18752TIP3    H277672   1.359   6.654   3.796  0.4143 -0.0454 -1.1262
18753TIP3   OH277673   0.869   2.369   4.249 -0.1624 -0.3655 -0.2843
18753TIP3    H177674   0.895   2.448   4.201  1.2801 -0.2136  0.6747
18753TIP3    H277675   0.944   2.351   4.306 -1.7318 -0.6385  1.7552
18754TIP3   OH277676   4.509   3.054  14.731 -0.1500 -0.9514  0.8259
18754TIP3    H177677   4.490   3.139  14.692  1.0438 -1.0891 -0.0972
18754TIP3    H277678   4.437   3.038  14.792 -0.5381  0.5727  0.7705
18755TIP3   OH277679   5.740   1.236   3.210 -0.2897 -0.1890 -0.1304
18755TIP3    H177680   5.799   1.161   3.197  0.9514  0.6101  0.7931
18755TIP3    H277681   5.773   1.278   3.289 -2.1049  0.2880  0.3929
18756TIP3   OH277682   3.738   2.390  16.165  0.0875 -0.3956 -0.2795
18756TIP3    H177683   3.814   2.426  16.119 -1.0252  0.8040 -1.1834
18756TIP3    H277684   3.723   2.305  16.123  0.2086 -0.1247 -0.8747
18757TIP3   OH277685   4.206   0.645  15.916  0.6041 -0.5145  0.0149
18757TIP3    H177686   4.249   0.622  15.999  0.6594  1.7760  0.6487
18757TIP3    H277687   4.135   0.703  15.942  0.5902  0.1660 -1.5353
18758TIP3   OH277688   4.150   2.999  15.756 -0.3687 -0.1191  0.0483
18758TIP3    H177689   4.064   3.029  15.785 -0.1569  0.5037  0.0449
18758TIP3    H277690   4.131   2.923  15.701 -0.8073 -0.9576  1.3395
18759TIP3   OH277691   5.804   2.958   6.558 -0.4729  0.0747  0.6121
18759TIP3    H177692   5.746   2.892   6.519 -1.3603  0.7837  0.7226
18759TIP3    H277693   5.892   2.931   6.532 -0.6986 -1.9896  1.9156
18760TIP3   OH277694   2.109   4.075  10.958  0.1598  0.1911 -0.5943
18760TIP3    H177695   2.154   4.152  10.923  0.1453  0.5167  0.0997
18760TIP3    H277696   2.026   4.072  10.910  1.2998 -0.9470 -2.5471
18761TIP3   OH277697   6.385   6.752   2.539  0.4064  0.1248  0.4348
18761TIP3    H177698   6.426   6.777   2.622 -0.0250  1.8157  0.1560
18761TIP3    H277699   6.293   6.737   2.561  0.3679  0.2020  0.3243
18762TIP3   OH277700   3.426   5.930  14.954  0.2644 -0.1203 -0.2333
18762TIP3    H177701   3.402   5.938  14.862  0.9900 -2.1837 -0.6115
18762TIP3    H277702   3.382   6.004  14.996 -1.6878 -0.3043 -1.8936
18763TIP3   OH277703   3.630   1.065   0.896  0.5735 -0.6077 -0.0650
18763TIP3    H177704   3.673   1.070   0.810  0.6796 -1.4369 -0.0669
18763TIP3    H277705   3.543   1.028   0.877  0.6417 -0.9048  0.1952
18764TIP3   OH277706   0.055   3.598  16.564 -0.2243 -0.0237  0.0991
18764TIP3    H177707   0.092   3.534  16.503  2.6807  1.7608 -0.0691
18764TIP3    H277708   0.125   3.617  16.626 -1.5396  1.8377  1.0801
18765TIP3   OH277709   3.759   3.952  14.464  0.2109  0.4483  0.0911
18765TIP3    H177710   3.801   3.902  14.394 -0.6933 -1.6184  0.9769
18765TIP3    H277711   3.831   3.977  14.522  0.5384 -0.9167  0.2868
18766TIP3   OH277712   2.175   0.644   3.834  0.2361  0.5468 -0.0756
18766TIP3    H177713   2.155   0.703   3.906 -0.9014  0.1961 -0.0890
18766TIP3    H277714   2.147   0.558   3.866 -0.5513  0.4324 -1.0298
18767TIP3   OH277715   6.727   1.195  13.150 -0.2375 -0.3484 -0.4505
18767TIP3    H177716   6.797   1.249  13.113  0.3238 -0.7220  0.0356
18767TIP3    H277717   6.764   1.163  13.233 -0.4739 -1.6466 -0.8337
18768TIP3   OH277718   1.575   1.320  16.316  0.0649 -0.0810 -0.6924
18768TIP3    H177719   1.585   1.229  16.288 -0.3952 -0.3271 -0.0587
18768TIP3    H277720   1.601   1.319  16.408  0.5963  0.5357 -0.8331
18769TIP3   OH277721   3.802   1.786   5.385  0.2909 -0.3456 -0.1901
18769TIP3    H177722   3.889   1.812   5.353 -0.0907  0.2013 -0.7867
18769TIP3    H277723   3.795   1.693   5.362  0.4296 -0.2120 -0.7721
18770TIP3   OH277724   0.895   6.333   1.118 -0.2932 -0.2283 -0.8411
18770TIP3    H177725   0.939   6.249   1.105  0.5556  0.3081 -1.4945
18770TIP3    H277726   0.934   6.368   1.199 -0.6624 -0.4763 -0.5574
18771TIP3   OH277727   5.828   2.872   5.943  0.0362  0.0091  0.3635
18771TIP3    H177728   5.824   2.948   5.886 -0.3005 -0.2146  0.0816
18771TIP3    H277729   5.746   2.876   5.993  0.2825  0.1484  0.7564
18772TIP3   OH277730   0.016   3.120   5.344  0.1224 -0.6329 -0.3464
18772TIP3    H177731   0.020   3.050   5.278  0.8063 -1.0260  0.0973
18772TIP3    H277732  -0.073   3.116   5.378  0.4857 -2.0788  0.4952
18773TIP3   OH277733   5.984   3.397   1.477 -0.3437 -0.0424 -0.9029
18773TIP3    H177734   5.911   3.381   1.536  0.0120 -0.9645 -0.7047
18773TIP3    H277735   5.995   3.492   1.477 -0.5054 -0.0171  0.3297
18774TIP3   OH277736   5.933   4.721   3.720 -0.0270 -0.0933  0.2759
18774TIP3    H177737   5.898   4.671   3.646 -1.4002  0.4577  0.5412
18774TIP3    H277738   5.913   4.812   3.698  0.1019  0.1230  1.0548
18775TIP3   OH277739   2.905   6.080  17.025  0.2248  0.4331  0.0751
18775TIP3    H177740   2.979   6.026  16.996 -0.4951 -1.3116  1.3929
18775TIP3    H277741   2.839   6.069  16.957 -0.8527 -2.3681  1.4824
18776TIP3   OH277742   2.513   6.372  12.323 -0.1907  0.4508  0.3283
18776TIP3    H177743   2.467   6.337  12.246 -0.5847  2.1518 -0.2343
18776TIP3    H277744   2.593   6.320  12.329 -1.2283 -1.2234  0.1343
18777TIP3   OH277745   4.194   2.321  12.491 -0.2135 -0.2296 -0.1554
18777TIP3    H177746   4.130   2.389  12.515 -0.9439 -1.4813  1.5300
18777TIP3    H277747   4.176   2.303  12.399 -1.4931  0.3107 -0.0275
18778TIP3   OH277748   2.138   4.171   0.440  0.2730  0.1409 -0.1921
18778TIP3    H177749   2.216   4.226   0.444  0.7701 -0.6038  0.4580
18778TIP3    H277750   2.083   4.203   0.512  0.7505 -0.4811  0.4615
18779TIP3   OH277751   5.234   5.646  13.345  0.1988  0.4159  0.1861
18779TIP3    H177752   5.268   5.731  13.375 -2.5555  1.7431 -0.2893
18779TIP3    H277753   5.199   5.605  13.424 -0.4998  0.7302  0.0460
18780TIP3   OH277754   2.510   6.223  17.232 -0.0941 -0.9432 -0.9555
18780TIP3    H177755   2.439   6.217  17.167 -2.3779 -1.4244  1.4792
18780TIP3    H277756   2.470   6.267  17.307  2.5520 -0.1882  0.0558
18781TIP3   OH277757   1.026   6.131   5.010  0.7101  0.0779  0.5532
18781TIP3    H177758   1.112   6.107   4.976  1.8735  2.7076  1.5018
18781TIP3    H277759   1.028   6.102   5.102  0.2251 -0.6779  0.3305
18782TIP3   OH277760   3.321   5.071  10.840 -0.4785  0.3196  1.5422
18782TIP3    H177761   3.308   4.977  10.856 -0.2545 -0.4887 -2.6122
18782TIP3    H277762   3.409   5.089  10.874 -0.6276 -0.8981  2.6094
18783TIP3   OH277763   4.226   3.855   6.825  0.1177  0.0933  0.1801
18783TIP3    H177764   4.242   3.943   6.790  2.1835 -0.7106 -0.9302
18783TIP3    H277765   4.149   3.824   6.777 -1.2350  1.6381  1.2759
18784TIP3   OH277766   6.172   5.763  16.791  0.0217  0.2106  0.2972
18784TIP3    H177767   6.137   5.703  16.857  1.4508  0.7110  1.5498
18784TIP3    H277768   6.139   5.730  16.708 -1.8885 -0.3838  1.2698
18785TIP3   OH277769   5.341   6.213   3.453  0.2377 -0.0110 -0.3480
18785TIP3    H177770   5.309   6.192   3.366 -0.4488 -0.4688  0.0183
18785TIP3    H277771   5.365   6.306   3.448 -1.1304  0.3293 -0.6202
18786TIP3   OH277772   1.332   6.527  15.122 -0.2234 -0.0660  0.1245
18786TIP3    H177773   1.255   6.482  15.155  0.0211 -0.2381  0.4656
18786TIP3    H277774   1.298   6.608  15.084 -0.8520 -1.3075 -2.0430
18787TIP3   OH277775   6.224   5.378  12.824  1.0598 -0.2257 -0.1053
18787TIP3    H177776   6.154   5.401  12.762  0.7367  0.2225  0.4168
18787TIP3    H277777   6.300   5.362  12.769  1.0528  1.1857 -0.5594
18788TIP3   OH277778   2.598   6.667  12.017 -0.2021 -0.8373 -0.0706
18788TIP3    H177779   2.576   6.582  11.979 -4.1990  0.4616 -0.8565
18788TIP3    H277780   2.541   6.674  12.094 -1.0117  1.7174 -0.8676
18789TIP3   OH277781   2.450   3.318  12.428  0.0863 -0.3566 -0.4778
18789TIP3    H177782   2.397   3.245  12.395  0.3719 -0.1229 -1.4816
18789TIP3    H277783   2.463   3.298  12.520 -0.3762 -1.2550 -0.5974
18790TIP3   OH277784   4.684   5.019  13.124 -0.1704  0.0995 -0.2145
18790TIP3    H177785   4.752   4.951  13.124  0.4208  0.6621 -1.4053
18790TIP3    H277786   4.602   4.971  13.125  0.2426 -0.6478 -0.9065
18791TIP3   OH277787   0.433   0.472  15.226  0.3298 -0.8486  0.0377
18791TIP3    H177788   0.438   0.474  15.130  1.1602  0.1999  0.0889
18791TIP3    H277789   0.342   0.495  15.246  1.0046  2.6411 -0.4486
18792TIP3   OH277790   2.847   1.828  13.338 -0.0478  0.5870  0.7538
18792TIP3    H177791   2.809   1.741  13.336  1.1974  0.0264  1.2052
18792TIP3    H277792   2.804   1.875  13.266 -1.3016 -0.1386  1.0091
18793TIP3   OH277793   1.301   6.076   1.487  0.3186 -0.2460  0.0028
18793TIP3    H177794   1.368   6.021   1.527  1.7251 -0.9566 -3.1442
18793TIP3    H277795   1.241   6.013   1.445 -0.4753  0.4786  0.0531
18794TIP3   OH277796   4.141   2.887  15.217 -0.8320  0.0262 -0.1029
18794TIP3    H177797   4.161   2.805  15.172 -2.7399 -1.7101  2.1247
18794TIP3    H277798   4.226   2.932  15.223  0.0766 -1.3486 -2.1332
18795TIP3   OH277799   6.336   0.207  15.404 -0.0436  0.3555 -0.1620
18795TIP3    H177800   6.251   0.176  15.436 -0.0551  0.1680 -0.3744
18795TIP3    H277801   6.350   0.290  15.450 -0.9090  0.9923 -1.0563
18796TIP3   OH277802   0.477   0.293  14.372  0.2495  0.7445 -0.0621
18796TIP3    H177803   0.544   0.228  14.392 -0.2425 -0.1201 -1.1574
18796TIP3    H277804   0.509   0.335  14.292 -1.0112 -0.4039 -1.1919
18797TIP3   OH277805   3.673   6.082  14.010 -0.3739  0.4479 -0.5601
18797TIP3    H177806   3.599   6.139  13.991 -1.0357 -0.0986  0.3637
18797TIP3    H277807   3.634   6.001  14.043  0.5154 -0.8665 -2.6347
18798TIP3   OH277808   3.378   4.373  16.479 -0.6486 -0.4920  0.1584
18798TIP3    H177809   3.457   4.426  16.470  0.7192 -2.5744 -0.3923
18798TIP3    H277810   3.315   4.414  16.419  1.1301 -0.8185 -2.0031
18799TIP3   OH277811   3.907   4.898   2.267  0.1414 -0.4064 -0.4206
18799TIP3    H177812   3.960   4.822   2.243  0.3456 -0.6341  0.7411
18799TIP3    H277813   3.826   4.862   2.301  0.3057 -0.1144  0.2942
18800TIP3   OH277814   2.431   5.997  14.344  0.2086  0.6523  0.5667
18800TIP3    H177815   2.423   6.062  14.414  1.3778  1.4172  0.0051
18800TIP3    H277816   2.410   6.045  14.264  0.0808  0.0859  0.2550
18801TIP3   OH277817   3.526   4.362  14.901  0.3815 -0.1026  0.5950
18801TIP3    H177818   3.434   4.339  14.918  0.2551 -0.3469 -0.3902
18801TIP3    H277819   3.522   4.450  14.865  0.3098 -1.0384 -1.7644
18802TIP3   OH277820   2.067   4.197  13.041  0.0905  0.3054 -0.1496
18802TIP3    H177821   2.006   4.270  13.052  0.2542  0.5231 -0.6708
18802TIP3    H277822   2.027   4.143  12.974 -1.4789 -1.6247  2.2747
18803TIP3   OH277823   1.808   2.822  13.107  0.1084 -0.0134 -0.2937
18803TIP3    H177824   1.893   2.836  13.066  0.1079 -0.1187 -0.3314
18803TIP3    H277825   1.806   2.728  13.126 -1.1437 -0.5242 -2.8193
18804TIP3   OH277826   5.237   2.024  14.904  0.5919  0.0022  0.2083
18804TIP3    H177827   5.155   2.004  14.860  0.8987 -0.4606 -0.1668
18804TIP3    H277828   5.286   2.077  14.841  0.8877 -0.3587  0.1317
18805TIP3   OH277829   0.206   5.682  12.484  0.2638  0.0227 -0.0764
18805TIP3    H177830   0.301   5.687  12.500  0.6425 -1.2073 -1.7570
18805TIP3    H277831   0.199   5.644  12.397 -1.7724  1.6669 -0.6760
18806TIP3   OH277832   2.296   4.057  17.000  0.0441 -0.5189  0.2355
18806TIP3    H177833   2.354   4.027  17.069 -0.1696  0.4606  0.8494
18806TIP3    H277834   2.297   4.153  17.007  0.7660 -0.3532 -1.7206
18807TIP3   OH277835   5.521   0.655   0.638  0.5728 -0.4938  0.1545
18807TIP3    H177836   5.526   0.730   0.698  3.1455 -2.5207  2.6515
18807TIP3    H277837   5.595   0.666   0.579 -0.2133 -0.0439 -0.7494
18808TIP3   OH277838   1.576   1.562   5.259  0.3489  0.5289 -0.4307
18808TIP3    H177839   1.491   1.554   5.303  1.8143  0.2907  2.4723
18808TIP3    H277840   1.588   1.479   5.213 -1.1010  0.6647 -1.0578
18809TIP3   OH277841   6.193   0.908   4.263  0.0069  0.3193  0.1250
18809TIP3    H177842   6.125   0.912   4.329 -0.0442 -2.1665  0.2686
18809TIP3    H277843   6.271   0.879   4.310  0.0245 -1.2651 -0.8442
18810TIP3   OH277844   0.291   6.438   3.527 -0.2359 -0.3114 -0.3550
18810TIP3    H177845   0.316   6.465   3.615 -0.7338 -0.5946 -0.1280
18810TIP3    H277846   0.200   6.410   3.535 -0.1593 -0.7129 -0.8775
18811TIP3   OH277847   6.219   5.836  11.238 -0.2288 -0.1072  0.0884
18811TIP3    H177848   6.170   5.894  11.296  0.2089  0.5381 -0.1727
18811TIP3    H277849   6.162   5.823  11.162  0.7056  2.0784 -1.0227
18812TIP3   OH277850   1.664   1.141   4.286 -0.2857 -0.2516 -0.0757
18812TIP3    H177851   1.643   1.050   4.307  0.0238 -0.4105 -0.4539
18812TIP3    H277852   1.736   1.136   4.223 -0.0765  0.2607  0.1110
18813TIP3   OH277853   3.921   5.488   2.295  0.0540  0.0693  0.4530
18813TIP3    H177854   3.883   5.410   2.256  1.3909 -1.0428  1.3387
18813TIP3    H277855   3.895   5.484   2.388  0.1994  0.6247  0.5206
18814TIP3   OH277856   4.348   2.213  16.027  0.7918  0.1103  0.0661
18814TIP3    H177857   4.410   2.181  16.092  1.4078  2.1288  0.5023
18814TIP3    H277858   4.299   2.135  16.000 -1.7232 -0.2745  5.2779
18815TIP3   OH277859   5.253   6.329   2.642 -0.3639  0.0779  0.6643
18815TIP3    H177860   5.202   6.408   2.660  0.4065 -0.0930  3.7915
18815TIP3    H277861   5.193   6.257   2.660 -1.2437 -0.0993 -2.7301
18816TIP3   OH277862   0.778   1.122  16.047  0.0039  0.2095  0.1228
18816TIP3    H177863   0.873   1.123  16.057 -0.0634  0.9013  0.6797
18816TIP3    H277864   0.756   1.030  16.038  0.6505 -0.0072  0.7283
18817TIP3   OH277865   4.542   0.452   3.403 -0.1240 -0.3369  0.0215
18817TIP3    H177866   4.517   0.422   3.490 -0.1385 -0.7252 -0.1149
18817TIP3    H277867   4.511   0.384   3.344  1.1420 -0.7655 -0.1609
18818TIP3   OH277868   5.604   2.327   2.645 -0.0897  0.4763  0.2425
18818TIP3    H177869   5.690   2.341   2.606  0.6804  0.1124  1.7700
18818TIP3    H277870   5.618   2.259   2.711 -1.5052  0.5670  0.6546
18819TIP3   OH277871   2.885   4.340   0.084  0.2042 -0.4645 -0.1025
18819TIP3    H177872   2.790   4.331   0.073 -0.0588  0.2066  1.5264
18819TIP3    H277873   2.902   4.310   0.173  1.3005  0.9897  0.2016
18820TIP3   OH277874   0.182   2.972   1.145  0.1932 -0.0659  0.1605
18820TIP3    H177875   0.227   3.051   1.176  1.2253 -0.4858 -0.2244
18820TIP3    H277876   0.170   2.987   1.051 -1.2876  0.4223  0.4189
18821TIP3   OH277877   0.023   2.148  14.418 -0.0139  0.2277  0.3188
18821TIP3    H177878   0.046   2.085  14.486 -0.3179  0.5750  0.7464
18821TIP3    H277879   0.018   2.096  14.337  1.6951  0.0505  0.3225
18822TIP3   OH277880   2.427   3.437   3.972  0.0324  0.6527 -0.2481
18822TIP3    H177881   2.474   3.413   3.892 -0.6656 -1.1478 -0.1426
18822TIP3    H277882   2.496   3.445   4.038  0.4139  0.2430 -0.5902
18823TIP3   OH277883   1.469   6.699   0.503  0.1441 -0.2276  0.3001
18823TIP3    H177884   1.438   6.787   0.526 -0.8475 -0.8411  1.3133
18823TIP3    H277885   1.397   6.660   0.453  0.7462 -0.3209 -0.5057
18824TIP3   OH277886   3.300   4.064   0.700  0.0521  0.7539  0.1405
18824TIP3    H177887   3.302   4.149   0.657 -0.1216 -0.5660 -2.5671
18824TIP3    H277888   3.388   4.028   0.688 -0.2913 -0.0487 -0.0171
18825TIP3   OH277889   6.068   5.516   5.722  0.2300  0.5575 -0.0941
18825TIP3    H177890   5.974   5.527   5.735  0.1910 -1.1108  1.4237
18825TIP3    H277891   6.078   5.502   5.628 -0.8607  2.1161 -0.4680
18826TIP3   OH277892   0.135   6.332  10.719 -0.2252 -0.5320 -0.6560
18826TIP3    H177893   0.058   6.279  10.740  1.0607 -2.0859  0.1860
18826TIP3    H277894   0.202   6.269  10.693  1.1861  0.6874 -0.0611
18827TIP3   OH277895   4.587   0.211  13.570 -0.3977  0.4251 -0.3630
18827TIP3    H177896   4.536   0.267  13.629 -0.8929 -0.4292  0.0308
18827TIP3    H277897   4.676   0.246  13.575 -0.4570  0.4521  0.7955
18828TIP3   OH277898   4.521   3.094  12.320  0.4069  0.1079 -0.1993
18828TIP3    H177899   4.461   3.165  12.344 -0.7709 -0.4706 -1.3489
18828TIP3    H277900   4.600   3.138  12.290 -0.4413  0.9576 -1.2250
18829TIP3   OH277901   2.526   0.815   0.553  0.1616  0.0110 -0.0055
18829TIP3    H177902   2.617   0.784   0.546 -0.4399 -1.6090 -0.9967
18829TIP3    H277903   2.508   0.816   0.647  0.9574 -0.4315  0.1622
18830TIP3   OH277904   2.597   3.298   0.094 -0.1789  0.4032 -0.3922
18830TIP3    H177905   2.643   3.216   0.079 -0.6987 -0.3094  1.8339
18830TIP3    H277906   2.667   3.363   0.106  0.2236  0.0981 -1.0738
18831TIP3   OH277907   6.387   1.391  16.292  0.0645  0.4753  0.1367
18831TIP3    H177908   6.444   1.440  16.233  0.6624  0.8255  0.9934
18831TIP3    H277909   6.299   1.426  16.276  0.5912  2.4366  1.3253
18832TIP3   OH277910   1.008   6.774  12.865 -0.4382  0.1768 -0.8512
18832TIP3    H177911   1.070   6.716  12.820 -0.4708 -1.1893  0.7795
18832TIP3    H277912   0.940   6.715  12.898 -0.5624  1.1540  0.7018
18833TIP3   OH277913   0.052   2.420  14.353  0.6640  0.8394 -0.0553
18833TIP3    H177914   0.120   2.425  14.286 -0.0903  1.2799 -0.8075
18833TIP3    H277915   0.028   2.328  14.357 -0.1366  0.9819 -1.2762
18834TIP3   OH277916   4.826   2.929   3.512  0.3257  0.1880  0.0688
18834TIP3    H177917   4.878   2.886   3.580  0.2938  0.3752  0.2117
18834TIP3    H277918   4.738   2.893   3.522 -0.1507  1.7135  1.4326
18835TIP3   OH277919   1.896   0.229  12.953 -0.0559 -0.2118 -0.0608
18835TIP3    H177920   1.952   0.305  12.970 -0.6397  0.0378  0.8085
18835TIP3    H277921   1.894   0.221  12.858  1.0932  0.0454 -0.1167
18836TIP3   OH277922   3.271   5.213  15.753  0.4639 -0.3473  0.4946
18836TIP3    H177923   3.253   5.299  15.790  0.5006 -0.1364  0.0281
18836TIP3    H277924   3.187   5.167  15.757  0.3093 -0.0916  0.2249
18837TIP3   OH277925   5.055   4.197   4.944 -0.1768  0.4891 -1.1329
18837TIP3    H177926   5.001   4.154   4.879 -0.5162 -0.5287 -0.1948
18837TIP3    H277927   5.138   4.148   4.945 -1.1152 -1.1494  1.0032
18838TIP3   OH277928   4.308   4.304   5.350  0.3323  0.0413 -0.2185
18838TIP3    H177929   4.331   4.232   5.409 -0.8103  0.5359  0.8722
18838TIP3    H277930   4.355   4.380   5.384 -0.5230  0.3845  0.2235
18839TIP3   OH277931   1.703   5.973   4.455 -0.2346 -0.2523  0.4409
18839TIP3    H177932   1.764   5.972   4.529 -0.2438 -0.0008  0.4543
18839TIP3    H277933   1.735   6.044   4.399 -1.8752  1.4265  1.5848
18840TIP3   OH277934   5.756   3.885  13.177 -0.0512  0.1622  0.0384
18840TIP3    H177935   5.764   3.892  13.272  0.2671  2.6195 -0.1396
18840TIP3    H277936   5.716   3.968  13.150 -0.1434 -0.5063 -1.9701
18841TIP3   OH277937   6.139   3.927  11.445 -0.6815 -0.3591 -0.1809
18841TIP3    H177938   6.136   3.831  11.449 -0.7095 -0.3681 -0.3923
18841TIP3    H277939   6.202   3.946  11.376 -0.7603 -0.2264 -0.2171
18842TIP3   OH277940   4.688   6.144   6.005  0.5229  0.0751  0.2435
18842TIP3    H177941   4.767   6.155   6.057  0.6224 -0.8151  0.3001
18842TIP3    H277942   4.623   6.199   6.047  0.8678  0.1111  0.7309
18843TIP3   OH277943   5.677   6.020   3.742 -0.4828 -0.5615 -0.2794
18843TIP3    H177944   5.673   5.925   3.754 -0.2128 -0.7727 -1.7444
18843TIP3    H277945   5.653   6.056   3.827 -0.5220 -1.9443  0.3097
18844TIP3   OH277946   4.117   0.035  14.537 -0.2006  0.2332 -0.3168
18844TIP3    H177947   4.152   0.097  14.473 -0.8866 -0.1934 -1.1238
18844TIP3    H277948   4.071   0.090  14.601  0.3539  0.6504 -0.2752
18845TIP3   OH277949   3.741   5.253  11.372 -0.3429  0.2233  0.4631
18845TIP3    H177950   3.792   5.214  11.300  1.2404  1.4044  0.9268
18845TIP3    H277951   3.743   5.347  11.354 -0.5696  0.4568  1.6663
18846TIP3   OH277952   0.019   1.956  12.494  0.2600  0.3006 -0.6176
18846TIP3    H177953   0.069   2.006  12.429  2.9088 -1.5779 -0.1211
18846TIP3    H277954  -0.001   2.019  12.563  1.1611  1.3122 -1.2704
18847TIP3   OH277955   6.512   4.236  10.760  0.1528  0.4069  0.6749
18847TIP3    H177956   6.553   4.272  10.681  2.1911  0.3799  1.6906
18847TIP3    H277957   6.423   4.271  10.758  0.1222  0.3089 -1.6934
18848TIP3   OH277958   2.546   4.940  12.460 -0.0298 -0.1142  0.5373
18848TIP3    H177959   2.570   4.869  12.519 -0.8786  0.8127  2.0200
18848TIP3    H277960   2.598   4.924  12.381 -0.7020 -2.7740  0.5598
18849TIP3   OH277961   4.694   3.809   1.316 -0.0766  0.3330  0.6479
18849TIP3    H177962   4.776   3.763   1.298 -0.1747  0.3571  0.1482
18849TIP3    H277963   4.721   3.896   1.347  0.1217 -0.2001  2.0263
18850TIP3   OH277964   1.191   0.459  11.314  0.3852 -0.0714 -0.7029
18850TIP3    H177965   1.128   0.524  11.345  0.6506  0.1675 -0.6608
18850TIP3    H277966   1.180   0.457  11.219 -1.8035 -2.2153 -0.4662
18851TIP3   OH277967   5.204   5.001  16.694 -0.2002  0.6143 -0.6761
18851TIP3    H177968   5.183   4.977  16.604  2.9577  1.2163 -1.6393
18851TIP3    H277969   5.270   4.937  16.721 -0.6794  0.7970  1.0173
18852TIP3   OH277970   2.396   4.417  15.475  0.1268 -0.9865 -0.4742
18852TIP3    H177971   2.465   4.352  15.492  0.0563 -1.1498 -0.7988
18852TIP3    H277972   2.439   4.484  15.422  0.6798  0.1684  1.4091
18853TIP3   OH277973   0.566   3.033  16.802  0.6264 -0.1751 -0.2969
18853TIP3    H177974   0.491   2.975  16.794 -1.3104  1.8610  1.9436
18853TIP3    H277975   0.569   3.081  16.720 -1.3510  0.6061  0.0567
18854TIP3   OH277976   0.875   2.787   3.590 -0.6910 -0.3749  0.4929
18854TIP3    H177977   0.970   2.799   3.595 -0.2912 -1.7645 -2.6515
18854TIP3    H277978   0.841   2.874   3.569  0.0305 -0.2074  0.0168
18855TIP3   OH277979   6.682   4.906   0.338  0.0555  0.2023  0.1432
18855TIP3    H177980   6.768   4.947   0.342  0.6388 -0.8843 -1.0959
18855TIP3    H277981   6.622   4.973   0.372  1.0725  1.8419 -1.2261
18856TIP3   OH277982   3.494   1.270  16.862  0.3318 -0.2270 -0.2279
18856TIP3    H177983   3.575   1.318  16.882  0.9451 -0.6832 -1.5565
18856TIP3    H277984   3.515   1.220  16.783 -1.5363  0.3401 -1.0955
18857TIP3   OH277985   0.133   5.238  13.294 -0.0895  0.0351  0.3773
18857TIP3    H177986   0.124   5.144  13.312  0.8934  0.3536  2.7189
18857TIP3    H277987   0.217   5.246  13.250 -0.3198 -0.2208 -0.1099
18858TIP3   OH277988   5.633   2.841   2.541  0.0424  0.2126 -0.6071
18858TIP3    H177989   5.557   2.864   2.594  1.2518 -0.8470  1.7294
18858TIP3    H277990   5.694   2.914   2.553 -0.0473  0.4013 -1.3054
18859TIP3   OH277991   0.160   6.735  13.844 -0.2675 -0.8858  0.1584
18859TIP3    H177992   0.149   6.664  13.781  0.2555 -0.9903  0.1805
18859TIP3    H277993   0.235   6.784  13.811 -0.5678 -0.4033  0.1994
18860TIP3   OH277994   0.586   4.278   4.233 -0.2665  0.0746  0.6432
18860TIP3    H177995   0.540   4.305   4.313  0.1335  0.4394  0.7557
18860TIP3    H277996   0.663   4.232   4.264 -1.0662 -1.4359  0.4476
18861TIP3   OH277997   3.351   6.241   0.551  0.2204  0.1165  0.2939
18861TIP3    H177998   3.445   6.229   0.560  0.0098 -3.1883 -1.3729
18861TIP3    H277999   3.340   6.284   0.466  0.2134  0.1383  0.3056
18862TIP3   OH278000   5.454   3.548  11.983  0.3293 -0.5761 -0.1855
18862TIP3    H178001   5.538   3.536  12.027  0.6217 -1.0299 -0.8503
18862TIP3    H278002   5.413   3.461  11.986  0.7124 -0.8192 -1.5086
18863TIP3   OH278003   5.941   4.474  10.733 -0.1738  0.3185 -0.3985
18863TIP3    H178004   5.857   4.503  10.697 -1.8366 -3.4184  0.2708
18863TIP3    H278005   5.989   4.555  10.750 -3.2505  2.5005 -1.7126
18864TIP3   OH278006   4.562   5.391  15.068 -0.3692  0.5470 -0.2870
18864TIP3    H178007   4.553   5.479  15.031  1.6076 -0.4463 -3.3545
18864TIP3    H278008   4.495   5.387  15.136 -2.1306  3.6074 -1.7013
18865TIP3   OH278009   0.498   6.180   2.882 -0.1129 -0.2418  0.0794
18865TIP3    H178010   0.516   6.158   2.973  1.4454  1.5386  0.2262
18865TIP3    H278011   0.447   6.106   2.849 -0.4920 -1.0127  2.3180
18866TIP3   OH278012   5.189   1.769  14.609 -0.4130  0.4191  0.0007
18866TIP3    H178013   5.118   1.762  14.672 -1.3604  0.2927 -1.0731
18866TIP3    H278014   5.259   1.714  14.645 -0.6364  1.0145  1.3457
18867TIP3   OH278015   3.072   5.372  11.184 -0.0940  0.4743 -0.0942
18867TIP3    H178016   3.043   5.418  11.262 -1.3716  1.1224 -0.9403
18867TIP3    H278017   3.166   5.391  11.179  0.3363 -0.9340  2.1761
18868TIP3   OH278018   3.579   6.511  16.715 -0.4768  0.1750 -0.2136
18868TIP3    H178019   3.541   6.598  16.705 -1.7902 -0.2744  0.7124
18868TIP3    H278020   3.505   6.456  16.741  0.1302 -1.4303 -1.7967
18869TIP3   OH278021   2.689   2.266   0.111 -0.4289  0.2306 -0.3798
18869TIP3    H178022   2.729   2.345   0.148  0.6319 -0.1011 -0.8065
18869TIP3    H278023   2.730   2.257   0.025 -0.3638 -0.9494 -0.2209
18870TIP3   OH278024   2.000   1.289  15.377 -0.0853  0.3107  0.2686
18870TIP3    H178025   2.062   1.298  15.450 -0.6996 -1.7062  1.0717
18870TIP3    H278026   1.962   1.202  15.389 -0.1854 -0.0684 -2.4714
18871TIP3   OH278027   5.764   1.289   5.415  0.3749  0.1387 -0.2506
18871TIP3    H178028   5.844   1.259   5.458 -0.3227 -0.8480  0.3859
18871TIP3    H278029   5.780   1.276   5.322  1.6795  1.7510 -0.2902
18872TIP3   OH278030   2.448   2.602  16.951  0.1337 -0.6121 -0.5047
18872TIP3    H178031   2.534   2.644  16.956 -0.3184  0.3027 -0.3875
18872TIP3    H278032   2.390   2.659  17.002 -0.5318 -1.2547 -0.5316
18873TIP3   OH278033   4.176   5.746  17.093 -0.1133  0.0213 -1.3392
18873TIP3    H178034   4.131   5.817  17.049 -0.2405 -0.2012 -1.5699
18873TIP3    H278035   4.265   5.778  17.107 -0.6345  0.8909  0.1217
18874TIP3   OH278036   6.266   4.106   4.924  0.3077 -0.0755 -0.1914
18874TIP3    H178037   6.251   4.100   5.018  2.2238  0.9671  0.2082
18874TIP3    H278038   6.211   4.038   4.886 -2.4365  1.1752  1.4614
18875TIP3   OH278039   3.945   1.519  16.128  0.6574 -0.3287 -0.1589
18875TIP3    H178040   3.940   1.597  16.184  0.5329 -0.5763  0.1745
18875TIP3    H278041   4.008   1.462  16.172 -0.1318 -0.9147  0.2142
18876TIP3   OH278042   3.937   6.642  14.571 -0.2010  0.5027 -0.3274
18876TIP3    H178043   3.978   6.723  14.540  1.0255 -0.0741 -0.2446
18876TIP3    H278044   3.850   6.669  14.601  0.6825  2.0057  0.9488
18877TIP3   OH278045   4.518   4.275   6.172 -0.1009  0.0295  0.0244
18877TIP3    H178046   4.465   4.332   6.117  0.1554  0.3582  0.1188
18877TIP3    H278047   4.466   4.262   6.251  0.0220  0.4660  0.1768
18878TIP3   OH278048   3.584   1.131  16.641 -0.5581  0.2525  0.5869
18878TIP3    H178049   3.543   1.045  16.632 -1.5278  0.7708 -0.0156
18878TIP3    H278050   3.529   1.190  16.589 -0.8539  1.5551  2.3276
18879TIP3   OH278051   2.127   0.381   3.955 -0.1739  0.8497 -0.2966
18879TIP3    H178052   2.132   0.287   3.972  0.3110  0.7187 -1.1590
18879TIP3    H278053   2.109   0.420   4.041 -0.1824 -0.0084  0.0958
18880TIP3   OH278054   0.545   1.866  12.911 -0.9961 -0.1441  0.2286
18880TIP3    H178055   0.496   1.911  12.842  1.4961  0.8675 -0.9685
18880TIP3    H278056   0.597   1.935  12.952  0.8313 -1.4617  0.2020
18881TIP3   OH278057   2.107   5.743  16.680  0.4698  0.1292  0.0731
18881TIP3    H178058   2.080   5.794  16.604 -2.7803 -1.2568  0.2410
18881TIP3    H278059   2.131   5.809  16.746 -2.2763  1.4361 -0.1819
18882TIP3   OH278060   2.075   1.800   1.098 -0.6415  0.2822 -0.2487
18882TIP3    H178061   2.114   1.793   1.185  2.4033  0.6185 -1.5318
18882TIP3    H278062   2.089   1.715   1.058  0.5400  1.0230 -1.4330
18883TIP3   OH278063   1.808   3.555   3.679 -0.5844 -0.0626  0.0169
18883TIP3    H178064   1.788   3.461   3.683 -0.3883 -0.0423  1.9005
18883TIP3    H278065   1.816   3.573   3.585  1.5089 -2.3805 -0.3048
18884TIP3   OH278066   5.121   3.684  14.582  0.3653  0.1031 -0.1278
18884TIP3    H178067   5.077   3.599  14.572 -3.7048  2.2424 -1.5190
18884TIP3    H278068   5.159   3.701  14.496  1.1070 -0.2588  0.1261
18885TIP3   OH278069   3.134   6.255   1.528  0.6820 -1.1777 -0.3718
18885TIP3    H178070   3.193   6.260   1.452  0.8648 -0.8553 -0.2097
18885TIP3    H278071   3.179   6.195   1.588  0.9090 -0.8322 -0.1942
18886TIP3   OH278072   3.334   5.168   3.752  0.1486  0.1430 -0.1362
18886TIP3    H178073   3.389   5.158   3.830  0.9212 -0.3516 -0.7331
18886TIP3    H278074   3.368   5.102   3.691 -1.4856 -0.5669 -0.3026
18887TIP3   OH278075   1.339   6.735   4.836  0.0644  0.0812 -0.8486
18887TIP3    H178076   1.312   6.798   4.903  3.3714  1.6853 -0.9381
18887TIP3    H278077   1.309   6.651   4.870  1.5432  0.8638  2.6753
18888TIP3   OH278078   4.086   6.418  14.424  0.2625 -0.4385  0.3532
18888TIP3    H178079   4.026   6.472  14.477  0.7355 -0.3255  0.7717
18888TIP3    H278080   4.030   6.383  14.354 -0.2985 -0.3402  0.7438
18889TIP3   OH278081   6.213   5.719   1.643 -0.1994 -0.2883 -0.0797
18889TIP3    H178082   6.130   5.694   1.603 -0.4590  0.4783 -0.0283
18889TIP3    H278083   6.254   5.636   1.667 -0.7139 -0.6915 -0.5774
18890TIP3   OH278084   4.181   4.863  13.807  0.4019  0.3361  0.3751
18890TIP3    H178085   4.213   4.928  13.869  0.0583 -0.0347  0.9430
18890TIP3    H278086   4.088   4.884  13.796  0.2032 -0.2748  0.8377
18891TIP3   OH278087   1.523   3.098   4.783 -0.6058  0.1947 -0.4002
18891TIP3    H178088   1.488   3.022   4.831  1.4660  0.1864  1.1531
18891TIP3    H278089   1.487   3.173   4.829 -1.6286  0.1863 -1.1604
18892TIP3   OH278090   2.692   0.047   2.817 -0.0900  0.0634 -0.5418
18892TIP3    H178091   2.628   0.116   2.800 -0.2614  0.1805  0.5384
18892TIP3    H278092   2.649  -0.011   2.880  0.3000 -0.6838 -0.9538
18893TIP3   OH278093   1.195   1.526   2.055  0.8889 -0.7179 -0.0846
18893TIP3    H178094   1.162   1.492   2.138 -0.4107 -0.8975 -0.6583
18893TIP3    H278095   1.232   1.449   2.011  0.4974 -0.8518 -0.1808
18894TIP3   OH278096   0.303   3.723  12.210  0.1890  0.7727 -0.0044
18894TIP3    H178097   0.281   3.816  12.212  1.4368  1.0835 -0.0537
18894TIP3    H278098   0.399   3.721  12.204  0.2704 -0.5230  1.4083
18895TIP3   OH278099   6.486   5.015   4.101  0.3276  0.5019  0.1593
18895TIP3    H178100   6.521   5.089   4.051 -1.6866  0.6128 -1.1529
18895TIP3    H278101   6.483   4.943   4.037 -0.2670  0.0419  0.7061
18896TIP3   OH278102   0.420   5.713   4.773  0.0430  0.8111 -0.0306
18896TIP3    H178103   0.425   5.650   4.845  0.2870 -0.8259 -1.4368
18896TIP3    H278104   0.365   5.670   4.708  0.8802  1.7214 -1.3545
18897TIP3   OH278105   0.389   2.077   2.450 -0.5664  0.5160  0.0112
18897TIP3    H178106   0.298   2.060   2.474 -0.1671  0.7650  1.7415
18897TIP3    H278107   0.432   1.992   2.460 -0.1083  0.9120  1.5991
18898TIP3   OH278108   0.312   2.536  14.119 -0.8281 -0.0082  0.1337
18898TIP3    H178109   0.301   2.606  14.184  0.0375 -0.1905  0.4881
18898TIP3    H278110   0.349   2.463  14.169 -1.4423 -0.6214 -0.2988
18899TIP3   OH278111   1.576   4.956  15.001 -0.1267 -0.4917  0.0111
18899TIP3    H178112   1.634   5.033  15.003 -0.2623 -0.3792 -0.3911
18899TIP3    H278113   1.607   4.904  14.927 -0.0817 -0.7881  0.2389
18900TIP3   OH278114   5.609   2.215  15.078  0.0442  0.2090 -0.0607
18900TIP3    H178115   5.580   2.124  15.089  2.3246 -0.9460 -2.6784
18900TIP3    H278116   5.697   2.217  15.117 -0.8258  1.8773  1.8686
18901TIP3   OH278117   6.165   3.655  11.418 -0.5014 -0.1380  0.3113
18901TIP3    H178118   6.183   3.611  11.335 -0.4397 -0.4124  0.4703
18901TIP3    H278119   6.215   3.605  11.483 -0.9847 -0.2521  0.5951
18902TIP3   OH278120   2.130   1.561   2.397  0.1622  0.3058  0.1347
18902TIP3    H178121   2.057   1.526   2.449  0.4106  2.7860  2.2657
18902TIP3    H278122   2.208   1.524   2.438  0.2013 -0.8262 -0.9457
18903TIP3   OH278123   0.495   5.909   4.954  0.5673  1.0499 -0.2851
18903TIP3    H178124   0.508   5.983   4.894  0.0152  0.7784 -0.7391
18903TIP3    H278125   0.486   5.833   4.897 -4.2561  1.3718 -0.1258
18904TIP3   OH278126   2.875   5.945  14.155 -0.1904  0.1979  0.1403
18904TIP3    H178127   2.953   5.965  14.103  0.0407  0.6385  0.6592
18904TIP3    H278128   2.825   5.886  14.099  0.4767 -0.0310 -0.2240
18905TIP3   OH278129   5.895   6.651  15.734  0.0676  0.1345 -0.5963
18905TIP3    H178130   5.873   6.737  15.768 -2.0319 -0.5451 -0.1612
18905TIP3    H278131   5.926   6.602  15.810 -0.7492 -0.1372 -0.4368
18906TIP3   OH278132   5.051   2.888   1.076 -0.1601 -0.4399 -0.3040
18906TIP3    H178133   5.085   2.800   1.061  1.6976  0.6819 -3.2044
18906TIP3    H278134   5.002   2.909   0.997  1.0558  1.8234 -0.5066
18907TIP3   OH278135   6.786   4.914   1.011 -0.0186  0.4591 -0.2090
18907TIP3    H178136   6.835   4.973   0.953 -0.3022 -0.0111 -0.9311
18907TIP3    H278137   6.766   4.838   0.957  1.4486 -0.8862  1.0881
18908TIP3   OH278138   0.192   4.128   2.721 -0.0875  0.0251 -0.0734
18908TIP3    H178139   0.181   4.037   2.748  0.0625  0.3820  1.1998
18908TIP3    H278140   0.108   4.169   2.740  0.0589  0.3138 -0.0498
18909TIP3   OH278141   3.465   1.491   6.690  0.0356 -0.8456  0.4035
18909TIP3    H178142   3.420   1.576   6.689  0.4401 -0.6311 -0.4101
18909TIP3    H278143   3.411   1.435   6.634 -0.0128 -1.0067  0.6130
18910TIP3   OH278144   3.368   6.327  16.833 -0.1500  0.8546  0.1793
18910TIP3    H178145   3.402   6.256  16.887 -0.9264  0.4784  0.1805
18910TIP3    H278146   3.302   6.370  16.887 -1.0998  0.3293 -0.5198
18911TIP3   OH278147   6.209   3.561   5.965  0.1907 -0.3547 -0.7144
18911TIP3    H178148   6.238   3.637   6.015 -1.8611 -0.0807  0.1190
18911TIP3    H278149   6.178   3.499   6.031 -1.0324 -0.6457 -1.5380
18912TIP3   OH278150   0.985   4.901   0.635 -0.3895 -0.5040  0.3058
18912TIP3    H178151   1.027   4.987   0.631 -0.9926 -0.1912  0.6380
18912TIP3    H278152   0.928   4.906   0.711 -1.6167 -0.6614 -0.5959
18913TIP3   OH278153   5.444   6.493  12.784 -0.0017 -0.8259 -0.0432
18913TIP3    H178154   5.477   6.418  12.734  1.5885  0.4074 -0.8747
18913TIP3    H278155   5.484   6.483  12.871  1.3189 -0.2037 -0.5707
18914TIP3   OH278156   2.117   4.378  15.506 -0.1603  0.5860  0.3085
18914TIP3    H178157   2.212   4.379  15.493  0.0965  0.5860  2.1116
18914TIP3    H278158   2.088   4.463  15.474  0.6098  1.0702  0.8829
18915TIP3   OH278159   3.502   3.679  11.681 -0.2440 -0.5548  0.1296
18915TIP3    H178160   3.547   3.677  11.766 -1.3714  0.6186  0.7729
18915TIP3    H278161   3.409   3.678  11.704 -0.5577  0.6621 -1.0775
18916TIP3   OH278162   1.851   1.290   5.188 -0.2852 -0.3051  0.1051
18916TIP3    H178163   1.764   1.286   5.147 -0.5507  0.0787  0.6279
18916TIP3    H278164   1.863   1.382   5.210 -0.3785 -0.5905  1.3979
18917TIP3   OH278165   4.497   4.081  12.895 -0.3679 -0.3709  0.4055
18917TIP3    H178166   4.588   4.104  12.912  0.4358 -1.9385 -1.5729
18917TIP3    H278167   4.495   4.059  12.801 -3.0933  1.1137  0.0564
18918TIP3   OH278168   3.005   1.877  12.544 -0.1358  0.0192  0.3199
18918TIP3    H178169   2.918   1.846  12.518 -0.8217 -0.3539  2.9981
18918TIP3    H278170   3.001   1.885  12.639  1.9164  2.6493  0.2334
18919TIP3   OH278171   5.777   5.270  10.643  0.0034  0.1899  0.0722
18919TIP3    H178172   5.683   5.250  10.638  0.2508 -0.8325 -0.4503
18919TIP3    H278173   5.784   5.358  10.606 -0.5395 -0.3601 -1.3565
18920TIP3   OH278174   1.199   3.067   2.903  0.1634 -0.6434 -0.6206
18920TIP3    H178175   1.243   2.991   2.865 -0.1846 -1.0185 -0.2708
18920TIP3    H278176   1.271   3.120   2.938  0.3772 -1.0125 -0.4911
18921TIP3   OH278177   3.477   1.853  13.203 -0.7328 -0.2348  0.0440
18921TIP3    H178178   3.512   1.941  13.210 -1.4189 -0.1126  2.1968
18921TIP3    H278179   3.391   1.865  13.162 -0.1672 -0.0920 -1.1338
18922TIP3   OH278180   0.020   1.470  16.933 -0.4388  0.1353 -0.5640
18922TIP3    H178181   0.060   1.419  16.863  0.3213 -0.8663  0.5897
18922TIP3    H278182   0.072   1.450  17.011 -1.5260  0.9157  0.3903
18923TIP3   OH278183   1.789   2.554   6.498 -0.7129  0.0083 -0.1967
18923TIP3    H178184   1.756   2.627   6.445 -2.9630 -0.5048  0.4453
18923TIP3    H278185   1.825   2.595   6.576 -2.2280  0.4497  0.2930
18924TIP3   OH278186   0.259   1.104  14.699 -0.4438  0.5828 -0.8034
18924TIP3    H178187   0.188   1.160  14.670 -0.2094  0.7292 -1.0953
18924TIP3    H278188   0.219   1.018  14.710 -0.3948  0.3793 -2.1951
18925TIP3   OH278189   2.030   0.181  10.680 -0.5689  0.2956  0.0072
18925TIP3    H178190   2.045   0.241  10.606 -1.1891  3.6094  2.4353
18925TIP3    H278191   1.938   0.195  10.703  0.1225  0.7436  2.5905
18926TIP3   OH278192   3.779   0.804   1.154  0.5568 -0.5010  0.1311
18926TIP3    H178193   3.848   0.792   1.220  0.7119  0.6048  0.1841
18926TIP3    H278194   3.699   0.813   1.205  0.7270  0.7153  0.1936
18927TIP3   OH278195   1.323   4.259   4.970  0.2431  0.1421 -0.6306
18927TIP3    H178196   1.323   4.254   4.875  0.2672  2.3020 -0.7676
18927TIP3    H278197   1.356   4.347   4.990  1.5219 -0.7474  1.3931
18928TIP3   OH278198   5.062   2.153  13.297  0.0710 -0.0214 -0.9823
18928TIP3    H178199   5.131   2.108  13.248  0.8553  0.0113  0.0682
18928TIP3    H278200   4.980   2.114  13.266  0.7489 -2.2396 -0.0405
18929TIP3   OH278201   4.621   5.577   5.018 -0.3502 -0.0560 -0.2126
18929TIP3    H178202   4.528   5.574   5.037  0.1770 -0.4430  2.4936
18929TIP3    H278203   4.646   5.485   5.003  0.1383 -0.3694  2.1742
18930TIP3   OH278204   5.227   4.360   4.301  0.1414 -0.2422 -0.0892
18930TIP3    H178205   5.188   4.282   4.261 -0.2746 -0.4893  0.7814
18930TIP3    H278206   5.309   4.329   4.339 -0.1027 -0.2930  0.3994
18931TIP3   OH278207   5.285   4.049   4.969 -0.4432  0.5410 -0.2908
18931TIP3    H178208   5.355   4.077   5.028  0.3504  1.4817 -1.6279
18931TIP3    H278209   5.325   3.980   4.916  0.3297  2.7713 -2.7487
18932TIP3   OH278210   3.611   2.793   2.211 -0.0067 -0.5731  0.3489
18932TIP3    H178211   3.619   2.754   2.298 -0.8763 -0.9890  0.2499
18932TIP3    H278212   3.529   2.758   2.177  0.8565 -1.2769 -1.0694
18933TIP3   OH278213   6.160   6.554   6.382 -0.1240  0.3027  0.0397
18933TIP3    H178214   6.215   6.536   6.306  0.8719  0.6632  0.6676
18933TIP3    H278215   6.160   6.472   6.431  0.1043  0.3967  0.1962
18934TIP3   OH278216   6.186   0.652  13.618 -0.1928 -0.0617  0.2667
18934TIP3    H178217   6.171   0.746  13.610  0.2460 -0.0454 -0.4057
18934TIP3    H278218   6.127   0.624  13.688  0.3215  0.8704  1.0801
18935TIP3   OH278219   4.360   0.644  11.207 -0.3341  0.0077 -0.1759
18935TIP3    H178220   4.322   0.558  11.190  1.8392 -0.7312 -1.4515
18935TIP3    H278221   4.345   0.658  11.301 -1.4615 -1.3540 -0.1267
18936TIP3   OH278222   6.363   3.608  17.005 -0.0507 -0.7946 -0.4356
18936TIP3    H178223   6.272   3.590  16.978  0.1198 -0.9952 -0.8847
18936TIP3    H278224   6.368   3.703  17.012  0.1153 -0.6915 -1.8721
18937TIP3   OH278225   1.927   1.501   4.612 -0.0908 -0.4111 -0.2436
18937TIP3    H178226   1.993   1.487   4.680 -1.4395 -2.1466  0.7695
18937TIP3    H278227   1.879   1.578   4.641 -0.1890 -0.7077  0.3881
18938TIP3   OH278228   3.927   0.309   2.076 -0.4574  0.6428 -0.0753
18938TIP3    H178229   3.951   0.294   1.984 -0.3969  1.7685 -0.2615
18938TIP3    H278230   4.011   0.320   2.121 -0.4141 -1.9871  0.5142
18939TIP3   OH278231   0.758   2.674  14.835  0.1012  0.2227 -0.1175
18939TIP3    H178232   0.844   2.692  14.797 -0.4359  1.6764 -0.7059
18939TIP3    H278233   0.775   2.662  14.928  1.0554 -0.4474 -0.3682
18940TIP3   OH278234   0.451   0.324  12.842  0.7348 -0.2150  0.7883
18940TIP3    H178235   0.519   0.326  12.774  0.2920 -1.0606  0.3218
18940TIP3    H278236   0.385   0.264  12.808  1.4759 -2.2786  2.9088
18941TIP3   OH278237   1.464   6.649  13.413 -0.0786 -0.2132  0.4835
18941TIP3    H178238   1.393   6.595  13.448 -0.7662 -0.4396 -1.1732
18941TIP3    H278239   1.420   6.714  13.358  0.9970 -0.6564 -0.9568
18942TIP3   OH278240   3.559   2.910   4.322 -0.4181 -0.2266  0.4713
18942TIP3    H178241   3.617   2.978   4.357  1.7469 -1.3766 -0.7992
18942TIP3    H278242   3.559   2.842   4.389 -2.4539  0.8902  1.6678
18943TIP3   OH278243   2.835   3.105   5.164 -0.3203 -0.0538 -0.2466
18943TIP3    H178244   2.831   3.199   5.151  1.2323 -0.0846 -1.0034
18943TIP3    H278245   2.756   3.071   5.121 -0.1812  0.7723 -1.1515
18944TIP3   OH278246   3.577   3.880   5.982  0.2545 -0.2988 -0.1999
18944TIP3    H178247   3.500   3.919   6.023  1.0772 -0.4291  1.5382
18944TIP3    H278248   3.636   3.954   5.966  0.4988 -0.4264  0.1126
18945TIP3   OH278249   5.303   4.463   0.124  0.4238 -0.5284  0.0036
18945TIP3    H178250   5.280   4.553   0.104 -2.2559 -1.1876 -0.1384
18945TIP3    H278251   5.358   4.435   0.051  0.2535  0.6279 -0.5717
18946TIP3   OH278252   3.244   3.559   3.727  0.6420  0.5406 -0.0410
18946TIP3    H178253   3.179   3.488   3.721  0.3712  0.8852 -1.1590
18946TIP3    H278254   3.210   3.627   3.669 -0.4297  2.6609  2.9468
18947TIP3   OH278255   1.424   0.092  11.216 -0.4712 -0.3034  0.0470
18947TIP3    H178256   1.485   0.066  11.147  0.2007  0.2017  0.4414
18947TIP3    H278257   1.403   0.183  11.196 -0.7013 -0.3225  0.1964
18948TIP3   OH278258   1.354   1.950   1.613 -0.1507  0.6263  0.3700
18948TIP3    H178259   1.265   1.986   1.623 -0.5376 -0.5423  1.3218
18948TIP3    H278260   1.390   1.996   1.537 -0.4393  3.3469  1.8258
18949TIP3   OH278261   2.226   4.923  12.469  0.1939 -0.1571  0.3664
18949TIP3    H178262   2.179   4.971  12.402  1.5404  2.0577  0.9638
18949TIP3    H278263   2.318   4.930  12.444  0.4825 -1.6938  0.9347
18950TIP3   OH278264   1.989   5.450  10.641  0.0444 -0.7419 -0.6325
18950TIP3    H178265   2.021   5.360  10.644  2.7537  0.2142  0.1229
18950TIP3    H278266   2.067   5.503  10.628 -1.0010  1.7893  2.6551
18951TIP3   OH278267   6.637   2.298  10.965  0.1526  1.0222  0.4431
18951TIP3    H178268   6.721   2.253  10.972  1.4121  3.4535  1.4740
18951TIP3    H278269   6.592   2.278  11.046  0.6781  1.5276  0.8660
18952TIP3   OH278270   2.733   0.502   4.491 -0.2008 -0.2236  0.3541
18952TIP3    H178271   2.661   0.522   4.431 -0.2676 -2.0592 -0.2087
18952TIP3    H278272   2.806   0.556   4.460 -1.0411  0.9152  0.3354
18953TIP3   OH278273   4.760   2.210   1.897  0.0372 -0.3145 -0.2206
18953TIP3    H178274   4.820   2.179   1.830  0.6214 -0.4566  0.3609
18953TIP3    H278275   4.805   2.285   1.937  0.1244 -0.8238  0.6549
18954TIP3   OH278276   1.326   2.551  12.564 -0.4489 -0.0105  0.5960
18954TIP3    H178277   1.314   2.464  12.528 -1.7267  0.4752 -0.1895
18954TIP3    H278278   1.405   2.585  12.522 -0.6478 -0.3242 -0.0338
18955TIP3   OH278279   5.362   4.842  17.080  0.1011 -0.2661  0.4762
18955TIP3    H178280   5.322   4.833  17.166 -0.9848  1.5537  0.1900
18955TIP3    H278281   5.436   4.901  17.093 -0.8981  1.1372 -0.0623
18956TIP3   OH278282   3.432   1.697  13.678 -0.7600 -0.7131 -0.1692
18956TIP3    H178283   3.464   1.611  13.651  1.2883 -0.0487  0.0513
18956TIP3    H278284   3.489   1.759  13.634 -1.3344  0.5074  0.7663
18957TIP3   OH278285   0.049   3.364  11.197 -0.1461  0.2906  0.3923
18957TIP3    H178286   0.110   3.294  11.222 -0.1970  0.5621  1.2859
18957TIP3    H278287  -0.028   3.318  11.165  0.0780 -0.0651  0.3604
18958TIP3   OH278288   4.575   2.154   2.584 -0.3087  0.3550 -0.1273
18958TIP3    H178289   4.557   2.206   2.506 -1.0621  0.7502  0.3067
18958TIP3    H278290   4.608   2.071   2.549  1.5026  1.3440 -0.7970
18959TIP3   OH278291   5.568   2.685   4.336 -0.4758 -0.3993 -0.4016
18959TIP3    H178292   5.510   2.698   4.411  2.0284  0.0169  1.4945
18959TIP3    H278293   5.583   2.774   4.303 -0.4346 -0.4455 -0.5069
18960TIP3   OH278294   4.834   4.815  16.391 -0.0122  0.4381  0.2117
18960TIP3    H178295   4.784   4.846  16.316 -1.3151 -2.3459 -0.1139
18960TIP3    H278296   4.856   4.895  16.440 -0.0588  2.1870 -2.5222
18961TIP3   OH278297   3.026   1.339   4.991  0.0973 -0.5035  0.1336
18961TIP3    H178298   3.056   1.248   4.997  0.8023 -0.2687  0.2676
18961TIP3    H278299   2.962   1.348   5.061 -0.2716 -1.0060 -0.1317
18962TIP3   OH278300   4.957   0.952  15.127  0.0334  0.4732  0.2827
18962TIP3    H178301   4.980   0.901  15.205 -1.1399  0.0337  0.3526
18962TIP3    H278302   4.890   1.013  15.156  0.3949  1.0811 -0.1359
18963TIP3   OH278303   0.254   4.389   2.061 -0.4205  0.5351 -0.4690
18963TIP3    H178304   0.306   4.400   2.141  1.0070  1.5742 -1.5268
18963TIP3    H278305   0.263   4.297   2.039 -0.3805  0.3540  0.2672
18964TIP3   OH278306   0.398   5.646  14.224 -0.5198  0.3581  0.0449
18964TIP3    H178307   0.440   5.697  14.155  1.4600  0.1006  1.0212
18964TIP3    H278308   0.342   5.709  14.269 -1.2315  0.7085 -1.3143
18965TIP3   OH278309   3.470   3.342  12.246 -0.3637 -0.6543  0.4870
18965TIP3    H178310   3.555   3.384  12.230 -1.5661  1.7805  0.3546
18965TIP3    H278311   3.409   3.386  12.187 -1.7809 -2.2709  0.7034
18966TIP3   OH278312   6.298   4.345  12.230  0.2285  0.3724 -0.1847
18966TIP3    H178313   6.353   4.282  12.183 -0.8093  0.5053 -1.5834
18966TIP3    H278314   6.347   4.427  12.226  1.1639 -0.1173  0.8756
18967TIP3   OH278315   1.149   2.625  13.376 -0.3621 -0.5579 -0.1523
18967TIP3    H178316   1.091   2.675  13.320  1.1868  3.4814  1.6333
18967TIP3    H278317   1.090   2.576  13.434 -1.9634  0.2021 -1.1056
18968TIP3   OH278318   5.814   0.488  16.150  0.0417  0.2244 -0.7282
18968TIP3    H178319   5.842   0.483  16.059 -0.1927  1.3375 -0.8703
18968TIP3    H278320   5.859   0.566  16.185 -0.5226  0.2933 -0.1340
18969TIP3   OH278321   3.517   4.891   5.096 -0.0758  0.3941 -0.0299
18969TIP3    H178322   3.471   4.945   5.161 -0.8959  0.2670 -0.5000
18969TIP3    H278323   3.576   4.836   5.148  1.4683  2.3845  0.3940
18970TIP3   OH278324   3.139   5.088   4.735 -0.0012 -0.0302  0.1006
18970TIP3    H178325   3.153   5.094   4.641 -1.7768  0.2138 -0.1745
18970TIP3    H278326   3.046   5.111   4.747 -0.4231 -2.3191  1.6370
18971TIP3   OH278327   6.054   1.042  14.693 -0.8251  0.0898 -0.5211
18971TIP3    H178328   6.077   1.125  14.733  0.0678 -1.0665  1.4353
18971TIP3    H278329   6.121   1.027  14.627  0.2132 -0.0713  0.5670
18972TIP3   OH278330   6.113   5.118  17.044 -0.3130  0.2792 -0.5294
18972TIP3    H178331   6.156   5.159  16.969 -0.0105 -0.7458 -0.9231
18972TIP3    H278332   6.126   5.024  17.030 -3.6481 -0.1291 -1.2587
18973TIP3   OH278333   4.702   2.973  14.538  0.1421 -0.0495  0.0064
18973TIP3    H178334   4.665   2.908  14.480 -1.0349  0.8573 -0.2704
18973TIP3    H278335   4.629   3.001  14.593  0.9358  0.0799  1.0161
18974TIP3   OH278336   6.004   4.584  14.317  0.0978  0.8752  0.3700
18974TIP3    H178337   6.072   4.638  14.277  0.1137  0.3660 -0.3003
18974TIP3    H278338   6.050   4.505  14.347 -0.4193 -0.0770 -1.3110
18975TIP3   OH278339   3.742   4.123  12.995 -0.1176  0.5173 -0.4385
18975TIP3    H178340   3.750   4.028  13.009 -2.4080  0.4997  1.1102
18975TIP3    H278341   3.708   4.130  12.905 -0.9450 -0.2078 -0.2001
18976TIP3   OH278342   5.937   5.951   1.106  0.0437  0.3830  0.4331
18976TIP3    H178343   5.873   5.999   1.158 -0.4723 -0.4007  0.5382
18976TIP3    H278344   5.906   5.960   1.015 -0.0215  0.2891  0.4463
18977TIP3   OH278345   1.594   4.486  13.882 -0.3205  0.1692  0.3133
18977TIP3    H178346   1.629   4.570  13.909 -0.3110  0.1941  0.2230
18977TIP3    H278347   1.656   4.454  13.816 -0.6799  0.3931 -0.1364
18978TIP3   OH278348   0.667   2.197   4.655  0.3032 -0.2444 -0.0025
18978TIP3    H178349   0.630   2.133   4.595 -0.5542  0.3987 -0.1574
18978TIP3    H278350   0.684   2.274   4.601  1.8249 -0.4954  0.0688
18979TIP3   OH278351   2.608   3.423  17.014  0.6747 -0.1310 -0.1688
18979TIP3    H178352   2.557   3.499  16.985  0.6718  0.9812  2.6361
18979TIP3    H278353   2.699   3.451  17.004  0.6962 -0.4149 -0.7919
18980TIP3   OH278354   2.108   0.186  17.151 -0.1277  0.1587 -0.3920
18980TIP3    H178355   2.032   0.159  17.100  0.4517 -1.7707 -0.2819
18980TIP3    H278356   2.082   0.171  17.242  0.4270 -0.6726 -0.3642
18981TIP3   OH278357   3.342   6.693  17.166  0.3526 -0.0812 -0.3993
18981TIP3    H178358   3.291   6.774  17.162 -0.7233 -0.7227  0.2239
18981TIP3    H278359   3.399   6.697  17.090  0.1418  1.1567 -0.5040
18982TIP3   OH278360   3.112   4.551  11.554  0.0729  0.3148  0.1226
18982TIP3    H178361   3.055   4.477  11.576  2.0675 -0.7421  1.9120
18982TIP3    H278362   3.175   4.516  11.492  0.9056  0.5493  0.8203
18983TIP3   OH278363   2.077   5.770   4.089 -0.6220  0.0975 -0.3496
18983TIP3    H178364   2.127   5.835   4.138  1.1264 -1.8992  0.5780
18983TIP3    H278365   2.013   5.737   4.152  0.6618 -1.4116  0.2053
18984TIP3   OH278366   0.217   5.367   4.356 -0.0961  0.1802  0.6540
18984TIP3    H178367   0.140   5.321   4.323 -0.3484 -0.0740  1.5747
18984TIP3    H278368   0.221   5.344   4.449  2.5589 -1.8640  0.0750
18985TIP3   OH278369   4.217   1.704  12.086 -0.0822 -0.2726 -0.2246
18985TIP3    H178370   4.282   1.670  12.148  0.0362  1.1200  0.4492
18985TIP3    H278371   4.181   1.627  12.044 -0.2794 -1.2717  1.7174
18986TIP3   OH278372   0.626   3.261  13.811  0.4751 -0.0876  0.1827
18986TIP3    H178373   0.657   3.177  13.846  0.9863  0.0279  0.0140
18986TIP3    H278374   0.537   3.270  13.845  0.3547 -0.7789  0.0695
18987TIP3   OH278375   0.580   6.685  15.464 -0.1656  0.4292 -0.3436
18987TIP3    H178376   0.561   6.625  15.391  1.8167  1.3573 -1.6485
18987TIP3    H278377   0.563   6.772  15.428  0.0091  0.8400  0.5731
18988TIP3   OH278378   1.912   6.210  16.559  0.7318 -0.1403  0.5209
18988TIP3    H178379   1.891   6.299  16.532 -1.4112 -0.8987 -0.4211
18988TIP3    H278380   1.986   6.185  16.504 -0.5768  0.0242 -1.3743
18989TIP3   OH278381   1.408   0.358  14.217  0.2068 -0.1258 -0.2904
18989TIP3    H178382   1.482   0.330  14.163  1.2383  0.0531  1.0074
18989TIP3    H278383   1.372   0.276  14.252  1.1262 -0.0944  0.7779
18990TIP3   OH278384   2.411   2.140  13.939  0.7053 -0.3487  0.0637
18990TIP3    H178385   2.361   2.201  13.884 -0.3246 -0.5943  0.7072
18990TIP3    H278386   2.477   2.104  13.880  0.1435  0.0036 -0.8079
18991TIP3   OH278387   4.778   1.114  15.300 -0.0357  0.6222  0.3519
18991TIP3    H178388   4.754   1.030  15.339  1.1517  0.0267 -0.1330
18991TIP3    H278389   4.790   1.173  15.374 -3.5330  1.1300  0.5758
18992TIP3   OH278390   0.160   2.301  12.699  0.3107  0.2764 -0.1401
18992TIP3    H178391   0.065   2.312  12.694  0.0521 -1.0697  1.4598
18992TIP3    H278392   0.196   2.387  12.678 -1.2889  0.9889  0.0350
18993TIP3   OH278393   4.684   0.226   0.140 -0.6760  0.2820  0.0878
18993TIP3    H178394   4.734   0.305   0.119 -0.4564  0.5995  1.7585
18993TIP3    H278395   4.713   0.202   0.228 -0.3582 -1.9492 -0.5714
18994TIP3   OH278396   4.445   1.006   3.903  0.3635  0.6448 -0.2188
18994TIP3    H178397   4.401   1.091   3.909 -1.8066 -0.4841  0.2977
18994TIP3    H278398   4.394   0.949   3.961  1.8719 -0.9725 -0.4747
18995TIP3   OH278399   5.519   1.012  16.053 -0.1600 -1.1595 -0.0439
18995TIP3    H178400   5.427   0.997  16.032 -0.1137  0.4969 -1.5150
18995TIP3    H278401   5.532   1.106  16.044  1.5260 -1.2717  0.8219
18996TIP3   OH278402   5.086   2.463   0.036  0.7608  0.3497  0.3725
18996TIP3    H178403   5.159   2.426   0.087 -0.2416  0.3419  1.8222
18996TIP3    H278404   5.076   2.552   0.070 -0.1534  0.2162  0.4514
18997TIP3   OH278405   3.788   4.677  17.202  0.0366 -0.0340 -0.7229
18997TIP3    H178406   3.798   4.582  17.191  1.6919  0.0823 -0.4254
18997TIP3    H278407   3.736   4.687  17.281  0.4879 -0.6885 -0.3374
18998TIP3   OH278408   6.389   4.241   2.239  0.4293 -0.0788 -0.2769
18998TIP3    H178409   6.416   4.151   2.224  0.4529 -0.0398 -0.4767
18998TIP3    H278410   6.322   4.257   2.172  0.8516  0.2438 -0.6227
18999TIP3   OH278411   1.115   5.312   3.258  0.1178  0.0996 -0.8039
18999TIP3    H178412   1.079   5.259   3.187  0.4679  1.0308 -1.6921
18999TIP3    H278413   1.057   5.296   3.332  0.0276 -1.2638 -1.1498
19000TIP3   OH278414   3.076   2.667   0.015 -0.3016  0.7865  0.2427
19000TIP3    H178415   3.077   2.745   0.069  1.1691  1.1273 -0.2433
19000TIP3    H278416   3.099   2.596   0.075  2.3256  1.3011 -0.1017
19001TIP3   OH278417   5.548   4.959  13.522  0.1604 -0.3936 -0.0087
19001TIP3    H178418   5.560   4.974  13.429 -0.0969 -1.1131 -0.1621
19001TIP3    H278419   5.454   4.939  13.532  0.2660 -0.7419  0.3367
19002TIP3   OH278420   2.423   4.000  12.720 -0.1222  0.2259 -0.4518
19002TIP3    H178421   2.373   4.051  12.784  0.4179 -0.4557  0.5248
19002TIP3    H278422   2.357   3.964  12.661 -0.7196  0.0034  0.3447
19003TIP3   OH278423   1.081   2.183  14.634 -0.2377  0.4233  0.0789
19003TIP3    H178424   1.107   2.187  14.727 -1.3772  0.7342  0.3867
19003TIP3    H278425   1.034   2.100  14.627  3.2508 -1.5855 -1.1298
19004TIP3   OH278426   5.427   3.044  10.386  0.4477  0.2551 -0.4422
19004TIP3    H178427   5.449   2.958  10.422  1.9705  0.4239 -0.9183
19004TIP3    H278428   5.441   3.034  10.292  0.2684  0.9170 -0.5385
19005TIP3   OH278429   5.725   1.619  12.643 -0.0459 -0.0472  0.2970
19005TIP3    H178430   5.675   1.571  12.576  0.8581 -1.4135  0.5781
19005TIP3    H278431   5.742   1.704  12.603 -2.1678  0.2754  0.0104
19006TIP3   OH278432   2.016   0.086   1.749 -0.0404  0.3935  0.0042
19006TIP3    H178433   2.074   0.010   1.744 -1.1969 -0.6112  1.4930
19006TIP3    H278434   2.065   0.150   1.801 -0.5890 -0.7999  2.0528
19007TIP3   OH278435   5.735   4.517   1.260  0.1160  0.2767 -0.4795
19007TIP3    H178436   5.730   4.504   1.355 -0.4618 -2.1522 -0.8032
19007TIP3    H278437   5.643   4.525   1.232  0.2943  1.1777 -0.8165
19008TIP3   OH278438   6.621   1.445  12.892  0.0640  0.2537 -0.5172
19008TIP3    H178439   6.680   1.406  12.956 -2.7104 -1.5196  1.0815
19008TIP3    H278440   6.600   1.532  12.928  1.4683  0.7708 -0.9488
19009TIP3   OH278441   6.136   2.828   0.638  0.2886  0.1853  0.0879
19009TIP3    H178442   6.087   2.851   0.558 -0.4938  0.5856  0.6731
19009TIP3    H278443   6.078   2.855   0.710 -0.5867 -3.4411  0.8418
19010TIP3   OH278444   2.633   0.095  15.879  0.0307 -0.2918  0.0389
19010TIP3    H178445   2.538   0.096  15.896 -0.4110  2.2385 -2.3621
19010TIP3    H278446   2.648   0.011  15.835 -0.9589 -0.9672  0.9425
19011TIP3   OH278447   1.120   3.452  12.928  0.1180 -0.4112 -0.4240
19011TIP3    H178448   1.120   3.460  12.832  0.8077 -0.0994 -0.4007
19011TIP3    H278449   1.050   3.511  12.956  0.6786  0.3859 -0.6719
19012TIP3   OH278450   5.761   6.070   2.127  0.2632 -0.3644 -0.9295
19012TIP3    H178451   5.835   6.045   2.072  0.0940  0.8437 -1.7375
19012TIP3    H278452   5.799   6.096   2.211  0.7662  0.3241 -1.3688
19013TIP3   OH278453   3.154   5.696   1.103 -0.6129  0.3833  0.4007
19013TIP3    H178454   3.129   5.606   1.124 -1.5178  0.5595  0.0821
19013TIP3    H278455   3.246   5.701   1.128 -0.2533 -0.9550 -0.5831
19014TIP3   OH278456   1.920   6.207   1.013  0.2979  0.4230  0.0028
19014TIP3    H178457   1.986   6.275   1.004 -1.5093  2.1886 -0.0655
19014TIP3    H278458   1.970   6.125   1.011  2.3020  1.6540 -1.6312
19015TIP3   OH278459   5.443   3.598  10.827 -0.2329 -0.0173  0.1461
19015TIP3    H178460   5.375   3.655  10.790 -1.0008 -1.5684 -0.9116
19015TIP3    H278461   5.420   3.511  10.796  0.7487 -0.9587  1.9980
19016TIP3   OH278462   1.235   4.364   5.331  0.2206  0.9845 -0.2014
19016TIP3    H178463   1.324   4.390   5.311  0.2775  0.7278 -0.2868
19016TIP3    H278464   1.198   4.437   5.380  0.8997  0.5312  0.9910
19017TIP3   OH278465   4.192   3.944   1.667  0.3519 -0.1059 -0.6862
19017TIP3    H178466   4.208   3.884   1.593 -0.3392  0.6530 -1.4634
19017TIP3    H278467   4.103   3.974   1.653  0.2315  0.0622  0.4666
19018TIP3   OH278468   3.344   5.182  16.952  0.3652 -0.1378  0.3903
19018TIP3    H178469   3.299   5.118  16.898  0.7847 -1.0299  1.0946
19018TIP3    H278470   3.437   5.166  16.936  0.4845 -0.1175  1.0485
19019TIP3   OH278471   0.780   0.558  15.138  0.5499  0.2374 -0.4347
19019TIP3    H178472   0.708   0.619  15.126  0.0235  0.1223  1.8959
19019TIP3    H278473   0.858   0.609  15.118  0.0419  1.3829  0.4439
19020TIP3   OH278474   4.077   4.197   6.249 -0.1799  0.1794 -0.3622
19020TIP3    H178475   4.102   4.106   6.234  0.2567  0.4771 -1.5385
19020TIP3    H278476   4.114   4.218   6.334 -1.0062 -0.9934  0.2965
19021TIP3   OH278477   4.123   5.781   4.003  0.6472  0.2027 -0.0206
19021TIP3    H178478   4.095   5.837   4.075  2.4990  0.0001  0.8758
19021TIP3    H278479   4.138   5.841   3.930  0.3649  0.5979  0.2457
19022TIP3   OH278480   3.370   6.744   0.232  0.5099  0.2525 -0.0991
19022TIP3    H178481   3.288   6.776   0.270 -0.4577 -2.9977  0.7285
19022TIP3    H278482   3.350   6.734   0.139  0.1587  0.0733 -0.0068
19023TIP3   OH278483   2.808   2.946  12.997 -0.4706  0.3488  0.3379
19023TIP3    H178484   2.803   2.886  12.923 -3.4390  0.9716 -0.0550
19023TIP3    H278485   2.838   3.029  12.959 -0.3203  0.2054  0.1435
19024TIP3   OH278486   0.507   2.003  15.021  0.0976 -0.7764 -0.4163
19024TIP3    H178487   0.597   1.970  15.021  0.6625  0.6345 -3.1270
19024TIP3    H278488   0.507   2.072  14.955 -3.6385 -2.5093 -2.3325
19025TIP3   OH278489   1.341   5.752  16.705  0.2130 -0.3113 -0.7498
19025TIP3    H178490   1.305   5.787  16.624 -0.8994  0.3735  0.0290
19025TIP3    H278491   1.426   5.794  16.715 -0.3644  0.8503 -0.7125
19026TIP3   OH278492   1.805   2.638   5.133  0.0077  0.4902  0.1881
19026TIP3    H178493   1.760   2.723   5.140  0.1937  0.6593 -0.5844
19026TIP3    H278494   1.898   2.660   5.142  0.1830  0.5940 -1.6122
19027TIP3   OH278495   3.465   3.371   6.354  0.4616 -0.3973  0.5380
19027TIP3    H178496   3.438   3.296   6.303  2.7960 -0.2635 -0.9440
19027TIP3    H278497   3.505   3.334   6.433  1.2577 -0.6966 -0.0083
19028TIP3   OH278498   1.020   6.366  12.818  0.0663  0.2413  1.0471
19028TIP3    H178499   0.958   6.403  12.755  0.2588  1.4937  1.5790
19028TIP3    H278500   1.027   6.274  12.793 -1.9220  0.0933  0.9192
19029TIP3   OH278501   0.587   3.739  12.195 -1.2200 -0.4231  0.3972
19029TIP3    H178502   0.612   3.677  12.127 -0.8881 -0.8467  0.9012
19029TIP3    H278503   0.622   3.823  12.165 -2.3217 -0.3209 -0.6531
19030TIP3   OH278504   3.893   0.370   0.891 -0.3131  0.5537  0.2714
19030TIP3    H178505   3.829   0.301   0.873  1.4860 -1.3843  1.1494
19030TIP3    H278506   3.849   0.428   0.954 -1.0173 -1.0175  1.2368
19031TIP3   OH278507   5.415   0.806  11.024  0.2526 -0.0079 -0.2568
19031TIP3    H178508   5.504   0.839  11.015 -0.6050  2.2624 -0.7033
19031TIP3    H278509   5.376   0.818  10.938 -0.5345 -0.8639 -0.0307
19032TIP3   OH278510   3.065   4.645  15.048  0.1009  0.7411 -0.7117
19032TIP3    H178511   3.144   4.615  15.091 -0.2918  3.6701  2.3335
19032TIP3    H278512   3.077   4.740  15.040 -2.8038  1.1612 -0.6948
19033TIP3   OH278513   6.776   2.739  16.549  0.4439  0.0054  0.0965
19033TIP3    H178514   6.684   2.757  16.570  1.0515 -0.0057  3.0245
19033TIP3    H278515   6.824   2.767  16.627  2.9245 -0.0423 -1.3816
19034TIP3   OH278516   0.081   0.824  12.143 -0.0009  0.0464 -0.5062
19034TIP3    H178517   0.037   0.784  12.068 -0.5953 -0.6583  0.2046
19034TIP3    H278518   0.120   0.750  12.190 -0.3481  0.3847  0.3350
19035TIP3   OH278519   6.651   5.263   0.589 -0.5419 -0.0628  0.3772
19035TIP3    H178520   6.596   5.336   0.618  0.4135  0.4277  0.9994
19035TIP3    H278521   6.699   5.236   0.668 -0.0193 -0.5987 -0.1122
19036TIP3   OH278522   3.946   5.893  13.554  0.3182  0.3051 -0.2626
19036TIP3    H178523   3.921   5.855  13.470  0.2166 -1.1874  0.4236
19036TIP3    H278524   3.878   5.959  13.572 -1.3666 -1.4593  0.0424
19037TIP3   OH278525   0.136   5.092   0.849 -0.0786 -0.2735  0.1296
19037TIP3    H178526   0.063   5.155   0.852 -1.4438 -1.8373  0.4489
19037TIP3    H278527   0.208   5.141   0.809 -1.2602  1.3508 -0.0664
19038TIP3   OH278528   0.887   6.643  14.222 -0.3896  0.7694 -0.6115
19038TIP3    H178529   0.869   6.705  14.151  0.3508 -0.4122 -1.8480
19038TIP3    H278530   0.947   6.579  14.184 -2.5710 -1.7609  0.0714
19039TIP3   OH278531   2.036   2.663   2.716 -0.3130 -0.0555  0.4584
19039TIP3    H178532   2.071   2.582   2.678 -1.3789 -0.7139  0.8485
19039TIP3    H278533   2.077   2.733   2.665  0.8235 -0.8302  0.2843
19040TIP3   OH278534   3.738   0.416  12.246  0.5660 -0.2606 -0.5361
19040TIP3    H178535   3.715   0.496  12.294 -1.2217 -1.3815  0.5077
19040TIP3    H278536   3.820   0.438  12.202 -0.8519  2.8064 -1.7905
19041TIP3   OH278537   2.935   2.324  15.899 -0.5659 -0.3927  0.3952
19041TIP3    H178538   2.881   2.353  15.973 -0.5610  2.3542 -0.6171
19041TIP3    H278539   3.024   2.319  15.935 -0.7866 -0.4592  0.9387
19042TIP3   OH278540   2.772   2.158   2.412 -0.0149 -0.3574 -0.5011
19042TIP3    H178541   2.801   2.238   2.456 -1.2342 -0.2606  0.1190
19042TIP3    H278542   2.780   2.090   2.479 -2.7746 -0.0428  0.1759
19043TIP3   OH278543   0.065   4.975  15.619 -0.3828  0.1249 -0.5631
19043TIP3    H178544   0.100   4.894  15.582 -1.6726 -0.1902 -1.1440
19043TIP3    H278545  -0.002   4.945  15.681  0.0666  0.7107  0.2011
19044TIP3   OH278546   1.378   3.868   0.449  0.1473  0.2053 -0.3575
19044TIP3    H178547   1.401   3.942   0.393  0.3632 -0.3340 -0.9977
19044TIP3    H278548   1.438   3.798   0.422 -0.7601 -0.5281 -0.4953
19045TIP3   OH278549   3.005   2.954  13.814  0.1506  0.2681 -0.1008
19045TIP3    H178550   3.087   2.988  13.777 -0.6763  2.7739  0.2307
19045TIP3    H278551   3.014   2.970  13.908 -1.7449  3.0242 -0.3268
19046TIP3   OH278552   5.859   5.520   4.235 -0.0508  0.4216 -0.3666
19046TIP3    H178553   5.764   5.515   4.233 -0.0635 -0.3119  1.0911
19046TIP3    H278554   5.888   5.455   4.171 -0.5265 -0.0832 -0.0783
19047TIP3   OH278555   6.534   4.402   3.844 -0.6649  0.0341  0.3741
19047TIP3    H178556   6.516   4.313   3.875  1.7525 -0.0521  1.6508
19047TIP3    H278557   6.604   4.434   3.902  0.1943  1.8775 -1.6198
19048TIP3   OH278558   3.772   0.014  11.370 -0.1389  0.1675  0.1041
19048TIP3    H178559   3.863  -0.009  11.387 -0.8433 -3.2268 -0.4070
19048TIP3    H278560   3.777   0.085  11.306  2.1561  1.4337  1.6114
19049TIP3   OH278561   4.001   2.453  15.275  0.0428  0.0743  0.3838
19049TIP3    H178562   4.027   2.473  15.185  0.3641  0.8724  0.6448
19049TIP3    H278563   4.045   2.520  15.328 -1.0735  0.3255  1.0154
19050TIP3   OH278564   6.426   5.518   1.035  0.2320 -0.0230  0.0445
19050TIP3    H178565   6.354   5.503   1.096 -1.1776  0.8754 -1.3389
19050TIP3    H278566   6.423   5.612   1.018  1.2504 -0.1039 -0.6072
19051TIP3   OH278567   4.873   0.608   2.186  0.6349 -0.1584 -0.3027
19051TIP3    H178568   4.794   0.662   2.177  2.3962  2.2503 -1.6815
19051TIP3    H278569   4.938   0.666   2.224  1.9059 -2.0028  0.3909
19052TIP3   OH278570   4.163   2.210   0.078  0.1389 -0.4274  0.7175
19052TIP3    H178571   4.091   2.181   0.133 -0.7686  0.3353 -0.0439
19052TIP3    H278572   4.156   2.157  -0.001  0.8557 -0.8587  0.9392
19053TIP3   OH278573   4.233   1.022   3.089  0.3688 -1.0210  0.2022
19053TIP3    H178574   4.149   0.985   3.114  1.2359 -1.9084  1.9016
19053TIP3    H278575   4.243   1.100   3.144  0.5004 -0.7086 -0.2563
19054TIP3   OH278576   6.215   4.686  12.076 -0.5162 -0.2778  0.0570
19054TIP3    H178577   6.308   4.691  12.095 -0.5700  1.4505 -0.0770
19054TIP3    H278578   6.173   4.694  12.162 -0.5564 -0.8027  0.0891
19055TIP3   OH278579   0.480   0.736  12.533 -0.6246 -0.2135 -0.2542
19055TIP3    H178580   0.515   0.673  12.470  1.1182  1.7617 -1.3543
19055TIP3    H278581   0.408   0.779  12.487 -0.1435  0.3628 -0.4920
19056TIP3   OH278582   5.542   1.160  16.346  0.2682 -0.2887 -0.5598
19056TIP3    H178583   5.622   1.168  16.293  1.1343 -0.7539  0.6669
19056TIP3    H278584   5.499   1.083  16.311  1.2544 -1.0784 -0.0483
19057TIP3   OH278585   6.699   1.646   0.459  0.4293 -0.8388 -0.1810
19057TIP3    H178586   6.671   1.564   0.420 -0.1368  0.1078 -1.8289
19057TIP3    H278587   6.792   1.652   0.438  0.1289 -0.3412 -1.3773
19058TIP3   OH278588   5.867   3.918  11.509 -0.0964 -0.4157  0.2036
19058TIP3    H178589   5.836   3.996  11.463 -0.7482 -0.4321  0.6245
19058TIP3    H278590   5.951   3.899  11.467  0.3161  0.8128  0.4487
19059TIP3   OH278591   5.588   3.863   5.884 -0.0170  0.2524  0.0917
19059TIP3    H178592   5.664   3.917   5.903  0.6216 -0.3215 -0.7947
19059TIP3    H278593   5.576   3.810   5.963  2.8152 -2.3584 -1.1293
19060TIP3   OH278594   0.589   1.506   2.896 -0.4364 -0.3515 -0.1860
19060TIP3    H178595   0.660   1.552   2.941  1.3939 -0.9496 -2.3707
19060TIP3    H278596   0.509   1.539   2.937  0.9453  2.6410  0.2444
19061TIP3   OH278597   0.458   2.635   3.132  0.5248  0.7594  0.2323
19061TIP3    H178598   0.530   2.571   3.138 -0.1053  0.0521  0.2770
19061TIP3    H278599   0.484   2.692   3.060  1.7289  1.2619  1.0469
19062TIP3   OH278600   1.800   0.070  12.444  0.3697 -0.0892 -0.1403
19062TIP3    H178601   1.868   0.021  12.490 -0.4668 -1.7858 -0.6739
19062TIP3    H278602   1.808   0.043  12.353 -0.8724 -0.1496 -0.2429
19063TIP3   OH278603   1.735   0.720   3.597  0.4497 -0.2015 -0.2092
19063TIP3    H178604   1.667   0.665   3.559  0.8901 -0.6015 -0.4172
19063TIP3    H278605   1.723   0.805   3.554 -1.3295  0.3883  1.3551
19064TIP3   OH278606   5.805   6.472  13.609  0.2236  0.5723 -0.0182
19064TIP3    H178607   5.731   6.488  13.550 -0.1808 -0.8911  0.0482
19064TIP3    H278608   5.847   6.394  13.572  1.0215  0.6981  0.6279
19065TIP3   OH278609   5.059   0.250  12.829 -0.5555 -0.5229 -0.0153
19065TIP3    H178610   5.087   0.205  12.749  2.8328 -0.6259  1.1503
19065TIP3    H278611   5.044   0.340  12.802  1.0087 -0.4539 -0.7097
19066TIP3   OH278612   3.174   2.746  15.671 -0.6809  0.6077  0.3194
19066TIP3    H178613   3.268   2.739  15.655 -1.1623 -0.6933 -2.0950
19066TIP3    H278614   3.148   2.659  15.701 -1.4463  0.4471 -0.8168
19067TIP3   OH278615   6.383   1.924   1.665  0.6273  0.0873 -0.0408
19067TIP3    H178616   6.371   2.017   1.683 -0.4055 -0.0498  0.0073
19067TIP3    H278617   6.463   1.920   1.611  0.6048  1.0052 -0.1463
19068TIP3   OH278618   5.793   4.118  11.313 -0.0627 -0.3857  0.0668
19068TIP3    H178619   5.709   4.091  11.277 -0.2822 -0.3492  0.5437
19068TIP3    H278620   5.773   4.195  11.365  0.1294 -0.8411  0.8253
19069TIP3   OH278621   0.811   0.631   3.792 -0.0857  0.2512 -0.6747
19069TIP3    H178622   0.883   0.690   3.771  0.3582  1.5935  4.0797
19069TIP3    H278623   0.734   0.672   3.753  0.9628  1.4650 -1.4915
19070TIP3   OH278624   5.272   2.499  10.695  0.7176 -0.4044 -0.0928
19070TIP3    H178625   5.319   2.423  10.659  1.4213  0.1033 -0.2564
19070TIP3    H278626   5.311   2.513  10.781 -1.2780 -1.8985  1.0935
19071TIP3   OH278627   4.458   0.566  11.484  0.5120 -0.1676 -0.0753
19071TIP3    H178628   4.393   0.630  11.513 -0.2490 -2.1309  2.7797
19071TIP3    H278629   4.542   0.606  11.505  0.0557  0.1260  1.2298
19072TIP3   OH278630   4.576   0.830  14.075  0.0658 -0.1608 -0.6150
19072TIP3    H178631   4.625   0.909  14.098 -0.0059 -0.4359  0.4827
19072TIP3    H278632   4.551   0.792  14.159 -1.5772 -0.3202 -1.1745
19073TIP3   OH278633   1.684   6.528  12.468 -0.4603  0.2408  0.2371
19073TIP3    H178634   1.705   6.452  12.414  1.4263 -0.0208  1.2782
19073TIP3    H278635   1.756   6.533  12.531 -0.4126  3.0537  0.0238
19074TIP3   OH278636   2.198   2.755  11.021  0.0307 -0.5764  0.9974
19074TIP3    H178637   2.154   2.840  11.025 -0.5031 -0.7934 -0.0641
19074TIP3    H278638   2.249   2.758  10.941  1.0023 -0.7894  1.6036
19075TIP3   OH278639   0.435   2.025  16.562  0.2758  0.0512  0.2863
19075TIP3    H178640   0.402   1.940  16.590 -1.8095  0.7501  0.0105
19075TIP3    H278641   0.450   2.074  16.643 -0.2372  0.0460  0.3843
19076TIP3   OH278642   2.960   0.122   4.305  0.5255  0.6424  0.1060
19076TIP3    H178643   2.991   0.034   4.327  1.6206  0.5053 -1.8683
19076TIP3    H278644   2.926   0.114   4.216  0.5558  2.2047 -0.0547
19077TIP3   OH278645   2.697   5.217   3.965 -0.0218  0.0841  0.2468
19077TIP3    H178646   2.789   5.202   3.989 -0.2628 -0.7400  0.6537
19077TIP3    H278647   2.648   5.199   4.045 -0.6882 -1.1012 -0.4220
19078TIP3   OH278648   2.209   6.616  12.209 -0.2853  0.0869  0.1001
19078TIP3    H178649   2.303   6.630  12.221 -0.0593 -0.8983 -0.4109
19078TIP3    H278650   2.203   6.532  12.162 -1.3842  0.4873 -0.5146
19079TIP3   OH278651   3.296   5.421   1.906  0.3788  0.2802  0.5719
19079TIP3    H178652   3.320   5.505   1.945 -0.0241  0.2959  0.7888
19079TIP3    H278653   3.279   5.441   1.814 -1.2018  0.7219  0.9403
19080TIP3   OH278654   3.748   1.546  11.439 -0.6806  0.0082  0.4540
19080TIP3    H178655   3.832   1.576  11.403 -0.7803  0.0776  0.2751
19080TIP3    H278656   3.710   1.493  11.369 -1.7690  1.7596 -0.3356
19081TIP3   OH278657   4.824   6.168   5.255  0.2278  0.0695 -0.2774
19081TIP3    H178658   4.844   6.075   5.248  3.5153  0.8509 -2.1410
19081TIP3    H278659   4.849   6.191   5.345  1.2354 -0.4657 -0.4119
19082TIP3   OH278660   5.817   5.222  15.459 -0.0545  0.7443  0.7284
19082TIP3    H178661   5.829   5.156  15.527 -1.4798 -0.7626 -0.4505
19082TIP3    H278662   5.843   5.304  15.501  3.3988 -0.7681  1.6833
19083TIP3   OH278663   5.554   3.566  13.284  0.1451 -0.5297  0.3863
19083TIP3    H178664   5.533   3.473  13.288 -0.6084 -0.3334  1.3951
19083TIP3    H278665   5.580   3.589  13.374  1.0721  0.0593 -0.0319
19084TIP3   OH278666   0.311   1.424   5.640  0.0155 -0.4837  0.3037
19084TIP3    H178667   0.397   1.388   5.662  0.4377  0.1625 -0.2905
19084TIP3    H278668   0.255   1.347   5.628  0.9316 -0.9624 -1.0160
19085TIP3   OH278669   5.579   6.183   1.657  0.1445  0.2879 -0.5742
19085TIP3    H178670   5.507   6.239   1.627  1.5478  1.5907 -1.6162
19085TIP3    H278671   5.561   6.168   1.750  0.8295  4.3256  0.3171
19086TIP3   OH278672   6.206   0.781   1.426  0.0309  0.6403 -0.8275
19086TIP3    H178673   6.162   0.721   1.365 -0.5976  0.0047  0.2436
19086TIP3    H278674   6.252   0.842   1.369  0.2564 -0.5399 -1.9516
19087TIP3   OH278675   4.172   1.291   2.179  0.0015 -0.1392 -0.7688
19087TIP3    H178676   4.117   1.227   2.224 -0.8866  1.0161 -0.1938
19087TIP3    H278677   4.155   1.277   2.086 -1.0124 -0.0052 -0.6037
19088TIP3   OH278678   4.653   4.175   3.575  0.0055 -0.2333 -0.2421
19088TIP3    H178679   4.658   4.200   3.483 -1.7601  0.4116 -0.1834
19088TIP3    H278680   4.584   4.231   3.612 -1.1010 -2.2648  0.8609
19089TIP3   OH278681   0.723   3.914  12.739  0.1823  0.1078 -0.7176
19089TIP3    H178682   0.741   3.984  12.676 -0.2867  1.5393  0.7051
19089TIP3    H278683   0.631   3.894  12.727 -0.2240  1.2535  0.3330
19090TIP3   OH278684   5.168   6.360  10.955  0.1321 -0.4445  0.3681
19090TIP3    H178685   5.206   6.379  11.040  0.0524  1.3023  0.0293
19090TIP3    H278686   5.173   6.265  10.947  1.9345 -0.4712  1.4818
19091TIP3   OH278687   5.024   5.161  12.140 -0.0231  0.1563 -0.1918
19091TIP3    H178688   4.966   5.091  12.111  2.9384 -1.9228 -1.3068
19091TIP3    H278689   5.058   5.130  12.224 -1.5558  2.0413  1.1931
19092TIP3   OH278690   6.242   2.267  16.299  0.0485  0.2672 -0.2404
19092TIP3    H178691   6.160   2.294  16.340 -0.4257 -0.2541 -0.8175
19092TIP3    H278692   6.221   2.263  16.205  0.4857 -0.7241 -0.3001
19093TIP3   OH278693   2.631   3.248  16.562 -0.1500  0.1192  0.4421
19093TIP3    H178694   2.577   3.182  16.520 -0.8286 -1.4615  3.7010
19093TIP3    H278695   2.579   3.328  16.558 -0.6955 -0.2827 -0.6266
19094TIP3   OH278696   5.476   2.835   0.471  0.7293  0.6257  0.2481
19094TIP3    H178697   5.474   2.896   0.398 -1.9247  0.0038 -0.2379
19094TIP3    H278698   5.548   2.775   0.450  1.0278  1.4147 -1.0422
19095TIP3   OH278699   3.911   4.581   3.397 -0.6588 -0.1100 -0.4421
19095TIP3    H178700   3.951   4.496   3.413 -1.3591 -0.2087  0.7758
19095TIP3    H278701   3.825   4.577   3.439 -1.3584  0.6391 -1.7395
19096TIP3   OH278702   1.367   3.063  11.516 -0.2162  0.1228  0.0751
19096TIP3    H178703   1.272   3.064  11.508 -0.2401  0.3721  0.3739
19096TIP3    H278704   1.394   2.983  11.471 -0.5525  0.1377 -0.1555
19097TIP3   OH278705   2.987   3.395  12.118  0.2645  0.4100 -0.6694
19097TIP3    H178706   2.906   3.344  12.122  0.0545  0.6956 -1.2778
19097TIP3    H278707   3.042   3.347  12.056  0.1794  0.7561 -1.0160
19098TIP3   OH278708   6.766   0.551  17.034  0.1548 -0.1494 -0.1655
19098TIP3    H178709   6.699   0.612  17.066  0.3043 -1.0757  2.0356
19098TIP3    H278710   6.718   0.469  17.020  0.1445  0.1704 -2.1720
19099TIP3   OH278711   5.515   0.331  13.933 -0.4744 -0.0949  0.1736
19099TIP3    H178712   5.470   0.254  13.899 -0.3653 -1.1408  2.3251
19099TIP3    H278713   5.463   0.358  14.009 -1.3539  2.8669 -1.3813
19100TIP3   OH278714   0.643   4.628  15.585 -0.2673  0.4741  0.1052
19100TIP3    H178715   0.555   4.590  15.581  0.0602 -0.2438 -0.4062
19100TIP3    H278716   0.669   4.620  15.677 -0.2513 -0.4427  0.0267
19101TIP3   OH278717   2.526   1.174  12.493  0.3223 -0.1593  0.2814
19101TIP3    H178718   2.461   1.243  12.511  1.1353  0.9086 -0.7661
19101TIP3    H278719   2.608   1.210  12.526  0.4678 -1.3563  1.2636
19102TIP3   OH278720   4.780   1.315   1.648 -0.0202  0.2694 -0.6540
19102TIP3    H178721   4.789   1.309   1.553  0.2189  0.9118 -0.6701
19102TIP3    H278722   4.784   1.224   1.677 -0.2758  0.0560 -1.2735
19103TIP3   OH278723   1.880   4.400  14.892 -0.2680  0.1491 -0.2489
19103TIP3    H178724   1.899   4.485  14.930  0.5001 -0.6305  1.1765
19103TIP3    H278725   1.786   4.387  14.908 -0.3214  0.6029 -0.2045
19104TIP3   OH278726   2.658   1.765  14.937  0.5293 -0.4393 -0.1294
19104TIP3    H178727   2.627   1.764  14.847 -0.0284 -1.7982  0.0631
19104TIP3    H278728   2.750   1.790  14.930  0.1413  0.8042 -0.9503
19105TIP3   OH278729   0.388   4.276   5.616  0.6786  0.5695  0.3782
19105TIP3    H178730   0.331   4.212   5.660  2.6737 -1.7632 -0.3567
19105TIP3    H278731   0.340   4.299   5.537  0.0369 -0.1661  0.5397
19106TIP3   OH278732   5.892   6.553  11.596 -0.7291 -0.2050  0.2244
19106TIP3    H178733   5.895   6.498  11.674 -1.6649 -0.5813 -0.0076
19106TIP3    H278734   5.833   6.625  11.619 -0.9792 -0.2970 -0.1205
19107TIP3   OH278735   0.810   1.072   3.898 -0.3849 -0.1018  0.2687
19107TIP3    H178736   0.803   1.048   3.990 -1.6403  2.5048  0.9220
19107TIP3    H278737   0.878   1.139   3.895 -0.7602  0.2648 -0.5799
19108TIP3   OH278738   3.425   3.528  16.461 -0.1232 -0.1908 -1.1777
19108TIP3    H178739   3.487   3.532  16.534  1.2713  1.3746 -2.3808
19108TIP3    H278740   3.449   3.449  16.412 -1.3851 -1.5162  0.3020
19109TIP3   OH278741   6.580   5.807   0.151  0.6577  0.1204 -0.0416
19109TIP3    H178742   6.650   5.796   0.215 -0.1144  0.4903  0.8918
19109TIP3    H278743   6.545   5.719   0.138  1.1468 -0.0320 -0.3499
19110TIP3   OH278744   4.347   3.586   0.480 -0.3585 -0.3683  0.0657
19110TIP3    H178745   4.441   3.579   0.465 -0.7577 -0.2091 -2.7473
19110TIP3    H278746   4.318   3.496   0.497  0.0468 -0.6510 -0.7344
19111TIP3   OH278747   1.945   5.432  12.650 -0.7007  0.3622  0.0888
19111TIP3    H178748   1.889   5.508  12.637 -0.8607  0.1673 -0.3823
19111TIP3    H278749   2.018   5.464  12.703 -1.4249  0.5377  1.0081
19112TIP3   OH278750   3.805   1.945  15.522  0.0162  0.8359  0.3787
19112TIP3    H178751   3.890   1.988  15.533  0.4389 -0.1244  0.9845
19112TIP3    H278752   3.769   1.938  15.611 -0.3815  0.6266  0.2066
19113TIP3   OH278753   2.793   1.803  12.042 -0.5622  0.4062 -0.2959
19113TIP3    H178754   2.846   1.741  12.092  2.6235  1.7995 -1.8315
19113TIP3    H278755   2.777   1.875  12.103  1.1305  0.9300 -0.4348
19114TIP3   OH278756   4.305   1.560   4.235 -0.0828 -0.8210 -0.0578
19114TIP3    H178757   4.392   1.552   4.195  0.1459  1.6821 -0.1574
19114TIP3    H278758   4.322   1.572   4.328 -0.0875  2.6375 -0.4163
19115TIP3   OH278759   1.829   0.202  12.698  0.1950 -1.0804 -0.1173
19115TIP3    H178760   1.799   0.262  12.629  1.0469 -0.2176  0.2516
19115TIP3    H278761   1.888   0.142  12.653 -0.4439 -1.4818 -0.4336
19116TIP3   OH278762   2.143   5.667  12.728  0.3971 -0.4593  0.2053
19116TIP3    H178763   2.114   5.758  12.724  0.6339 -0.4560 -2.4100
19116TIP3    H278764   2.168   5.654  12.819  0.4189  2.1188  0.6105
19117TIP3   OH278765   3.363   5.558  14.922 -0.3242  0.3989 -0.5796
19117TIP3    H178766   3.320   5.564  14.836  0.6948  2.2572 -0.9895
19117TIP3    H278767   3.454   5.584  14.905  0.2103 -0.5240  0.8248
19118TIP3   OH278768   3.298   6.774  16.288  0.3475 -0.0005  0.0839
19118TIP3    H178769   3.214   6.813  16.263  1.2163  2.6547  1.0418
19118TIP3    H278770   3.279   6.726  16.369 -0.7883 -1.6900 -1.1845
19119TIP3   OH278771   5.841   2.587   3.089 -0.1491  0.4638 -0.3236
19119TIP3    H178772   5.891   2.568   3.168 -0.1711  0.2441 -0.3636
19119TIP3    H278773   5.776   2.652   3.117 -1.5866 -1.2380  0.3473
19120TIP3   OH278774   1.344   1.646   3.708  0.5344  0.4979  0.2931
19120TIP3    H178775   1.366   1.737   3.692  0.1773  0.8374  1.6610
19120TIP3    H278776   1.248   1.645   3.710  0.5476  0.3106  1.3849
19121TIP3   OH278777   5.215   4.401  14.210 -0.0197  1.1399 -0.0880
19121TIP3    H178778   5.308   4.423  14.218  0.2915 -0.2179  0.0882
19121TIP3    H278779   5.191   4.366  14.296  0.2253 -1.9161 -1.2163
19122TIP3   OH278780   6.141   5.359   5.501 -0.3136 -0.3523  0.2174
19122TIP3    H178781   6.076   5.289   5.504  0.5053 -1.2465 -2.0320
19122TIP3    H278782   6.209   5.326   5.443  1.9001  0.8070  2.0924
19123TIP3   OH278783   5.023   1.050  14.867 -0.7514  0.9020  0.4521
19123TIP3    H178784   5.002   1.022  14.956  0.5481  0.8620  0.7561
19123TIP3    H278785   5.101   1.000  14.844 -1.4694  0.3897 -0.9868
19124TIP3   OH278786   0.246   6.772  10.697 -0.2540 -0.1860  0.5818
19124TIP3    H178787   0.283   6.851  10.657  0.6235  0.6486  2.9141
19124TIP3    H278788   0.322   6.722  10.727 -0.8718 -0.6103  1.4887
19125TIP3   OH278789   0.044   0.953   4.648 -0.6212  0.0239  0.0577
19125TIP3    H178790   0.113   0.960   4.715 -1.2374 -0.7401  0.7941
19125TIP3    H278791  -0.017   0.888   4.684 -1.9670  1.0324 -0.3687
19126TIP3   OH278792   2.464   1.055  11.100 -0.2301 -0.2086  0.3436
19126TIP3    H178793   2.382   1.007  11.092 -0.6788  0.5130  0.6005
19126TIP3    H278794   2.483   1.085  11.012  0.4795 -1.5385  0.0235
19127TIP3   OH278795   3.776   4.241  12.418  0.2549 -0.2199  0.0577
19127TIP3    H178796   3.769   4.247  12.323  1.1784  1.7243  0.0894
19127TIP3    H278797   3.771   4.332  12.449  1.0019 -0.7339  1.7826
19128TIP3   OH278798   6.122   4.835  14.491 -0.6142 -0.2771 -0.0865
19128TIP3    H178799   6.078   4.890  14.557 -2.0574 -2.4075  0.7823
19128TIP3    H278800   6.081   4.861  14.408 -0.5068  0.7258  0.1639
19129TIP3   OH278801   2.093   4.534   3.066 -0.0215 -0.1659 -0.9442
19129TIP3    H178802   2.064   4.533   3.157  0.7643 -1.8740 -0.6761
19129TIP3    H278803   2.013   4.526   3.015 -0.4394  0.4896 -0.3906
19130TIP3   OH278804   6.663   2.182   1.369  0.6277 -0.5251  0.4933
19130TIP3    H178805   6.702   2.269   1.363  0.7150 -0.5268  1.0455
19130TIP3    H278806   6.684   2.141   1.284 -0.1330  0.2817 -0.0938
19131TIP3   OH278807   0.752   6.020   5.221  0.5557  0.2151 -0.1277
19131TIP3    H178808   0.814   5.955   5.187 -0.6706 -0.9335 -0.1772
19131TIP3    H278809   0.682   5.969   5.261 -1.2854  1.4697 -1.6576
19132TIP3   OH278810   0.810   3.322   4.647  0.3156  0.3733  0.1098
19132TIP3    H178811   0.748   3.389   4.673 -1.7431 -0.7887 -1.6845
19132TIP3    H278812   0.796   3.251   4.709  0.6355  0.5393  0.3748
19133TIP3   OH278813   4.714   6.548  15.286 -0.5873 -0.5082 -0.0996
19133TIP3    H178814   4.740   6.557  15.377  0.8093  0.9447 -0.6145
19133TIP3    H278815   4.746   6.462  15.260 -1.3558 -1.0977  0.8830
19134TIP3   OH278816   2.160   6.568  11.674 -0.1870 -0.2901 -0.4966
19134TIP3    H178817   2.249   6.559  11.707 -1.0873 -0.3661  2.0678
19134TIP3    H278818   2.170   6.601  11.585  2.3813  0.3450 -0.0086
19135TIP3   OH278819   1.902   4.158   5.448 -0.1252 -0.1787  0.0958
19135TIP3    H178820   1.950   4.151   5.366 -1.1198 -1.9479 -0.3664
19135TIP3    H278821   1.815   4.189   5.422 -0.7822 -1.7862  0.3339
19136TIP3   OH278822   5.317   2.351   4.855  0.2857 -0.5131 -0.2730
19136TIP3    H178823   5.365   2.432   4.838 -0.7754 -0.0562 -1.1743
19136TIP3    H278824   5.293   2.356   4.948  0.5755  0.0192 -0.2272
19137TIP3   OH278825   4.035   6.449  15.783  0.0396 -0.0679 -0.5238
19137TIP3    H178826   4.004   6.402  15.860 -1.9479 -1.2415 -2.0052
19137TIP3    H278827   4.130   6.450  15.792 -0.2597  2.4295  3.4511
19138TIP3   OH278828   3.225   2.517  16.212 -0.1766  0.1075 -0.3002
19138TIP3    H178829   3.305   2.537  16.163  0.4530  1.7879  1.3638
19138TIP3    H278830   3.241   2.430  16.249  0.2580 -0.2121 -1.2223
19139TIP3   OH278831   1.000   1.935  16.367  0.0141 -0.1669 -0.4878
19139TIP3    H178832   0.913   1.972  16.352  0.9050  2.2359  0.1237
19139TIP3    H278833   1.033   1.915  16.280 -0.7451 -0.1532 -0.7860
19140TIP3   OH278834   3.835   1.835   5.823 -0.1453 -0.5839  0.0862
19140TIP3    H178835   3.892   1.820   5.748 -0.8973  0.8509 -0.8034
19140TIP3    H278836   3.878   1.904   5.873 -0.5428 -0.2584 -0.0108
19141TIP3   OH278837   2.003   0.531  16.182 -0.1554 -0.2958 -0.6990
19141TIP3    H178838   2.039   0.533  16.270 -0.2885  0.4231 -0.6546
19141TIP3    H278839   1.976   0.440  16.169  1.4782 -0.8072 -0.6603
19142TIP3   OH278840   4.920   6.247  14.656  0.1354  0.3950 -0.0024
19142TIP3    H178841   5.011   6.251  14.628  0.1922  1.8971  0.3977
19142TIP3    H278842   4.880   6.326  14.620 -1.2519 -0.6992 -0.9708
19143TIP3   OH278843   3.955   2.041   5.948  0.0656  0.2417 -0.2452
19143TIP3    H178844   4.041   2.012   5.980 -0.8094 -1.3976  0.6938
19143TIP3    H278845   3.937   2.121   5.998  1.1069  0.6912 -0.5630
19144TIP3   OH278846   1.691   2.890  11.249  0.0191  0.1119 -0.2649
19144TIP3    H178847   1.656   2.965  11.201 -0.5402 -0.2153 -0.3765
19144TIP3    H278848   1.613   2.844  11.281  0.3879  0.3663  1.0123
19145TIP3   OH278849   4.579   6.237  16.552 -0.7683  0.4549 -0.3832
19145TIP3    H178850   4.596   6.181  16.477 -1.9488 -0.5027  0.0560
19145TIP3    H278851   4.649   6.303  16.549  0.1798 -0.5774 -1.3340
19146TIP3   OH278852   4.690   4.583  16.465  0.3803  0.6559  0.2370
19146TIP3    H178853   4.730   4.538  16.390 -0.0481 -0.1101  0.4577
19146TIP3    H278854   4.726   4.671  16.462  2.2650 -0.0732  0.5603
19147TIP3   OH278855   1.519   6.132   0.406 -0.0519 -0.1392  0.5225
19147TIP3    H178856   1.482   6.175   0.483 -1.0075 -0.3389  0.1824
19147TIP3    H278857   1.598   6.088   0.439  1.3117  2.3743  0.7496
19148TIP3   OH278858   2.823   0.196  13.364 -0.1891  0.1182 -0.0242
19148TIP3    H178859   2.824   0.288  13.392 -0.4665 -0.4859  2.0201
19148TIP3    H278860   2.752   0.192  13.300  0.2392  1.4666 -0.6059
19149TIP3   OH278861   1.215   0.798   6.218  0.5985  0.0186 -0.0940
19149TIP3    H178862   1.269   0.724   6.247 -0.3077 -0.8979 -0.7175
19149TIP3    H278863   1.278   0.863   6.186  1.3965 -0.4890  0.4259
19150TIP3   OH278864   6.526   3.433   3.206  0.1463 -0.0505 -0.3377
19150TIP3    H178865   6.608   3.407   3.249 -1.3752 -1.7138  1.6570
19150TIP3    H278866   6.507   3.520   3.242  0.8187  0.1620 -0.4857
19151TIP3   OH278867   6.094   3.836  16.854  0.0402  0.1180 -0.3071
19151TIP3    H178868   6.104   3.812  16.762  0.6549 -2.0185  0.2729
19151TIP3    H278869   6.154   3.909  16.867 -0.9243  1.2113 -1.8607
19152TIP3   OH278870   2.718   1.897  16.256 -0.0415 -0.2090 -0.3772
19152TIP3    H178871   2.803   1.864  16.227  0.9120  1.5809  0.3188
19152TIP3    H278872   2.676   1.929  16.176  0.0787 -0.7616 -0.6683
19153TIP3   OH278873   3.930   5.555   1.880  0.2766 -0.2433 -0.2935
19153TIP3    H178874   3.871   5.530   1.951 -0.6057 -0.1228 -0.9696
19153TIP3    H278875   3.899   5.505   1.805  0.4223  0.5675 -0.9029
19154TIP3   OH278876   4.694   3.530  12.610  0.1061 -0.1564  0.8381
19154TIP3    H178877   4.689   3.454  12.551  3.1533  0.0679  0.2060
19154TIP3    H278878   4.633   3.593  12.573  1.5680 -0.2416 -1.8209
19155TIP3   OH278879   0.329   3.735  14.775  0.7309  0.1323  0.3521
19155TIP3    H178880   0.268   3.806  14.796 -0.6376 -0.8313 -0.3085
19155TIP3    H278881   0.306   3.665  14.836  2.1049  0.2293  1.0267
19156TIP3   OH278882   1.814   5.733  11.329 -0.0286 -0.1122 -0.6438
19156TIP3    H178883   1.851   5.709  11.244 -0.0768 -0.8136 -0.4692
19156TIP3    H278884   1.890   5.756  11.382  0.0983 -0.7672 -0.5343
19157TIP3   OH278885   3.287   2.053   4.389 -0.2370 -0.1053  0.1028
19157TIP3    H178886   3.261   2.144   4.373 -0.0029 -0.2335 -1.0416
19157TIP3    H278887   3.279   2.010   4.304  1.2898 -0.7512  0.2593
19158TIP3   OH278888   3.984   0.476   3.634 -0.4647  0.5519 -0.6582
19158TIP3    H178889   3.988   0.383   3.609  1.4001  0.6374 -0.7568
19158TIP3    H278890   4.065   0.491   3.682 -1.3479  1.8370  0.4555
19159TIP3   OH278891   0.492   2.714  13.207  0.0524 -0.0652 -0.4964
19159TIP3    H178892   0.449   2.629  13.205 -0.6395  0.2778 -0.3230
19159TIP3    H278893   0.585   2.694  13.220 -0.0434 -0.8100 -0.9469
19160TIP3   OH278894   2.985   4.974   3.727  0.0501  0.3478  0.4198
19160TIP3    H178895   3.026   4.978   3.641 -2.3640  2.6685 -0.6883
19160TIP3    H278896   2.972   5.066   3.752 -1.8677 -0.3021  1.9680
19161TIP3   OH278897   1.531   0.244  16.809  0.0278 -0.3887 -0.0892
19161TIP3    H178898   1.475   0.167  16.794  2.3059 -1.9661 -0.7756
19161TIP3    H278899   1.518   0.266  16.901 -1.5320 -0.8544 -0.1821
19162TIP3   OH278900   3.100   4.100   2.959  0.0276  0.0704 -0.7706
19162TIP3    H178901   3.005   4.089   2.948 -0.0318 -0.8261  0.6363
19162TIP3    H278902   3.123   4.166   2.893 -1.6139  0.5152 -0.9308
19163TIP3   OH278903   5.301   2.140   1.050  0.3530  0.0944  0.2984
19163TIP3    H178904   5.230   2.200   1.074 -0.0329 -0.8282  1.4924
19163TIP3    H278905   5.295   2.132   0.955 -1.3849 -0.2832  0.4276
19164TIP3   OH278906   0.382   0.377   1.036 -0.0397  0.2543 -0.5276
19164TIP3    H178907   0.406   0.308   1.098  0.0857  1.3395  0.6491
19164TIP3    H278908   0.462   0.394   0.986  0.2367  0.3286 -0.0613
19165TIP3   OH278909   5.276   5.932  13.406  0.7792  0.6280 -0.2258
19165TIP3    H178910   5.336   5.969  13.470  0.0352 -0.6860  1.2531
19165TIP3    H278911   5.190   5.963  13.433  0.4784  0.2365 -0.7134
19166TIP3   OH278912   4.211   6.122  10.921 -0.2377 -0.2154  0.4462
19166TIP3    H178913   4.213   6.034  10.884 -1.2324  0.2638 -0.7976
19166TIP3    H278914   4.150   6.116  10.994 -1.6371 -0.1919 -0.6857
19167TIP3   OH278915   3.106   4.134   4.257  0.6586 -0.1874 -0.1249
19167TIP3    H178916   3.140   4.117   4.169  1.3753  0.2265  0.0665
19167TIP3    H278917   3.174   4.101   4.315  0.7391  0.6427  0.2641
19168TIP3   OH278918   2.853   0.347   4.673  0.0809  0.1548 -0.1243
19168TIP3    H178919   2.789   0.398   4.624  1.9887  2.2742 -0.4636
19168TIP3    H278920   2.829   0.360   4.765 -0.1290  0.6977 -0.2570
19169TIP3   OH278921   6.714   0.890  12.441  0.3710 -0.1405  1.0538
19169TIP3    H178922   6.698   0.867  12.532 -0.4837 -2.2920  0.3870
19169TIP3    H278923   6.712   0.806  12.394  2.7284  0.6939 -0.6667
19170TIP3   OH278924   4.870   4.095  16.489  0.1846  0.1625 -0.1099
19170TIP3    H178925   4.933   4.047  16.542  0.8800  2.4955  1.2439
19170TIP3    H278926   4.785   4.074  16.528  0.1444 -2.3117 -1.4135
19171TIP3   OH278927   1.512   1.873   5.478  0.2259  0.2812  0.4277
19171TIP3    H178928   1.578   1.929   5.519  0.4091  1.3902 -1.3489
19171TIP3    H278929   1.429   1.902   5.516  0.5451  0.1892  1.2155
19172TIP3   OH278930   2.427   2.192  16.484 -0.1833 -0.0087 -0.4684
19172TIP3    H178931   2.385   2.126  16.540 -1.3923 -0.8084 -2.2715
19172TIP3    H278932   2.520   2.168  16.486 -0.5340 -1.4737 -0.6696
19173TIP3   OH278933   4.336   0.998   2.194 -0.6405  0.6393  0.4115
19173TIP3    H178934   4.374   1.013   2.281 -2.1636 -0.2216  1.2534
19173TIP3    H278935   4.399   1.037   2.133  0.8977  0.4539  1.8408
19174TIP3   OH278936   3.559   0.837  16.024  0.8243 -0.1173  0.1446
19174TIP3    H178937   3.647   0.827  15.988  0.3330  1.2407 -1.4942
19174TIP3    H278938   3.500   0.813  15.952 -0.1486 -0.4336  1.0277
19175TIP3   OH278939   3.076   6.646   0.951 -1.3240 -0.5431  0.5572
19175TIP3    H178940   3.033   6.561   0.939 -1.2590 -0.5872  0.6329
19175TIP3    H278941   3.123   6.637   1.034  0.9284 -1.4061 -0.7642
19176TIP3   OH278942   5.183   3.143  13.464 -0.3693  0.5916  0.4912
19176TIP3    H178943   5.126   3.126  13.389 -0.9163  2.8190  0.3586
19176TIP3    H278944   5.125   3.142  13.540 -0.3358  1.2988  0.5322
19177TIP3   OH278945   0.014   3.679  16.149 -0.0924  0.5512  0.0183
19177TIP3    H178946   0.071   3.693  16.073 -1.5268  1.7326 -0.8679
19177TIP3    H278947  -0.057   3.742  16.138 -0.8485  0.0479  1.8299
19178TIP3   OH278948   6.243   6.701  12.567 -0.2496  0.1552 -0.5059
19178TIP3    H178949   6.333   6.725  12.548  0.3751  0.6395  2.7559
19178TIP3    H278950   6.221   6.750  12.647 -2.1392 -2.7998  0.8719
19179TIP3   OH278951   5.022   3.758   1.007 -0.2433 -0.0000  0.0695
19179TIP3    H178952   4.949   3.704   0.975  1.1562 -3.0929  1.8964
19179TIP3    H278953   5.006   3.765   1.102  0.3304  1.7198  0.0521
19180TIP3   OH278954   5.108   2.075   4.002  0.1478  0.1082  0.0449
19180TIP3    H178955   5.128   2.150   3.945  1.5814  0.3292  0.8228
19180TIP3    H278956   5.094   2.003   3.941 -0.7821  0.8901 -0.6960
19181TIP3   OH278957   4.299   1.949  13.759  0.2610  0.2238  0.0777
19181TIP3    H178958   4.310   2.005  13.682 -0.9632 -0.5787 -0.6997
19181TIP3    H278959   4.374   1.891  13.756  0.6036  0.6682 -0.1047
19182TIP3   OH278960   0.592   6.574  15.694  0.1481  0.1713 -0.8895
19182TIP3    H178961   0.498   6.567  15.711 -0.1892  1.9977 -1.8343
19182TIP3    H278962   0.598   6.622  15.612  1.9220  0.2779 -0.7227
19183TIP3   OH278963   3.967   6.353   4.406  0.0025  0.5373 -0.4086
19183TIP3    H178964   3.977   6.428   4.348  0.4578  0.8543  0.0691
19183TIP3    H278965   4.046   6.354   4.460 -0.5401  0.4116  0.3981
19184TIP3   OH278966   1.121   4.025  12.404  0.4024 -0.1921 -0.0672
19184TIP3    H178967   1.161   4.112  12.405 -0.5431  0.2442  0.7127
19184TIP3    H278968   1.195   3.965  12.393  0.9737  0.7420 -1.5135
19185TIP3   OH278969   2.002   5.346   0.870  0.0956 -0.4434 -0.2037
19185TIP3    H178970   1.963   5.263   0.841 -0.7126 -0.4654  0.9211
19185TIP3    H278971   2.051   5.323   0.949  0.3452  0.0476 -0.2146
19186TIP3   OH278972   0.478   2.505   0.410 -0.0536 -0.2585  0.1273
19186TIP3    H178973   0.487   2.514   0.505 -0.6267  1.6676  0.0092
19186TIP3    H278974   0.566   2.519   0.376  0.0425 -0.3745  0.3241
19187TIP3   OH278975   0.405   5.385   5.712  0.4520 -0.3632 -0.1601
19187TIP3    H178976   0.434   5.326   5.642  2.0196  1.6232 -1.2322
19187TIP3    H278977   0.363   5.458   5.667 -1.4986 -0.6150  1.1583
19188TIP3   OH278978   3.879   6.347  12.298  0.5996 -0.4668 -0.2054
19188TIP3    H178979   3.874   6.263  12.252 -0.0341 -1.7950  2.2003
19188TIP3    H278980   3.950   6.335  12.361  1.3163  1.2441 -0.6524
19189TIP3   OH278981   4.723   0.945  12.543  0.0461  0.2473  0.2398
19189TIP3    H178982   4.718   0.951  12.447 -1.5702 -1.3692  0.1953
19189TIP3    H278983   4.712   1.035  12.573 -1.1481  0.5632 -1.0666
19190TIP3   OH278984   2.821   3.294   3.881  0.4294  0.1507  0.5539
19190TIP3    H178985   2.853   3.233   3.814  0.0887  0.6663 -0.0797
19190TIP3    H278986   2.760   3.351   3.835 -0.3239  0.0778  1.4548
19191TIP3   OH278987   0.577   2.199  11.351  0.1313  0.0773 -0.2764
19191TIP3    H178988   0.589   2.245  11.268  0.0931  3.2970  1.3796
19191TIP3    H278989   0.491   2.157  11.343  0.3187  0.0138 -2.0267
19192TIP3   OH278990   2.355   3.382  11.467 -0.1846 -0.2842 -0.0751
19192TIP3    H178991   2.371   3.297  11.428  0.6121 -0.7216  1.1901
19192TIP3    H278992   2.441   3.413  11.494 -0.5061  0.7935 -0.2351
19193TIP3   OH278993   0.367   4.674   0.327  0.3142 -0.3550 -0.7576
19193TIP3    H178994   0.413   4.658   0.245 -0.3967 -0.8236 -1.0729
19193TIP3    H278995   0.417   4.627   0.393  1.1639  0.4170 -0.8367
19194TIP3   OH278996   1.158   2.795   2.496  0.1613  0.3406  0.1363
19194TIP3    H178997   1.144   2.716   2.444  2.3554 -0.7426  1.1617
19194TIP3    H278998   1.176   2.863   2.432 -1.6170  0.0140 -0.7477
19195TIP3   OH278999   2.037   1.242   3.128 -0.2293  0.3162  0.0976
19195TIP3    H179000   1.968   1.184   3.162  0.7191 -2.3178 -2.2687
19195TIP3    H279001   2.065   1.292   3.205 -2.5879 -0.7861  1.7854
19196TIP3   OH279002   0.011   3.734   2.569  0.8509  0.6920 -0.0039
19196TIP3    H179003  -0.025   3.646   2.563  1.1725  0.4955  0.8421
19196TIP3    H279004  -0.035   3.774   2.643  0.0725  1.5348 -0.9494
19197TIP3   OH279005   5.657   0.162  16.141  0.0281  0.3541  0.4188
19197TIP3    H179006   5.626   0.089  16.194  0.3951  0.0858  0.2649
19197TIP3    H279007   5.587   0.177  16.077 -0.1718  0.3240  0.6306
19198TIP3   OH279008   3.326   6.098   3.948 -0.0176 -0.0580  0.1655
19198TIP3    H179009   3.411   6.128   3.981  0.0532 -0.5327  0.4169
19198TIP3    H279010   3.300   6.165   3.885  1.0926 -0.4975 -0.7740
19199TIP3   OH279011   1.327   0.766   0.095  0.3176  0.0499 -0.7150
19199TIP3    H179012   1.353   0.699   0.159  0.9844  0.1586 -0.8698
19199TIP3    H279013   1.336   0.848   0.143 -3.3914 -0.1243  0.4576
19200TIP3   OH279014   4.639   0.681  16.120  0.3233 -0.1322  0.2481
19200TIP3    H179015   4.589   0.704  16.042  0.6790 -1.9138 -0.5471
19200TIP3    H279016   4.637   0.759  16.174 -0.9694  0.7327 -1.0053
19201TIP3   OH279017   3.858   1.607   6.255  0.5228 -0.0757  0.8998
19201TIP3    H179018   3.771   1.572   6.236  0.1697  1.1811  0.1313
19201TIP3    H279019   3.906   1.598   6.172  0.0277  2.3570  0.2918
19202TIP3   OH279020   6.671   2.549  15.794 -0.5818  0.4345  0.1267
19202TIP3    H179021   6.710   2.462  15.784  1.2186  1.4419 -2.1319
19202TIP3    H279022   6.580   2.538  15.766 -0.4596 -0.8018  0.1720
19203TIP3   OH279023   0.523   0.252  16.599 -0.3290 -0.3112  0.2593
19203TIP3    H179024   0.498   0.173  16.647  0.3712  0.7116  2.3340
19203TIP3    H279025   0.494   0.324  16.654 -1.6978  0.9146 -2.0243
19204TIP3   OH279026   0.968   0.979  13.493  0.6165  0.2359 -0.2311
19204TIP3    H179027   0.956   0.903  13.551 -0.9466  0.9667  0.4216
19204TIP3    H279028   1.037   0.951  13.432 -0.2530 -1.9013 -0.3052
19205TIP3   OH279029   0.326   5.097   2.821 -0.2223  0.0210  0.7781
19205TIP3    H179030   0.270   5.086   2.744  0.9067 -3.4125  0.3615
19205TIP3    H279031   0.266   5.094   2.895 -0.9191 -0.4664  0.1952
19206TIP3   OH279032   1.771   5.994  13.296  0.1437 -0.4027 -0.1406
19206TIP3    H179033   1.822   5.976  13.217  1.1348  1.4467  0.0246
19206TIP3    H279034   1.794   5.924  13.356  1.5531 -0.3004 -0.5314
19207TIP3   OH279035   0.912   3.956  12.952  0.4144  0.7239 -0.2638
19207TIP3    H179036   0.840   3.961  12.890  0.4077  0.9940 -0.2354
19207TIP3    H279037   0.892   3.879  13.006 -0.1351  1.1131  0.0934
19208TIP3   OH279038   3.468   6.746   2.591 -0.3078 -0.2155 -0.1950
19208TIP3    H179039   3.483   6.652   2.605  0.5558 -0.2412 -1.1957
19208TIP3    H279040   3.482   6.758   2.497 -3.5508  0.3661 -0.6465
19209TIP3   OH279041   6.083   0.541  13.397  0.0934 -0.2031 -0.0551
19209TIP3    H179042   6.121   0.558  13.311  0.1393  2.7604  0.5108
19209TIP3    H279043   6.147   0.577  13.459 -1.8237  1.3546  1.0460
19210TIP3   OH279044   0.178   5.944   1.862 -0.4622 -0.7092 -0.1118
19210TIP3    H179045   0.160   6.034   1.888 -0.9443 -0.6244 -0.7245
19210TIP3    H279046   0.236   5.910   1.930  0.0160  0.1807 -0.0649
19211TIP3   OH279047   2.090   0.133   4.311 -0.2938 -0.2133 -0.0760
19211TIP3    H179048   2.144   0.119   4.388  1.1850  1.4318 -0.7660
19211TIP3    H279049   2.059   0.223   4.320 -0.5342 -0.1810 -1.1219
19212TIP3   OH279050   2.565   6.501  17.114 -0.3517  0.4212 -0.7167
19212TIP3    H179051   2.622   6.428  17.135  1.6734  1.9641 -0.7597
19212TIP3    H279052   2.513   6.470  17.039  0.0844 -1.1597 -0.3716
19213TIP3   OH279053   6.512   0.947  16.405  0.4742  0.7430 -0.4496
19213TIP3    H179054   6.559   1.030  16.399  1.0044  0.6166  1.6279
19213TIP3    H279055   6.581   0.882  16.420 -0.3179  0.4907  2.1880
19214TIP3   OH279056   1.031   4.923   4.632  0.1415  0.3250 -0.7709
19214TIP3    H179057   1.108   4.963   4.592  2.0192 -1.0594  1.3266
19214TIP3    H279058   1.021   4.839   4.586  2.0235 -1.0587  1.2382
19215TIP3   OH279059   6.192   2.451  14.538  0.4997  0.1651 -0.3270
19215TIP3    H179060   6.191   2.545  14.559 -0.3177  0.3305 -1.0671
19215TIP3    H279061   6.237   2.411  14.612 -1.3652  0.8684  1.2469
19216TIP3   OH279062   2.166   1.364   5.142 -0.2727 -0.7271  0.0669
19216TIP3    H179063   2.181   1.270   5.139  2.9678 -0.2678  0.6132
19216TIP3    H279064   2.144   1.382   5.233 -1.4437 -0.9889 -0.1474
19217TIP3   OH279065   4.198   5.711  12.575 -0.6656 -0.1752  0.0895
19217TIP3    H179066   4.199   5.731  12.481  1.7581  0.1196  0.1485
19217TIP3    H279067   4.196   5.797  12.617  2.2357 -0.1659  0.2991
19218TIP3   OH279068   2.547   1.937  15.812  0.1123 -0.4383  0.4414
19218TIP3    H179069   2.629   1.973  15.779 -0.7731  0.8438 -0.4168
19218TIP3    H279070   2.567   1.846  15.834  1.7956 -0.0855  0.4152
19219TIP3   OH279071   1.964   2.053   2.009 -0.0646  0.3128 -0.0336
19219TIP3    H179072   1.998   2.060   1.919 -1.2040 -2.6649 -0.7583
19219TIP3    H279073   2.042   2.034   2.062  0.7322  2.8248 -0.2230
19220TIP3   OH279074   1.757   2.948  10.714  0.3361  0.4648 -0.2420
19220TIP3    H179075   1.808   2.880  10.760  0.0657 -0.8805 -1.9163
19220TIP3    H279076   1.822   2.993  10.660 -0.3452 -1.8943 -3.1416
19221TIP3   OH279077   6.466   2.085   3.962 -0.3672  0.4815  0.7399
19221TIP3    H179078   6.540   2.109   4.017  2.3051 -1.5258 -1.7989
19221TIP3    H279079   6.471   2.144   3.887 -2.5310  1.6008  1.4198
19222TIP3   OH279080   2.669   1.283  14.482  0.6279  0.6138  0.2138
19222TIP3    H179081   2.690   1.231  14.405  0.5500  0.2900  0.4096
19222TIP3    H279082   2.748   1.278  14.536  0.2432 -0.1799  0.7159
19223TIP3   OH279083   1.921   5.272   1.620 -0.3328 -0.2887  0.5212
19223TIP3    H179084   1.960   5.356   1.594 -2.4992  0.6940  0.3829
19223TIP3    H279085   1.961   5.253   1.704  1.0926  0.2690 -0.0069
19224TIP3   OH279086   0.235   4.324   3.509  0.7520 -0.3332 -0.2801
19224TIP3    H179087   0.285   4.389   3.558  0.0961 -1.3866  1.8311
19224TIP3    H279088   0.146   4.330   3.542  0.1490 -0.6435 -1.7915
19225TIP3   OH279089   2.481   3.484  11.026  0.4868 -0.2753 -1.2226
19225TIP3    H179090   2.556   3.542  11.020  0.4966  0.0987  1.5947
19225TIP3    H279091   2.407   3.537  10.996  0.5802  1.0801  0.8249
19226TIP3   OH279092   4.316   2.411  11.308  0.2289  0.1031  0.5396
19226TIP3    H179093   4.262   2.332  11.317 -1.6180  1.1234 -1.1749
19226TIP3    H279094   4.299   2.461  11.388 -1.0646  0.2001  0.2266
19227TIP3   OH279095   3.721   4.087  12.106  0.0577 -0.3880 -0.1583
19227TIP3    H179096   3.727   4.016  12.042  0.3674 -0.7415  0.2543
19227TIP3    H279097   3.782   4.061  12.176  0.1014  0.2376  0.0375
19228TIP3   OH279098   4.348   2.478   4.576  0.1510 -0.5450 -0.3504
19228TIP3    H179099   4.327   2.409   4.638  0.0597 -1.3039 -1.2303
19228TIP3    H279100   4.443   2.474   4.567  0.3972  0.8676  1.2495
19229TIP3   OH279101   6.029   6.430   5.869  0.5796 -0.6858  0.0704
19229TIP3    H179102   6.088   6.375   5.920 -0.3425 -2.1687 -0.4315
19229TIP3    H279103   5.987   6.371   5.807 -0.4704  0.5664 -0.4636
19230TIP3   OH279104   4.635   4.427   2.779 -0.1988 -0.1962  0.4080
19230TIP3    H179105   4.630   4.446   2.686 -0.3347 -0.8558  0.2772
19230TIP3    H279106   4.621   4.332   2.785  0.5700 -0.2805  1.0290
19231TIP3   OH279107   1.045   5.429   4.742  0.1967  0.4126 -0.1700
19231TIP3    H179108   1.029   5.511   4.695  2.9747  2.1096  1.7588
19231TIP3    H279109   0.981   5.428   4.813  0.0502  0.8288 -0.2986
19232TIP3   OH279110   6.755   5.109  10.410  0.3907  0.0049  0.2876
19232TIP3    H179111   6.756   5.040  10.476  1.5211 -0.3178 -0.0499
19232TIP3    H279112   6.667   5.145  10.414 -0.1736 -1.3617  0.5764
19233TIP3   OH279113   0.725   1.655  12.763  0.1811 -0.3466  0.3143
19233TIP3    H179114   0.675   1.574  12.773 -0.1149 -0.0272  1.3776
19233TIP3    H279115   0.659   1.723  12.749  0.4641 -0.4125 -1.5065
19234TIP3   OH279116   5.291   0.845   4.478 -0.1009 -0.3030  0.1337
19234TIP3    H179117   5.205   0.887   4.472 -0.3407 -0.6715  1.0307
19234TIP3    H279118   5.273   0.752   4.477  0.2966 -0.3822  0.2312
19235TIP3   OH279119   3.862   0.144   1.373  0.2707  0.1135 -0.5454
19235TIP3    H179120   3.912   0.066   1.397  0.8783  0.7489  0.2333
19235TIP3    H279121   3.927   0.211   1.356 -0.3018  0.9576  0.5136
19236TIP3   OH279122   4.277   3.824  12.691  0.1988 -0.2420  0.3092
19236TIP3    H179123   4.322   3.860  12.767 -0.1410 -0.0300  0.4071
19236TIP3    H279124   4.330   3.747  12.666  1.5908  0.9826 -0.6176
19237TIP3   OH279125   3.843   2.679   0.816 -0.2265 -0.1573 -0.0814
19237TIP3    H179126   3.827   2.771   0.840  1.6048  0.2195 -0.2710
19237TIP3    H279127   3.894   2.683   0.736  0.1670 -1.3510  0.0998
19238TIP3   OH279128   4.762   5.335  16.088 -0.1199 -0.7421 -0.0845
19238TIP3    H179129   4.816   5.401  16.131 -0.4471  0.6099 -1.7209
19238TIP3    H279130   4.818   5.296  16.021  0.0048 -2.0146  0.7231
19239TIP3   OH279131   0.373   0.708  13.227 -0.3704  0.0146 -0.3734
19239TIP3    H179132   0.290   0.723  13.273  0.1185 -0.6761  0.7433
19239TIP3    H279133   0.423   0.651  13.285 -0.1244 -1.6725 -2.2115
19240TIP3   OH279134   0.994   3.177  14.584 -0.1925 -0.6067  0.2320
19240TIP3    H179135   1.062   3.133  14.636  1.5671  0.1541 -1.3381
19240TIP3    H279136   1.003   3.270  14.607 -0.2600 -0.4305 -0.4364
19241TIP3   OH279137   3.378   0.100   3.805 -0.8695  0.8175  0.2288
19241TIP3    H179138   3.359   0.153   3.727  0.8072  0.9315 -0.1243
19241TIP3    H279139   3.337   0.015   3.786  0.1639  0.5889 -1.1501
19242TIP3   OH279140   1.649   2.444   5.259  0.4635  0.1164 -0.2069
19242TIP3    H179141   1.713   2.375   5.272  0.6927  0.2785 -0.4656
19242TIP3    H279142   1.696   2.511   5.208 -0.1080 -0.0500 -0.9507
19243TIP3   OH279143   5.729   3.294  15.917  0.7672 -0.3779  0.0844
19243TIP3    H179144   5.765   3.234  15.982  2.0348  1.0157  0.7008
19243TIP3    H279145   5.674   3.354  15.967 -0.4378 -0.9694 -0.5163
19244TIP3   OH279146   6.667   3.846   4.591  0.1518 -0.1133  0.3360
19244TIP3    H179147   6.689   3.938   4.585 -2.6626  0.5103 -1.4843
19244TIP3    H279148   6.633   3.835   4.680 -1.0613  0.9979  0.0260
19245TIP3   OH279149   2.469   0.808   2.919  0.3704  0.5369  0.0978
19245TIP3    H179150   2.445   0.852   3.001  0.1369  0.1073  0.2604
19245TIP3    H279151   2.470   0.715   2.941 -1.0802  0.3048 -0.7158
19246TIP3   OH279152   4.465   0.184  15.186  0.0447 -0.1207 -0.7914
19246TIP3    H179153   4.518   0.173  15.265  0.7290  2.2456 -0.8659
19246TIP3    H279154   4.383   0.139  15.206  0.7172 -0.6966  0.7596
19247TIP3   OH279155   2.119   5.601  14.713 -0.2188  0.0835 -0.0160
19247TIP3    H179156   2.125   5.580  14.620  0.9766 -0.4254  0.1605
19247TIP3    H279157   2.025   5.605  14.732 -0.4928  2.1831 -1.6865
19248TIP3   OH279158   4.757   6.352   3.902  0.3869  0.2796 -0.0814
19248TIP3    H179159   4.736   6.269   3.861  1.5499 -0.7749  1.3928
19248TIP3    H279160   4.722   6.419   3.843 -0.7410 -1.2585 -1.1627
19249TIP3   OH279161   4.061   1.861  13.663  0.8514 -0.3289  0.0567
19249TIP3    H179162   4.135   1.886  13.718  2.2826 -1.5250 -1.2514
19249TIP3    H279163   4.068   1.766  13.655 -0.8391 -0.4575 -0.0902
19250TIP3   OH279164   0.227   4.002   0.164  0.1156 -0.7913 -0.3274
19250TIP3    H179165   0.215   3.999   0.259  1.3052 -0.5901 -0.1628
19250TIP3    H279166   0.321   4.009   0.152 -0.1977  3.5891 -1.3847
19251TIP3   OH279167   5.682   4.041  15.574  0.6610  0.1260 -0.1827
19251TIP3    H179168   5.708   3.949  15.573 -0.4247 -0.1784 -2.0273
19251TIP3    H279169   5.698   4.069  15.664  0.1887 -2.1103  0.6357
19252TIP3   OH279170   5.798   6.747  15.009  0.1596 -0.2090 -0.2466
19252TIP3    H179171   5.840   6.832  14.992 -0.6423  0.2425  0.0021
19252TIP3    H279172   5.711   6.755  14.970  0.8432 -1.7077 -2.1348
19253TIP3   OH279173   1.136   2.621   6.657 -0.6374 -0.0292  0.6110
19253TIP3    H179174   1.048   2.646   6.684 -0.2446  2.4298 -0.2676
19253TIP3    H279175   1.126   2.591   6.567 -0.2474  2.5684 -0.3344
19254TIP3   OH279176   6.419   5.328  11.248  0.0540 -0.5915  0.2937
19254TIP3    H179177   6.423   5.233  11.252  2.5004 -0.4749  1.8966
19254TIP3    H279178   6.439   5.350  11.157  0.7812 -1.5655  0.2192
19255TIP3   OH279179   0.521   0.584  16.473  0.2106 -0.5083 -0.1014
19255TIP3    H179180   0.513   0.679  16.464  0.6290 -0.2195  2.1563
19255TIP3    H279181   0.607   0.571  16.514  1.5891 -2.0936 -3.2759
19256TIP3   OH279182   6.650   4.495   0.609  0.1787  0.0651 -0.0486
19256TIP3    H179183   6.611   4.528   0.528  0.3180 -0.9543 -0.5272
19256TIP3    H279184   6.581   4.443   0.650 -0.0851  1.0427  0.7814
19257TIP3   OH279185   0.471   0.061   0.980 -0.0297  0.1523 -0.2645
19257TIP3    H179186   0.471   0.063   0.884  1.1393 -0.0654 -0.2787
19257TIP3    H279187   0.411  -0.010   1.002  0.9876 -0.9307 -0.8901
19258TIP3   OH279188   0.925   0.727  12.130 -0.3195  0.0501 -0.1194
19258TIP3    H179189   0.952   0.636  12.113 -1.3396  0.1749 -2.5719
19258TIP3    H279190   0.833   0.730  12.104 -0.6278  1.4952  1.1020
19259TIP3   OH279191   3.775   5.088   5.217  0.1573  0.0890 -0.0679
19259TIP3    H179192   3.862   5.100   5.179 -0.5352  1.0090 -1.3904
19259TIP3    H279193   3.780   5.003   5.261  1.3776 -0.3892 -1.1000
19260TIP3   OH279194   0.041   6.196   4.087  0.2542  0.2649 -0.5685
19260TIP3    H179195   0.071   6.107   4.105  0.8275  0.8456  1.5229
19260TIP3    H279196  -0.007   6.190   4.004  0.2256 -1.9915 -0.3990
19261TIP3   OH279197   2.117   0.434  16.504  0.2325 -0.1151 -0.0244
19261TIP3    H179198   2.093   0.347  16.534 -0.9940 -0.1404 -1.0253
19261TIP3    H279199   2.213   0.433  16.501  0.3625 -0.3898  2.9412
19262TIP3   OH279200   6.367   5.547   5.380 -0.1463 -0.4796  0.0240
19262TIP3    H179201   6.272   5.535   5.377  0.1192 -2.4090 -1.3548
19262TIP3    H279202   6.378   5.642   5.381 -2.0511 -0.1627 -2.3587
19263TIP3   OH279203   0.801   3.834  17.239 -0.1333 -0.3951 -0.5648
19263TIP3    H179204   0.855   3.880  17.175 -1.3777 -1.0997 -2.1214
19263TIP3    H279205   0.768   3.904  17.296  1.7003  0.1333 -0.0895
19264TIP3   OH279206   4.233   4.751  11.891 -0.4365 -0.0094 -0.6540
19264TIP3    H179207   4.314   4.724  11.848 -0.6927 -1.1518 -0.4575
19264TIP3    H279208   4.244   4.844  11.907  1.0144 -0.2293 -0.2731
19265TIP3   OH279209   3.246   3.848  11.582 -0.0006 -0.5848 -0.3742
19265TIP3    H179210   3.207   3.907  11.518 -1.0559 -0.8123  0.0468
19265TIP3    H279211   3.322   3.896  11.615 -1.6035  1.1438  0.9479
19266TIP3   OH279212   1.742   2.983  15.130 -0.5650  0.0394 -0.6716
19266TIP3    H179213   1.646   2.989  15.129 -0.6056 -0.5957 -2.2022
19266TIP3    H279214   1.771   3.057  15.076 -0.2471 -0.5736 -1.3460
19267TIP3   OH279215   4.664   1.642   1.452 -0.1146 -0.0864  0.0826
19267TIP3    H179216   4.638   1.602   1.535 -0.7737 -0.5384 -0.3364
19267TIP3    H279217   4.582   1.680   1.418  0.2050  0.3133 -0.2416
19268TIP3   OH279218   6.563   5.662   6.324 -0.9534 -0.2669  0.1104
19268TIP3    H179219   6.482   5.611   6.322 -0.2983 -1.3333 -0.0594
19268TIP3    H279220   6.541   5.742   6.371 -2.4312  0.0379 -1.0785
19269TIP3   OH279221   5.330   0.810  15.448  0.1506 -0.2104  0.0912
19269TIP3    H179222   5.384   0.815  15.370  0.5241  0.4707  0.3900
19269TIP3    H279223   5.297   0.720  15.449  1.6817 -0.7887  0.1868
19270TIP3   OH279224   0.442   1.981  13.650 -0.1919 -0.2570 -0.0195
19270TIP3    H179225   0.427   2.047  13.582  1.0486  0.8089  0.7031
19270TIP3    H279226   0.369   1.921  13.642 -0.2601  0.0554 -2.0614
19271TIP3   OH279227   4.187   1.946   6.035  0.8277  0.4395  0.0243
19271TIP3    H179228   4.271   1.903   6.048  0.4047 -0.3747  0.1217
19271TIP3    H279229   4.136   1.923   6.113  0.0849 -0.1287 -0.6082
19272TIP3   OH279230   1.780   5.048  13.700  0.2055  0.6382  0.5175
19272TIP3    H179231   1.836   5.083  13.632 -0.8950  1.3780 -0.0308
19272TIP3    H279232   1.694   5.041  13.659  0.0513 -1.2061  1.0965
19273TIP3   OH279233   2.667   5.990  16.556  0.2725 -0.2327 -0.2301
19273TIP3    H179234   2.613   6.052  16.506  1.7797  1.2260 -0.0851
19273TIP3    H279235   2.709   5.936  16.489 -0.6419 -0.7894 -0.3708
19274TIP3   OH279236   2.908   4.560   6.655 -1.0711 -0.3053  0.6319
19274TIP3    H179237   2.849   4.505   6.603 -1.0634 -0.4174  0.7394
19274TIP3    H279238   2.995   4.532   6.629 -1.0703 -1.0560  1.4309
19275TIP3   OH279239   3.259   0.595  11.117  0.3224 -0.1516 -0.6092
19275TIP3    H179240   3.216   0.663  11.066  0.6532  0.3483 -0.2304
19275TIP3    H279241   3.249   0.516  11.065  0.0929  0.2235 -1.1418
19276TIP3   OH279242   2.976   1.642   5.861  0.1943  0.8941 -0.4615
19276TIP3    H179243   3.036   1.694   5.915  0.2671 -0.1086  0.4577
19276TIP3    H279244   2.902   1.700   5.845  0.1334  1.1884  0.8149
19277TIP3   OH279245   3.374   0.479   3.228  0.1202 -0.4471 -0.1590
19277TIP3    H179246   3.456   0.435   3.245  0.1309 -0.1665  0.5108
19277TIP3    H279247   3.385   0.566   3.265 -0.0931 -0.0512 -1.0058
19278TIP3   OH279248   0.296   3.647  16.683  0.2620  0.1465  0.2395
19278TIP3    H179249   0.331   3.558  16.675 -0.8799 -0.3297  0.5586
19278TIP3    H279250   0.320   3.674  16.772  1.0615  0.3579 -0.0353
19279TIP3   OH279251   2.608   2.505   5.724  0.7539 -0.3648  0.5185
19279TIP3    H179252   2.630   2.449   5.650 -0.0898  1.9775 -1.5816
19279TIP3    H279253   2.560   2.578   5.685 -0.9650  0.2131  3.5684
19280TIP3   OH279254   2.424   0.564   4.367 -0.2863 -0.1347  0.6076
19280TIP3    H179255   2.437   0.500   4.436 -0.0128  0.3145  0.9772
19280TIP3    H279256   2.353   0.529   4.314 -0.1701 -0.7153  0.8363
19281TIP3   OH279257   6.403   4.175  13.300  0.8619  0.0527 -0.2771
19281TIP3    H179258   6.335   4.201  13.362 -0.7275 -1.4037 -1.3672
19281TIP3    H279259   6.417   4.253  13.246  1.1171  0.8277  0.8969
19282TIP3   OH279260   2.541   5.300   2.327  0.1077 -0.7349  0.2402
19282TIP3    H179261   2.628   5.265   2.306  0.3742 -0.5421  1.0341
19282TIP3    H279262   2.553   5.395   2.323 -0.7821 -0.6966 -2.6334
19283TIP3   OH279263   6.368   1.141   4.304 -0.1297  0.2763 -0.8286
19283TIP3    H179264   6.361   1.130   4.399  0.1126  0.2385 -0.8120
19283TIP3    H279265   6.288   1.103   4.269  0.6618 -1.5353 -0.7685
19284TIP3   OH279266   6.058   5.302  11.156  0.4541 -0.2941 -0.0970
19284TIP3    H179267   5.996   5.330  11.224  0.3816 -1.0228  0.1395
19284TIP3    H279268   6.109   5.380  11.137 -0.3601  0.2439 -0.0993
19285TIP3   OH279269   3.437   4.243   5.596 -0.3528  0.4363 -0.4310
19285TIP3    H179270   3.462   4.324   5.640 -1.0157 -0.1582  1.0794
19285TIP3    H279271   3.454   4.260   5.503 -1.0305  2.5134 -0.2119
19286TIP3   OH279272   1.414   2.137   2.787  0.1947 -0.1348 -0.9768
19286TIP3    H179273   1.454   2.081   2.721  1.7725 -1.0658  0.7271
19286TIP3    H279274   1.321   2.114   2.786  0.3242 -0.5952 -2.4174
19287TIP3   OH279275   5.407   5.833   2.238  0.1539 -0.4578 -0.7656
19287TIP3    H179276   5.359   5.787   2.307  0.2392 -0.6832 -0.8588
19287TIP3    H279277   5.391   5.926   2.256 -0.0778 -0.5257 -0.6236
19288TIP3   OH279278   2.544   1.056  12.240 -0.1426 -0.5348 -0.0346
19288TIP3    H179279   2.599   1.129  12.210 -0.2018  0.4161  2.0905
19288TIP3    H279280   2.549   1.060  12.335  0.0516 -3.4845  0.1169
19289TIP3   OH279281   3.014   1.093  13.715 -0.1491  0.1084  0.7991
19289TIP3    H179282   3.069   1.015  13.704 -0.2948  0.2381 -1.1140
19289TIP3    H279283   2.930   1.058  13.744 -0.2422 -0.4722 -0.1287
19290TIP3   OH279284   3.450   4.891   0.007 -0.0655 -0.2817  0.0753
19290TIP3    H179285   3.519   4.896  -0.059  0.6477 -0.3218  0.8121
19290TIP3    H279286   3.393   4.965  -0.011  0.4985  0.0913 -0.1722
19291TIP3   OH279287   1.806   0.595  14.703  0.2973  0.8177 -0.4664
19291TIP3    H179288   1.807   0.641  14.786 -0.6079 -1.2215  0.7263
19291TIP3    H279289   1.773   0.508  14.724 -1.1404  0.6404 -3.1655
19292TIP3   OH279290   2.831   2.076   0.315 -0.7048 -0.1715  0.2225
19292TIP3    H179291   2.782   2.135   0.259  0.6646  1.0907  0.3280
19292TIP3    H279292   2.767   2.009   0.341 -2.2563  1.1956  0.0293
19293TIP3   OH279293   1.141   0.117   2.808  0.2608 -0.4678 -0.5910
19293TIP3    H179294   1.141   0.211   2.788 -1.6530  0.3087  2.6548
19293TIP3    H279295   1.099   0.077   2.732 -0.2475  1.4874 -1.3928
19294TIP3   OH279296   4.921   3.329   4.469 -0.0243 -0.0489  0.7782
19294TIP3    H179297   4.842   3.324   4.522 -0.3649  0.3988  0.3170
19294TIP3    H279298   4.910   3.262   4.402  0.3696 -0.5622  1.2313
19295TIP3   OH279299   6.099   3.585  13.250 -0.1865  0.4790  0.0236
19295TIP3    H179300   6.188   3.617  13.264 -0.2233  0.8135 -0.5074
19295TIP3    H279301   6.079   3.535  13.329  0.5351  0.2562  0.0741
19296TIP3   OH279302   2.383   6.437   2.219  0.1287 -0.1867  0.2526
19296TIP3    H179303   2.427   6.421   2.303  1.5200  0.5143 -0.3236
19296TIP3    H279304   2.289   6.432   2.240  0.4726 -1.1914  1.6047
19297TIP3   OH279305   5.265   6.050  11.989 -0.0841  0.4510  0.0868
19297TIP3    H179306   5.221   6.021  12.069  1.0236 -0.0660  0.5153
19297TIP3    H279307   5.219   6.003  11.919 -0.8530  0.6649  0.4479
19298TIP3   OH279308   0.815   1.603   3.024  0.6101 -0.1514  1.0076
19298TIP3    H179309   0.905   1.599   2.993  0.8343 -0.8416  1.7397
19298TIP3    H279310   0.813   1.681   3.080  0.6280  0.1444  0.5955
19299TIP3   OH279311   5.387   4.696   1.353 -0.0595 -0.3446 -0.0664
19299TIP3    H179312   5.291   4.695   1.353 -0.1212 -2.3631  3.1787
19299TIP3    H279313   5.410   4.759   1.421  0.8882 -0.6636 -0.0875
19300TIP3   OH279314   2.933   6.643   3.509  0.2791 -0.3570 -0.0219
19300TIP3    H179315   2.938   6.725   3.460  1.8397  0.1172  0.8816
19300TIP3    H279316   3.023   6.610   3.510 -0.0272 -1.1928  1.0970
19301TIP3   OH279317   5.592   5.979  10.694 -0.1595  0.3260  0.3430
19301TIP3    H179318   5.683   5.963  10.668 -0.2742 -1.1867  0.8342
19301TIP3    H279319   5.580   6.074  10.683  0.8735  0.2536 -1.6202
19302TIP3   OH279320   0.524   5.027  14.767 -0.3175 -0.3567  0.3083
19302TIP3    H179321   0.521   5.064  14.679  2.0064  0.0339  0.3527
19302TIP3    H279322   0.470   5.085  14.820  0.9218  1.3230 -0.2144
19303TIP3   OH279323   0.935   4.021   5.121 -0.0929  0.1012  0.0544
19303TIP3    H179324   1.000   4.001   5.188 -1.2817  0.0298  1.2088
19303TIP3    H279325   0.914   4.113   5.135 -0.7244 -0.0519  0.1083
19304TIP3   OH279326   0.349   1.384  14.557  0.9128 -0.4379 -0.1940
19304TIP3    H179327   0.283   1.336  14.607  1.9788 -1.0632  0.6115
19304TIP3    H279328   0.408   1.421  14.622  1.2185  0.3459 -0.9001
19305TIP3   OH279329   1.509   2.112   1.120 -0.0090  0.2022  0.3155
19305TIP3    H179330   1.449   2.058   1.172 -1.6978  0.9696 -0.7944
19305TIP3    H279331   1.517   2.065   1.037  0.7805  0.2141  0.3785
19306TIP3   OH279332   2.605   5.301   4.553 -0.0400  0.2437  0.4078
19306TIP3    H179333   2.589   5.208   4.536  0.9103  0.4745 -2.0622
19306TIP3    H279334   2.678   5.323   4.495 -0.8917  2.7592  0.2342
19307TIP3   OH279335   0.556   3.690   0.134 -0.2878 -0.1471  0.1400
19307TIP3    H179336   0.558   3.783   0.155  0.3185  0.0055 -0.5952
19307TIP3    H279337   0.648   3.663   0.134 -0.2615 -0.1453 -2.3104
19308TIP3   OH279338   3.933   2.554   0.019  0.0696 -0.1138  0.4139
19308TIP3    H179339   3.939   2.627  -0.042 -0.8091 -1.0976 -0.8687
19308TIP3    H279340   3.840   2.533   0.022  0.1452 -0.2919  1.8343
19309TIP3   OH279341   5.070   2.012  15.584 -0.2358 -0.2217  0.0261
19309TIP3    H179342   5.002   2.003  15.517  1.5381  0.3550 -1.9336
19309TIP3    H279343   5.053   2.098  15.623  0.1111  0.4829 -1.3388
19310TIP3   OH279344   6.305   4.861   1.999 -0.2867  0.2624 -0.6276
19310TIP3    H179345   6.362   4.869   1.923  1.9273  0.4563  0.9936
19310TIP3    H279346   6.352   4.906   2.069 -1.9779 -0.4533  1.0174
19311TIP3   OH279347   3.820   1.645   3.452  0.1090  0.0455  0.2841
19311TIP3    H179348   3.799   1.563   3.498  1.8394 -0.1931  0.6871
19311TIP3    H279349   3.761   1.645   3.377 -1.3089 -0.5869  1.3564
19312TIP3   OH279350   4.968   4.545   1.660  0.2915 -0.4489  0.5711
19312TIP3    H179351   5.042   4.512   1.710 -1.1259 -2.1673  1.5875
19312TIP3    H279352   4.893   4.536   1.718 -0.7200  1.3793 -0.3950
19313TIP3   OH279353   1.083   4.735   4.998 -0.0115  0.0190  0.3173
19313TIP3    H179354   1.157   4.764   4.944  0.4035 -0.5934  0.5548
19313TIP3    H279355   1.097   4.641   5.010 -1.8424 -0.4673 -1.1892
19314TIP3   OH279356   5.827   4.291  12.555 -0.1071  0.8933  0.6145
19314TIP3    H179357   5.868   4.243  12.483 -0.7738  0.8500  0.2593
19314TIP3    H279358   5.756   4.340  12.514 -0.4157  0.9639  1.2295
19315TIP3   OH279359   1.204   0.048   3.498  0.1105 -0.4753 -0.4078
19315TIP3    H179360   1.176  -0.021   3.559 -1.4577 -0.4095 -1.0286
19315TIP3    H279361   1.246   0.113   3.554 -0.2534 -0.9720  0.4612
19316TIP3   OH279362   4.990   3.350   3.848 -0.7302 -0.4255  0.1498
19316TIP3    H179363   4.975   3.350   3.943 -0.7655  0.4215  0.1464
19316TIP3    H279364   5.080   3.319   3.838 -0.7503 -0.5901  0.4565
19317TIP3   OH279365   5.898   0.687   5.199  0.2014  0.1687 -0.0509
19317TIP3    H179366   5.923   0.688   5.107  0.7034 -1.3461  0.0543
19317TIP3    H279367   5.975   0.651   5.244 -0.0201  0.9464  0.9680
19318TIP3   OH279368   2.617   0.744  12.823  0.5858 -0.0578  0.1548
19318TIP3    H179369   2.606   0.828  12.778  2.3849  0.9555  1.5662
19318TIP3    H279370   2.671   0.692  12.763  0.8129  0.3713 -0.0171
19319TIP3   OH279371   3.297   1.156  13.412  0.0033  1.1050  0.2768
19319TIP3    H179372   3.256   1.077  13.379  0.8014  0.3872  0.9683
19319TIP3    H279373   3.377   1.165  13.360  0.5124  0.7961  1.0033
19320TIP3   OH279374   2.674   6.689  12.991  0.3986 -0.2778 -0.9998
19320TIP3    H179375   2.652   6.604  13.030  1.9097 -0.6173 -0.8458
19320TIP3    H279376   2.709   6.668  12.905 -0.9434  0.3284 -1.6998
19321TIP3   OH279377   0.474   2.548   4.264 -0.7156 -0.0122 -0.1561
19321TIP3    H179378   0.525   2.535   4.184 -1.3997  0.1055 -0.6184
19321TIP3    H279379   0.434   2.634   4.253 -0.7821  0.0223  0.3365
19322TIP3   OH279380   2.240   2.878   2.931  0.3285  0.1117 -0.7448
19322TIP3    H179381   2.267   2.949   2.989  0.0749  0.0120 -0.5045
19322TIP3    H279382   2.244   2.916   2.843  2.0783 -0.1462 -0.8041
19323TIP3   OH279383   6.276   5.442  11.875  0.0133 -0.0482 -0.2509
19323TIP3    H179384   6.336   5.393  11.930 -0.3903 -0.7408 -0.4289
19323TIP3    H279385   6.247   5.380  11.809 -3.4328 -0.6878  1.7443
19324TIP3   OH279386   3.743   6.734  15.617 -0.1386  0.3993 -0.1107
19324TIP3    H179387   3.659   6.758  15.577 -0.2075  1.0143  0.3927
19324TIP3    H279388   3.780   6.670  15.557  0.2104  2.0492 -1.6967
19325TIP3   OH279389   1.296   3.956   1.523  0.6178 -0.8012  0.0169
19325TIP3    H179390   1.382   3.922   1.499  1.0801 -0.7606  1.5496
19325TIP3    H279391   1.310   4.048   1.543  0.1136 -0.6589 -0.2646
19326TIP3   OH279392   2.268   2.924  16.064  0.6039 -0.2978 -0.3717
19326TIP3    H179393   2.330   2.856  16.037 -0.0968 -0.8721 -0.5428
19326TIP3    H279394   2.295   3.001  16.014 -0.4742 -1.2659 -2.5301
19327TIP3   OH279395   3.258   4.624  13.366  0.7101 -0.4119  0.0662
19327TIP3    H179396   3.206   4.656  13.439  0.8849  1.3044 -0.5226
19327TIP3    H279397   3.345   4.661  13.381  0.6497  0.2613 -1.1874
19328TIP3   OH279398   4.885   5.789  16.893 -0.2242  0.5362  0.0919
19328TIP3    H179399   4.817   5.738  16.850  0.9358 -0.8874 -0.0960
19328TIP3    H279400   4.920   5.730  16.960  2.4127  0.3741 -1.3542
19329TIP3   OH279401   1.587   4.085   3.339 -0.7556  0.5162  0.1508
19329TIP3    H179402   1.511   4.036   3.370 -0.1184 -0.9985 -0.6497
19329TIP3    H279403   1.574   4.092   3.245  0.0181  0.3961  0.0344
19330TIP3   OH279404   6.584   0.059   2.164  0.1520 -0.2826 -0.2410
19330TIP3    H179405   6.671   0.089   2.192  0.2623 -1.8184  1.1315
19330TIP3    H279406   6.596  -0.033   2.144 -1.1455 -0.4609 -0.1938
19331TIP3   OH279407   1.045   4.222  14.327 -0.5695 -0.2756  0.3605
19331TIP3    H179408   1.038   4.148  14.267 -0.4109 -1.4179  1.7144
19331TIP3    H279409   1.137   4.247  14.323  0.1066 -2.3034  2.3668
19332TIP3   OH279410   1.700   3.115  15.740  0.3366  0.4152 -0.3521
19332TIP3    H179411   1.723   3.208  15.742 -0.2611  0.5589  0.1199
19332TIP3    H279412   1.654   3.103  15.657 -1.9735  1.1401  0.7652
19333TIP3   OH279413   5.101   1.269  16.062  0.5893 -0.2997  0.1339
19333TIP3    H179414   5.179   1.240  16.110 -0.3035 -0.7067  1.3685
19333TIP3    H279415   5.105   1.221  15.979  1.8230 -0.0574  0.0370
19334TIP3   OH279416   3.084   2.840   2.006 -0.0282  0.5094 -0.5948
19334TIP3    H179417   3.133   2.867   2.083  0.1898 -1.1030 -0.1592
19334TIP3    H279418   3.147   2.845   1.934  0.5980 -0.9173 -0.1496
19335TIP3   OH279419   0.476   0.082   4.768 -0.4037  0.2444 -0.2867
19335TIP3    H179420   0.518   0.012   4.818 -2.7398 -0.4334  0.8293
19335TIP3    H279421   0.459   0.151   4.832 -3.7508 -0.7801  0.0467
19336TIP3   OH279422   1.155   0.016  13.688  0.0656  0.4004 -0.1074
19336TIP3    H179423   1.152   0.063  13.771  0.9471  0.4861 -0.1155
19336TIP3    H279424   1.136   0.083  13.622 -0.8709  0.2828  0.0335
19337TIP3   OH279425   0.416   6.671   5.438 -0.2172  0.1869 -0.1252
19337TIP3    H179426   0.482   6.699   5.501 -0.3966  0.1642  0.0736
19337TIP3    H279427   0.373   6.751   5.410  0.9670  0.3677 -1.4593
19338TIP3   OH279428   5.490   5.220  16.719 -0.2359 -0.1493  0.3971
19338TIP3    H179429   5.411   5.198  16.768 -0.3648  0.4854  0.4743
19338TIP3    H279430   5.489   5.161  16.644 -1.5319  0.8605 -0.3833
19339TIP3   OH279431   2.263   2.462   0.634  0.1112 -0.3867  0.1714
19339TIP3    H179432   2.179   2.416   0.641  0.5631 -1.0725  1.2082
19339TIP3    H279433   2.239   2.552   0.614 -0.8233 -0.8712 -0.9599
19340TIP3   OH279434   1.101   4.081   1.885  0.0577 -0.9410  0.1030
19340TIP3    H179435   1.137   3.992   1.882 -0.7744 -1.2744 -0.4836
19340TIP3    H279436   1.175   4.138   1.866  0.3082 -1.6011 -0.9231
19341TIP3   OH279437   3.790   4.284   0.539 -0.0727 -0.3218  0.3609
19341TIP3    H179438   3.856   4.247   0.598  0.2013 -0.3636  0.0321
19341TIP3    H279439   3.734   4.210   0.517  0.3559 -0.5039 -0.1373
19342TIP3   OH279440   2.513   5.247  15.846  0.0833 -0.3395 -0.5447
19342TIP3    H179441   2.565   5.318  15.885  0.4029  1.4540 -4.0711
19342TIP3    H279442   2.422   5.273  15.860  0.2001  0.6553 -1.5987
19343TIP3   OH279443   6.173   6.172  10.606 -0.4794 -0.0504  0.2107
19343TIP3    H179444   6.192   6.207  10.519 -0.9982 -1.2315 -0.3794
19343TIP3    H279445   6.094   6.218  10.634  0.4391  1.3086  0.6318
19344TIP3   OH279446   1.037   5.790   1.609 -0.2792  0.3328 -0.1701
19344TIP3    H179447   1.049   5.885   1.617 -2.8730  0.8079 -1.2897
19344TIP3    H279448   1.046   5.772   1.515  0.3389 -0.5644  0.0511
19345TIP3   OH279449   0.535   3.231   2.215  0.2778  0.3420 -0.0770
19345TIP3    H179450   0.596   3.165   2.246  0.5465  1.0022  0.8090
19345TIP3    H279451   0.512   3.282   2.293 -1.9881 -0.3754 -0.2571
19346TIP3   OH279452   2.174   2.849   5.680 -0.3040  0.2067  0.2466
19346TIP3    H179453   2.121   2.777   5.646  0.6584 -0.2945 -0.2057
19346TIP3    H279454   2.155   2.850   5.774  0.8527 -1.6441  0.5297
19347TIP3   OH279455   3.747   1.413  14.564 -0.0014 -0.5309  0.0662
19347TIP3    H179456   3.732   1.457  14.481 -0.1477 -2.7492 -1.1390
19347TIP3    H279457   3.839   1.427  14.583 -0.6303  2.5249  1.0947
19348TIP3   OH279458   5.557   0.141   1.391 -1.4731  0.4386 -0.2645
19348TIP3    H179459   5.468   0.146   1.426 -1.2986 -0.8206  0.4005
19348TIP3    H279460   5.567   0.050   1.364  0.5876 -0.1447  2.3125
19349TIP3   OH279461   1.996   3.766  11.741  0.0442  0.5405 -0.3607
19349TIP3    H179462   1.917   3.723  11.709  0.0262 -0.6111  1.1370
19349TIP3    H279463   2.038   3.802  11.663 -1.2237 -0.0830 -1.3386
19350TIP3   OH279464   6.552   4.433  11.295  0.1552 -0.0102  0.1720
19350TIP3    H179465   6.484   4.377  11.332  2.1144 -1.2519  1.9679
19350TIP3    H279466   6.622   4.373  11.270  0.0416  1.0850 -3.0306
19351TIP3   OH279467   4.047   3.899   2.042 -0.0841 -0.1284  0.1532
19351TIP3    H179468   3.976   3.925   1.983 -0.3511  0.0926  0.5695
19351TIP3    H279469   4.013   3.822   2.088  0.8654 -1.4951 -1.3837
19352TIP3   OH279470   5.203   1.694   0.676  0.2340 -0.7551  0.6487
19352TIP3    H179471   5.293   1.662   0.682  0.2739 -0.6593  0.5670
19352TIP3    H279472   5.187   1.736   0.761  0.9418  0.9843 -0.0594
19353TIP3   OH279473   5.556   3.563   4.576 -0.1248  0.0339  0.0782
19353TIP3    H179474   5.635   3.509   4.576 -0.4792 -0.4934  0.3367
19353TIP3    H279475   5.586   3.650   4.602 -0.1016 -0.8658  3.2531
19354TIP3   OH279476   4.553   6.780  12.211 -0.4861  1.0095 -0.2585
19354TIP3    H179477   4.536   6.871  12.187 -0.1160  1.5818  1.5104
19354TIP3    H279478   4.649   6.771  12.205 -0.5575  0.6173 -0.8210
19355TIP3   OH279479   3.241   3.870   3.064  0.1686  0.4744 -0.0660
19355TIP3    H179480   3.204   3.942   3.013  0.4484  0.7749  0.1547
19355TIP3    H279481   3.241   3.903   3.154  0.4695  0.2688  0.0078
19356TIP3   OH279482   1.233   6.163  14.696  0.6057 -0.0194  0.9932
19356TIP3    H179483   1.230   6.071  14.671 -0.7872  0.6923 -1.6260
19356TIP3    H279484   1.142   6.186  14.715  1.0182  0.7014  2.1513
19357TIP3   OH279485   5.408   2.417  13.298  0.7111  0.0357 -0.2357
19357TIP3    H179486   5.463   2.495  13.309  1.1805 -0.1278 -1.4043
19357TIP3    H279487   5.387   2.390  13.387  2.1246  0.3854  0.2203
19358TIP3   OH279488   4.346   5.992  14.662  0.0709 -0.0372  0.4720
19358TIP3    H179489   4.429   5.967  14.701 -0.2622 -0.2676  1.0457
19358TIP3    H279490   4.305   5.909  14.637  0.4669  0.1264 -0.7758
19359TIP3   OH279491   1.442   0.975   5.538  0.5782  0.4550  0.3347
19359TIP3    H179492   1.374   0.942   5.596  0.4404 -1.1454 -0.7127
19359TIP3    H279493   1.523   0.938   5.573  0.5147 -0.3694 -0.3754
19360TIP3   OH279494   4.697   2.336  15.938  0.1559 -0.2133  0.1279
19360TIP3    H179495   4.621   2.391  15.918 -0.8625 -1.3099  0.9343
19360TIP3    H279496   4.660   2.250  15.959  1.7762 -1.3900 -1.6905
19361TIP3   OH279497   2.514   1.715   3.838 -0.4329 -0.4302 -0.3551
19361TIP3    H179498   2.606   1.690   3.849 -0.8206 -1.6131  0.2894
19361TIP3    H279499   2.516   1.786   3.774  1.0559  0.4589  0.6303
19362TIP3   OH279500   5.953   1.188   5.604 -0.2048 -0.1168  0.9099
19362TIP3    H179501   5.895   1.112   5.609 -1.1678  0.6086  0.8756
19362TIP3    H279502   6.041   1.151   5.596 -0.7716 -1.2276 -0.2303
19363TIP3   OH279503   1.349   4.149  15.791  0.4274 -0.0634 -0.0142
19363TIP3    H179504   1.368   4.061  15.759  1.7373  0.4797 -0.7968
19363TIP3    H279505   1.373   4.206  15.718 -0.2405  0.9514  0.5515
19364TIP3   OH279506   0.122   1.473   5.338 -0.3245  0.2007  0.3754
19364TIP3    H179507   0.156   1.401   5.392 -0.2626 -0.3773 -0.4332
19364TIP3    H279508   0.197   1.532   5.329 -0.2223  0.1079  0.5924
19365TIP3   OH279509   1.492   0.247  17.088  0.2686 -0.0274  0.1090
19365TIP3    H179510   1.583   0.255  17.118  0.0828 -0.7869  0.8871
19365TIP3    H279511   1.465   0.160  17.117 -1.2515  0.8373  1.3248
19366TIP3   OH279512   6.329   5.698  11.834  0.2797 -0.5700  0.5962
19366TIP3    H179513   6.290   5.613  11.854 -0.2701 -0.5535 -0.3995
19366TIP3    H279514   6.352   5.694  11.742  1.9744 -0.3050  0.9876
19367TIP3   OH279515   6.037   1.128   0.527 -0.0205 -0.1854  0.2594
19367TIP3    H179516   6.004   1.202   0.578 -2.4621 -0.2949 -1.0838
19367TIP3    H279517   6.022   1.153   0.436 -0.1827 -1.9927 -0.2419
19368TIP3   OH279518   1.702   4.383  14.624  0.1889 -0.0678  0.0596
19368TIP3    H179519   1.755   4.321  14.573  0.9869  0.4251  0.2838
19368TIP3    H279520   1.766   4.432  14.676 -0.3879  1.3830 -0.5794
19369TIP3   OH279521   2.730   2.030  13.150 -0.4731 -0.4986  0.0577
19369TIP3    H179522   2.635   2.034  13.139 -0.2926  0.1220 -1.2848
19369TIP3    H279523   2.753   2.115  13.188 -0.0435  0.7465 -2.8699
19370TIP3   OH279524   5.882   4.629   2.068 -0.4719  0.1358  0.0629
19370TIP3    H179525   5.911   4.539   2.081 -0.2079 -0.0526 -1.6895
19370TIP3    H279526   5.945   4.682   2.117 -0.0775 -0.5755  0.3244
19371TIP3   OH279527   2.604   5.118   2.957 -0.1238  0.4107 -0.4347
19371TIP3    H179528   2.666   5.190   2.969 -1.0128  0.9478  0.9782
19371TIP3    H279529   2.653   5.053   2.906  2.0453  0.2619  1.7590
19372TIP3   OH279530   2.508   2.610   3.772 -0.1687 -0.4147  0.5807
19372TIP3    H179531   2.460   2.662   3.708  0.3992 -0.9169 -0.2617
19372TIP3    H279532   2.562   2.550   3.720  1.1636 -0.0577  1.5036
19373TIP3   OH279533   5.150   4.927  12.776  0.5515 -0.1176  0.0657
19373TIP3    H179534   5.185   4.877  12.850 -3.8134 -0.1705  2.2040
19373TIP3    H279535   5.160   5.018  12.802 -0.5146 -0.1262  0.5287
19374TIP3   OH279536   0.395   2.897  13.539  0.2249 -0.2199  0.6214
19374TIP3    H179537   0.381   2.904  13.445  2.6564  0.2061  0.2527
19374TIP3    H279538   0.470   2.954  13.556  0.1447 -0.7205  2.7269
19375TIP3   OH279539   1.123   0.541  12.515 -0.5883 -0.3262  0.0576
19375TIP3    H179540   1.039   0.586  12.511 -1.6704 -2.1539  1.4967
19375TIP3    H279541   1.183   0.605  12.554 -1.6725  0.4646  0.4347
19376TIP3   OH279542   0.632   5.890   3.192 -0.5287  0.1746  0.4217
19376TIP3    H179543   0.568   5.954   3.161 -0.2520  1.3904  2.2674
19376TIP3    H279544   0.687   5.939   3.253  0.7701 -1.4027  0.5490
19377TIP3   OH279545   1.434   1.624  16.114  0.4005 -0.8855 -0.3181
19377TIP3    H179546   1.449   1.673  16.195  0.8161 -1.0846 -0.2769
19377TIP3    H279547   1.481   1.674  16.047 -0.5327 -0.3260 -0.5690
19378TIP3   OH279548   3.107   1.578  12.474  0.1309 -0.3494 -0.1491
19378TIP3    H179549   3.156   1.499  12.495  1.0245  0.4024  0.6883
19378TIP3    H279550   3.174   1.639  12.441 -0.6548 -0.1915 -1.5034
19379TIP3   OH279551   5.217   1.005  12.382 -0.1240 -0.6972 -0.4028
19379TIP3    H179552   5.245   0.921  12.345 -0.6318 -0.4910 -1.2690
19379TIP3    H279553   5.144   0.982  12.440  0.6075 -1.0102  0.3924
19380TIP3   OH279554   5.213   1.274  10.601 -0.0070  0.6230 -0.2437
19380TIP3    H179555   5.156   1.349  10.588 -1.0706 -0.0318  0.5764
19380TIP3    H279556   5.211   1.258  10.696 -2.2426 -2.3139 -0.6931
19381TIP3   OH279557   2.303   2.322  11.545  0.1378 -0.3758  0.3856
19381TIP3    H179558   2.271   2.400  11.589  0.8069  0.4933 -0.6363
19381TIP3    H279559   2.223   2.275  11.519 -0.2765  0.2380  0.5391
19382TIP3   OH279560   3.153   3.159  14.837 -0.0653 -1.1002  0.3875
19382TIP3    H179561   3.195   3.104  14.903 -0.2437 -1.4505  0.2109
19382TIP3    H279562   3.074   3.191  14.880 -0.7335 -2.1880 -0.0126
19383TIP3   OH279563   3.049   1.932   2.952 -0.3248  0.3442 -0.0450
19383TIP3    H179564   2.985   1.969   3.013  1.8936  2.1814  1.2922
19383TIP3    H279565   3.047   1.838   2.969 -1.0859  0.6282  1.5457
19384TIP3   OH279566   3.400   0.962  15.337  0.0776  0.3919  0.4551
19384TIP3    H179567   3.446   0.897  15.284 -1.6158  1.0574 -1.8989
19384TIP3    H279568   3.435   1.046  15.308 -0.9867  0.7711  0.2601
19385TIP3   OH279569   3.156   5.557   0.548  0.4766  0.0866  0.5347
19385TIP3    H179570   3.099   5.615   0.598  0.6219 -0.6863  1.6272
19385TIP3    H279571   3.100   5.521   0.479 -0.0294  0.2845  0.8463
19386TIP3   OH279572   0.817   6.367   4.449  0.0331 -0.1252  0.3782
19386TIP3    H179573   0.776   6.435   4.503 -1.0831  0.0257 -0.6292
19386TIP3    H279574   0.765   6.289   4.467 -0.4921 -0.0203 -0.6207
19387TIP3   OH279575   3.667   0.299  11.331  0.3734  0.6618  0.2933
19387TIP3    H179576   3.579   0.291  11.367  0.5940  1.6571  1.0802
19387TIP3    H279577   3.663   0.376  11.274 -0.0416 -1.0659 -2.0432
19388TIP3   OH279578   2.237   2.399   4.814 -0.7766  0.3840  0.0320
19388TIP3    H179579   2.300   2.333   4.843  0.0348  1.5370  0.9680
19388TIP3    H279580   2.255   2.410   4.720 -1.6334 -1.4735 -0.3546
19389TIP3   OH279581   3.069   6.755  11.450  0.1736  0.0392 -0.5072
19389TIP3    H179582   3.136   6.707  11.403  1.3205  0.4807  0.6356
19389TIP3    H279583   3.005   6.689  11.476  0.4054 -0.4565 -1.2135
19390TIP3   OH279584   5.990   1.608   1.761 -0.4690  0.1695  0.2098
19390TIP3    H179585   5.926   1.543   1.733 -2.9947  1.8034  1.9413
19390TIP3    H279586   5.985   1.677   1.695  1.4340 -0.8444 -1.0462
19391TIP3   OH279587   6.331   0.162   5.540  0.1991  0.0485  0.1500
19391TIP3    H179588   6.275   0.215   5.483  0.5377 -0.2888 -0.5004
19391TIP3    H279589   6.338   0.078   5.495  1.2886  0.1124  0.1885
19392TIP3   OH279590   1.969   2.694  14.782  0.6189 -0.2483  0.2977
19392TIP3    H179591   1.999   2.651  14.862  1.1566 -1.6846 -0.6543
19392TIP3    H279592   2.012   2.780  14.784 -1.0546  0.5750  2.5758
19393TIP3   OH279593   1.228   1.615  17.085 -0.1471  0.1616 -0.0096
19393TIP3    H179594   1.324   1.622  17.080 -0.1175 -1.3838 -2.6245
19393TIP3    H279595   1.196   1.679  17.021 -0.8459 -0.0177  0.1549
19394TIP3   OH279596   0.257   1.724   2.487 -0.1233  0.0503 -0.1828
19394TIP3    H179597   0.226   1.810   2.517  0.6068  0.4766 -0.6372
19394TIP3    H279598   0.326   1.700   2.550  0.3561  0.2506 -0.6279
19395TIP3   OH279599   4.161   0.369   2.184 -0.2765 -0.3326 -0.1382
19395TIP3    H179600   4.193   0.302   2.244 -0.4461 -0.5032 -0.2385
19395TIP3    H279601   4.235   0.388   2.127 -0.4850 -1.0485 -0.6587
19396TIP3   OH279602   5.306   2.739   6.114  0.2721 -0.2545 -0.0647
19396TIP3    H179603   5.312   2.792   6.193  1.8120  0.1074 -0.4127
19396TIP3    H279604   5.273   2.800   6.047  0.2078 -0.2253 -0.0063
19397TIP3   OH279605   3.219   1.847   5.737 -0.2277 -0.2467  0.0129
19397TIP3    H179606   3.221   1.809   5.649 -0.4418  2.3502 -1.1728
19397TIP3    H279607   3.310   1.870   5.756 -0.5606  1.9228 -0.8302
19398TIP3   OH279608   1.700   4.551  12.196 -0.1730  0.5199  0.5980
19398TIP3    H179609   1.636   4.498  12.149  1.7016 -1.6685  0.3942
19398TIP3    H279610   1.749   4.596  12.128 -0.1790  0.6101  0.6528
19399TIP3   OH279611   1.816   3.530   1.542  0.1924  0.0655  0.2898
19399TIP3    H179612   1.825   3.507   1.634  1.9805 -1.0338 -0.1373
19399TIP3    H279613   1.855   3.617   1.535 -0.2088  0.2723  0.6204
19400TIP3   OH279614   4.666   3.856  13.094 -0.8293 -0.1332 -0.3964
19400TIP3    H179615   4.720   3.881  13.018 -0.4224  1.0018  0.2468
19400TIP3    H279616   4.636   3.767  13.074  0.9746 -0.6419 -0.9485
19401TIP3   OH279617   6.307   0.320  14.854  0.0955  0.4433  0.1179
19401TIP3    H179618   6.248   0.391  14.881  0.6059  1.1731 -0.6566
19401TIP3    H279619   6.306   0.323  14.759  0.9703  0.1131  0.0915
19402TIP3   OH279620   3.827   5.858   3.106 -0.0412 -0.6447 -0.1008
19402TIP3    H179621   3.871   5.833   3.025 -2.1245 -0.4240 -1.3254
19402TIP3    H279622   3.816   5.953   3.100 -0.8159 -0.7174  0.1255
19403TIP3   OH279623   1.616   1.854   4.473  0.4874 -0.0196  0.5375
19403TIP3    H179624   1.710   1.871   4.471  0.2192  1.5754  0.4471
19403TIP3    H279625   1.576   1.941   4.475 -0.9918 -0.6747  0.4111
19404TIP3   OH279626   5.977   4.237  11.819  0.2138 -0.1560 -0.1521
19404TIP3    H179627   5.896   4.201  11.783 -0.6591  1.5184  0.1119
19404TIP3    H279628   6.042   4.225  11.749 -0.5024 -0.5639 -0.7510
19405TIP3   OH279629   5.461   3.472   6.180  0.2261  0.4338  0.5730
19405TIP3    H179630   5.410   3.445   6.103 -1.2327  2.8007  0.6339
19405TIP3    H279631   5.494   3.391   6.217 -0.3803 -0.8801 -1.6566
19406TIP3   OH279632   5.945   5.182  12.906 -0.0348  0.4825  0.2840
19406TIP3    H179633   5.915   5.239  12.836 -1.1528 -0.3816  0.0437
19406TIP3    H279634   5.922   5.094  12.877  1.6399 -0.1076  0.6588
19407TIP3   OH279635   4.339   4.795  11.316 -0.0892  0.1785 -0.0437
19407TIP3    H179636   4.401   4.806  11.244  1.1792 -1.8082  0.6992
19407TIP3    H279637   4.254   4.785  11.274  0.5779 -0.5242 -1.2422
19408TIP3   OH279638   2.743   6.174   0.208  0.2936 -0.0841 -0.2036
19408TIP3    H179639   2.673   6.194   0.146 -0.3863  1.0326  0.9027
19408TIP3    H279640   2.708   6.103   0.261 -0.3611  1.0468  0.9064
19409TIP3   OH279641   6.115   2.111  11.536 -0.2872 -0.4160  1.0120
19409TIP3    H179642   6.185   2.101  11.601  1.1946  0.5064 -0.3846
19409TIP3    H279643   6.134   2.044  11.470  0.6359  1.2741 -0.5090
19410TIP3   OH279644   2.777   5.340  15.607  0.1410 -0.1657 -0.8039
19410TIP3    H179645   2.854   5.304  15.564 -0.8097 -1.8398 -1.1456
19410TIP3    H279646   2.725   5.377  15.536 -1.1789 -2.4697 -1.1098
19411TIP3   OH279647   0.745   3.697  11.309  0.4366 -0.4810 -0.2799
19411TIP3    H179648   0.660   3.706  11.267  1.0674 -1.4885 -1.8067
19411TIP3    H279649   0.725   3.674  11.399 -0.9154  0.4474 -0.3263
19412TIP3   OH279650   6.453   5.810   5.302  0.1462 -0.1909 -0.1930
19412TIP3    H179651   6.362   5.818   5.272  0.3698  0.1865 -0.7917
19412TIP3    H279652   6.501   5.780   5.224  1.1975  3.3913 -1.0008
19413TIP3   OH279653   3.837   6.571  12.098 -0.0552 -0.0596 -0.5710
19413TIP3    H179654   3.845   6.595  12.006 -0.9579  0.8827 -0.4255
19413TIP3    H279655   3.887   6.491  12.107 -0.4414 -0.4792 -2.0092
19414TIP3   OH279656   4.497   6.222   2.921  0.3162 -0.1696 -0.2910
19414TIP3    H179657   4.575   6.209   2.867  0.9620  0.4220  0.4844
19414TIP3    H279658   4.474   6.135   2.952 -0.6298 -0.6586 -2.2898
19415TIP3   OH279659   6.418   5.463  10.858  0.2004  0.0838  0.4846
19415TIP3    H179660   6.349   5.485  10.920  0.1055 -1.1621  0.8310
19415TIP3    H279661   6.500   5.475  10.907  0.1873  0.4134  0.4301
19416TIP3   OH279662   0.310   3.153  12.060 -0.2160 -0.4974  0.8670
19416TIP3    H179663   0.386   3.099  12.081  0.9429  0.3227 -1.1324
19416TIP3    H279664   0.336   3.242  12.082  0.1225  0.0452 -1.5656
19417TIP3   OH279665   2.296   4.352   3.303  0.0898 -0.3849  0.3731
19417TIP3    H179666   2.370   4.410   3.317 -0.2839 -0.1228  1.2927
19417TIP3    H279667   2.262   4.334   3.391 -1.1391 -0.2263 -0.0623
19418TIP3   OH279668   3.378   5.944  13.551  0.1404  0.6632 -0.1476
19418TIP3    H179669   3.403   5.938  13.459 -0.4297 -0.7372 -0.2113
19418TIP3    H279670   3.454   5.909  13.598  0.7569  2.1117 -0.0275
19419TIP3   OH279671   5.583   2.077  16.271  0.3810  0.0216  0.3768
19419TIP3    H179672   5.583   1.986  16.303 -0.5191 -0.2705 -0.4337
19419TIP3    H279673   5.655   2.080  16.209 -0.5292 -0.5662 -0.7388
19420TIP3   OH279674   3.471   1.540   2.110  0.0495 -0.0400 -0.2563
19420TIP3    H179675   3.554   1.514   2.150 -0.3698 -1.2323 -0.1477
19420TIP3    H279676   3.432   1.458   2.079 -1.1799  0.4860 -0.1356
19421TIP3   OH279677   2.834   2.543   4.117 -0.0438  0.2441 -0.5795
19421TIP3    H179678   2.904   2.528   4.181  1.6405  1.1121 -2.1968
19421TIP3    H279679   2.814   2.636   4.125  1.4751  0.7572 -2.6165
19422TIP3   OH279680   1.915   5.373   1.907 -0.0605 -0.0576  0.1350
19422TIP3    H179681   1.971   5.367   1.984 -0.3041 -0.2851  0.2950
19422TIP3    H279682   1.828   5.347   1.939 -0.4425  1.1711  0.0925
19423TIP3   OH279683   5.748   6.683  11.897  0.1113  0.5672  0.4180
19423TIP3    H179684   5.717   6.740  11.827  0.3785  0.3748  0.1436
19423TIP3    H279685   5.759   6.741  11.972 -1.5161  0.5375  0.7076
19424TIP3   OH279686   0.884   5.121  17.197 -0.1393 -0.4823 -0.0279
19424TIP3    H179687   0.821   5.159  17.135  0.6490 -0.5590 -0.8847
19424TIP3    H279688   0.834   5.053  17.242 -1.0767  0.4188  0.3150
19425TIP3   OH279689   0.404   4.337  15.232 -0.3915  0.7465 -0.2445
19425TIP3    H179690   0.362   4.293  15.305 -0.1032  0.5970 -0.1666
19425TIP3    H279691   0.488   4.292  15.222  0.7128  2.4792  1.0218
19426TIP3   OH279692   6.596   0.377   3.122 -0.6007 -0.0652 -0.1298
19426TIP3    H179693   6.536   0.436   3.076  0.1159  0.9320  0.1747
19426TIP3    H279694   6.667   0.434   3.151 -0.0814 -1.0255  0.5176
19427TIP3   OH279695   5.017   6.186  11.725  0.4974  0.4758  0.2267
19427TIP3    H179696   4.942   6.135  11.755  0.9119  0.9217  2.0701
19427TIP3    H279697   5.084   6.122  11.705 -0.0660  0.1288 -0.5788
19428TIP3   OH279698   3.453   0.155   3.314  0.0770  0.1257 -0.0951
19428TIP3    H179699   3.513   0.199   3.254  1.0036  0.3789  0.9957
19428TIP3    H279700   3.481   0.064   3.314  1.8756  0.6280  2.0382
19429TIP3   OH279701   4.751   3.625   0.209 -0.3374  0.4824  0.5377
19429TIP3    H179702   4.795   3.671   0.138 -1.2912 -0.7116 -0.8663
19429TIP3    H279703   4.663   3.663   0.211 -0.1634  0.8512  1.4203
19430TIP3   OH279704   3.502   3.168   6.522  0.0886 -0.2177  0.6617
19430TIP3    H179705   3.582   3.215   6.547 -0.2942 -0.5398  2.5971
19430TIP3    H279706   3.533   3.084   6.489  0.5402 -0.6117  2.0449
19431TIP3   OH279707   6.324   0.105  17.102  0.2641  0.3006 -0.3523
19431TIP3    H179708   6.329   0.178  17.041  0.5849  0.4856 -0.1098
19431TIP3    H279709   6.235   0.070  17.091 -0.1793  1.2518  0.1318
19432TIP3   OH279710   4.054   3.765  12.102  0.1741  0.0676 -0.2897
19432TIP3    H179711   4.104   3.731  12.028  0.8998  0.8969 -0.1899
19432TIP3    H279712   4.081   3.709  12.176  0.1255 -0.1883 -0.4636
19433TIP3   OH279713   1.285   5.552   3.286  0.2569  0.3408 -0.1588
19433TIP3    H179714   1.232   5.473   3.279  0.9601 -0.2415  0.8543
19433TIP3    H279715   1.335   5.540   3.367  0.7078  1.6168 -0.2306
19434TIP3   OH279716   3.047   1.982  14.712 -0.5707  0.0517  0.0399
19434TIP3    H179717   3.127   1.995  14.764  0.0266  1.5481 -1.2154
19434TIP3    H279718   3.062   2.033  14.632 -2.1459 -0.9242 -0.8967
19435TIP3   OH279719   0.063   0.319  16.761 -0.1439  0.0723  0.2180
19435TIP3    H179720   0.044   0.264  16.685  3.7403 -1.2654  0.1471
19435TIP3    H279721   0.024   0.272  16.835  0.1611 -1.0009 -0.3063
19436TIP3   OH279722   2.839   2.869  11.258  0.3578 -0.1904 -0.3607
19436TIP3    H179723   2.869   2.932  11.193  0.1134 -0.6501 -0.9217
19436TIP3    H279724   2.747   2.890  11.271 -0.1976 -1.5596 -1.8800
19437TIP3   OH279725   4.806   3.714  12.811 -0.0682  0.1382  0.0843
19437TIP3    H179726   4.868   3.679  12.875 -1.3842  0.2118  1.4273
19437TIP3    H279727   4.770   3.636  12.767  1.8746  0.1491 -1.5954
19438TIP3   OH279728   0.535   1.858   2.505 -0.1756  0.3237 -0.3100
19438TIP3    H179729   0.515   1.770   2.538 -1.2613 -0.5931 -3.2086
19438TIP3    H279730   0.572   1.904   2.580  1.6821 -3.0149  0.9455
19439TIP3   OH279731   3.508   0.284   0.309 -0.1602 -0.2529 -0.2426
19439TIP3    H179732   3.475   0.236   0.385 -1.7105  1.4533  0.2258
19439TIP3    H279733   3.562   0.354   0.346 -1.1610  0.7675 -0.6502
19440TIP3   OH279734   6.524   3.923   3.550  0.2487 -0.0550 -0.0470
19440TIP3    H179735   6.455   3.971   3.596  1.1459  0.9113  0.2994
19440TIP3    H279736   6.503   3.934   3.457 -0.2775 -0.0999  0.0632
19441TIP3   OH279737   6.613   6.167   3.018 -0.0503 -0.4891  0.2209
19441TIP3    H179738   6.608   6.080   3.058  1.2539 -0.5761  0.2381
19441TIP3    H279739   6.570   6.158   2.933  0.6934 -1.3450 -0.0750
19442TIP3   OH279740   0.876   1.588   0.612 -0.1503 -0.6647  0.6551
19442TIP3    H179741   0.868   1.593   0.517 -2.1441  2.5489  0.9396
19442TIP3    H279742   0.869   1.678   0.642 -1.4452 -1.7980  3.9925
19443TIP3   OH279743   5.626   6.663   0.061 -0.0266  0.6842  0.2363
19443TIP3    H179744   5.660   6.747   0.092  2.0378  0.0891 -0.3186
19443TIP3    H279745   5.695   6.600   0.083  0.5739 -0.1097 -3.5699
19444TIP3   OH279746   3.097   3.263   4.934 -1.0540 -0.0207  0.5034
19444TIP3    H179747   3.062   3.318   4.864 -0.3678  1.2900  1.1800
19444TIP3    H279748   3.076   3.310   5.015  0.9824  0.0878  1.0091
19445TIP3   OH279749   2.917   5.125  15.195 -0.3129  0.2483  0.6416
19445TIP3    H179750   2.955   5.172  15.121  1.2737 -1.5604  0.2614
19445TIP3    H279751   2.942   5.178  15.272  0.5080  0.6126  0.1364
19446TIP3   OH279752   6.144   3.027  14.989 -0.2170  0.2527  0.2277
19446TIP3    H179753   6.078   3.092  15.011 -0.8801 -1.0406  2.2398
19446TIP3    H279754   6.094   2.951  14.959  0.2595 -0.9856  2.4269
19447TIP3   OH279755   4.045   2.620  16.548 -0.1606  0.6132 -0.4380
19447TIP3    H179756   4.080   2.551  16.491 -0.4726 -1.0649  1.3635
19447TIP3    H279757   4.122   2.663  16.585  0.0243  0.0050 -0.1156
19448TIP3   OH279758   4.460   0.612   1.613 -0.2513 -0.3017  0.9920
19448TIP3    H179759   4.542   0.568   1.591 -0.1228 -0.6861  2.2286
19448TIP3    H279760   4.392   0.551   1.583 -0.1426  1.0319 -2.1535
19449TIP3   OH279761   5.101   0.134  16.666 -0.1307  0.8248  0.7721
19449TIP3    H179762   5.147   0.113  16.584 -1.8578 -0.2164  0.0458
19449TIP3    H279763   5.078   0.048  16.703 -2.3653  1.3178  0.5994
19450TIP3   OH279764   3.479   4.021  10.097 -0.6040 -0.6360 -0.1863
19450TIP3    H179765   3.420   3.954  10.132 -0.4552 -1.1725 -0.9249
19450TIP3    H279766   3.423   4.096  10.079 -0.9201 -0.8603 -0.1315
19451TIP3   OH279767   3.679   6.725   0.069  0.5648  0.3490 -0.3750
19451TIP3    H179768   3.770   6.710   0.094 -0.1349 -1.3515  1.2673
19451TIP3    H279769   3.668   6.820   0.071  1.6349  0.4424  1.8336
19452TIP3   OH279770   5.366   3.127  12.778 -0.2558 -0.4001 -0.3154
19452TIP3    H179771   5.332   3.059  12.836  0.4985 -0.1952  0.3768
19452TIP3    H279772   5.289   3.160  12.732 -1.1753  0.9103  2.0949
19453TIP3   OH279773   3.671   5.446  14.337  0.3304  0.0037  0.3013
19453TIP3    H179774   3.661   5.540  14.356  0.9666  0.1136  0.1124
19453TIP3    H279775   3.583   5.417  14.314 -0.1999  0.1726  2.0501
19454TIP3   OH279776   5.507   3.179  14.664 -0.0859  0.1326  0.5334
19454TIP3    H179777   5.524   3.272  14.650  0.9514  0.0665  1.2944
19454TIP3    H279778   5.443   3.155  14.596  0.6253  1.0925 -0.4882
19455TIP3   OH279779   0.476   1.884  16.079  0.2605  0.0090  0.0351
19455TIP3    H179780   0.540   1.870  16.149 -1.8781 -0.1342  2.0150
19455TIP3    H279781   0.406   1.822  16.099 -0.8602  0.7216 -1.6396
19456TIP3   OH279782   0.423   1.773   1.460  0.0172 -0.2611  0.1547
19456TIP3    H179783   0.375   1.806   1.537  0.1573 -0.5882  0.3814
19456TIP3    H279784   0.441   1.852   1.408 -0.8965 -0.1515 -0.0067
19457TIP3   OH279785   0.959   2.138   4.744 -0.1172 -0.4707 -0.3761
19457TIP3    H179786   0.897   2.129   4.671 -0.8129 -0.8779  0.2552
19457TIP3    H279787   0.950   2.055   4.792 -0.7187  0.3610  0.9859
19458TIP3   OH279788   6.316   2.225   1.428  0.5740 -0.1362  0.3120
19458TIP3    H179789   6.284   2.308   1.465  0.9154 -0.3760  1.1646
19458TIP3    H279790   6.339   2.246   1.337 -0.3283  0.4553  0.2195
19459TIP3   OH279791   0.348   2.946  13.253  0.4450 -0.0272  0.1600
19459TIP3    H179792   0.269   2.948  13.199  0.5028  0.5024  0.0920
19459TIP3    H279793   0.386   2.860  13.238  0.1443 -0.0978 -0.1885
19460TIP3   OH279794   3.487   0.421   5.476  0.6321  0.5827 -1.3095
19460TIP3    H179795   3.522   0.336   5.447 -0.4212  0.2374 -1.5854
19460TIP3    H279796   3.441   0.401   5.557  0.3494  0.8842 -1.3962
19461TIP3   OH279797   5.965   6.233  13.727 -1.0407 -0.1492  0.2999
19461TIP3    H179798   6.046   6.229  13.776 -0.2916  1.0296 -0.7931
19461TIP3    H279799   5.971   6.162  13.663 -0.3887  0.5816 -0.4652
19462TIP3   OH279800   1.053   5.848  11.571 -0.5083 -0.1153 -0.1039
19462TIP3    H179801   0.980   5.814  11.518  0.8159  0.4695 -2.3746
19462TIP3    H279802   1.082   5.926  11.523  1.0394  0.1557  1.2642
19463TIP3   OH279803   4.229   2.346   4.838  0.2446 -0.2415  0.3162
19463TIP3    H179804   4.236   2.319   4.929  1.2878 -0.1018  0.2820
19463TIP3    H279805   4.141   2.317   4.811 -1.6178  3.1076  2.4500
19464TIP3   OH279806   2.535   5.126   1.258 -0.2460 -0.7950 -0.0632
19464TIP3    H179807   2.492   5.201   1.299 -2.0419 -1.6438 -0.3456
19464TIP3    H279808   2.622   5.158   1.235 -0.2090  0.5440  1.8197
19465TIP3   OH279809   6.491   5.892   6.457  0.0618  0.1650 -0.1121
19465TIP3    H179810   6.440   5.932   6.527  0.7721 -0.4928  0.7747
19465TIP3    H279811   6.580   5.925   6.469  0.2248 -0.0890 -0.5888
19466TIP3   OH279812   5.397   0.619  17.167 -0.6035  0.3968 -0.2674
19466TIP3    H179813   5.413   0.527  17.144  1.0226  1.1044 -2.1529
19466TIP3    H279814   5.451   0.633  17.245  0.6220  0.2189 -1.0563
19467TIP3   OH279815   3.611   5.183  14.967  0.0820 -0.3773 -0.2221
19467TIP3    H179816   3.607   5.133  14.886  1.5695 -1.2885  0.2502
19467TIP3    H279817   3.626   5.273  14.939 -0.7489 -0.4801 -1.0078
19468TIP3   OH279818   3.570   3.145  13.743 -0.6866 -0.2599  0.0182
19468TIP3    H179819   3.535   3.225  13.783  0.3876  0.3662 -0.2684
19468TIP3    H279820   3.644   3.122  13.799 -1.6779 -1.7071  0.7626
19469TIP3   OH279821   5.755   2.716  12.663  0.0740 -0.5289  0.4599
19469TIP3    H179822   5.797   2.643  12.709  1.9776 -0.7995 -1.6427
19469TIP3    H279823   5.807   2.728  12.584 -2.2692  0.8841 -0.9321
19470TIP3   OH279824   0.394   3.665  16.114  0.1679  0.1447 -0.0382
19470TIP3    H179825   0.332   3.619  16.058 -0.3750 -1.4921  1.8568
19470TIP3    H279826   0.340   3.710  16.179  0.8783  0.1661  0.5504
19471TIP3   OH279827   1.176   2.241  16.377  0.0175 -0.0349 -0.2424
19471TIP3    H179828   1.123   2.197  16.310 -0.9112  0.9626 -0.1778
19471TIP3    H279829   1.232   2.301  16.327 -1.7559  1.8334 -0.0490
19472TIP3   OH279830   6.634   3.044  12.043  0.5048  0.3777  0.8052
19472TIP3    H179831   6.687   3.086  12.111  1.3186  2.3717 -0.9976
19472TIP3    H279832   6.694   2.981  12.002  0.1495 -0.4909  1.5858
19473TIP3   OH279833   5.121   5.029   2.631 -0.6498  0.3755 -0.3407
19473TIP3    H179834   5.035   5.006   2.596 -0.6685 -0.8628  0.5095
19473TIP3    H279835   5.168   4.946   2.636  0.8893  1.1493 -1.5625
19474TIP3   OH279836   4.480   2.781  16.068  0.0395 -0.6516  0.5963
19474TIP3    H179837   4.565   2.818  16.044  0.3338 -0.6721  1.5833
19474TIP3    H279838   4.419   2.855  16.061 -0.3945 -1.2152 -2.7434
19475TIP3   OH279839   0.480   4.331   0.701 -0.2233  0.4695 -0.0141
19475TIP3    H179840   0.502   4.264   0.766  0.3143  1.3827  0.7636
19475TIP3    H279841   0.390   4.311   0.675 -1.2510  1.3875  2.6614
19476TIP3   OH279842   0.307   0.450   5.061 -0.4611 -0.1825  0.0288
19476TIP3    H179843   0.267   0.528   5.100  0.3792 -0.2015  0.9624
19476TIP3    H279844   0.233   0.394   5.039 -0.9265 -0.7613  2.8698
19477TIP3   OH279845   5.580   1.035  12.393  0.5037 -0.7275  0.4005
19477TIP3    H179846   5.621   1.120  12.378 -0.6406 -0.3994 -1.0026
19477TIP3    H279847   5.507   1.052  12.452 -1.3374 -0.2430 -1.9194
19478TIP3   OH279848   0.498   6.412   5.853  0.4672  0.2532 -0.1785
19478TIP3    H179849   0.451   6.449   5.928  0.0882  1.3190 -0.9352
19478TIP3    H279850   0.579   6.378   5.891 -0.1192 -0.0141  0.8570
19479TIP3   OH279851   2.637   6.161   2.098 -0.4209 -0.4206 -0.2603
19479TIP3    H179852   2.681   6.077   2.110 -0.9525 -0.6964 -0.2294
19479TIP3    H279853   2.547   6.138   2.074 -0.4852  0.1386 -0.5635
19480TIP3   OH279854   0.764   6.678  11.085 -0.0542  0.2510  0.2049
19480TIP3    H179855   0.717   6.673  11.002 -0.1070 -0.1544  0.2621
19480TIP3    H279856   0.702   6.718  11.146  1.1739  4.0261 -0.8416
19481TIP3   OH279857   3.632   2.008   3.915 -0.0296  0.0291 -0.2446
19481TIP3    H179858   3.660   1.979   3.828  1.4578  0.4014  0.0886
19481TIP3    H279859   3.616   2.102   3.904  0.3838  0.1218 -0.0694
19482TIP3   OH279860   5.799   3.705   1.000  0.7733  0.3106  0.9527
19482TIP3    H179861   5.800   3.614   1.029  0.5537  0.3321  1.0243
19482TIP3    H279862   5.736   3.748   1.057 -2.1168 -0.3359 -1.6581
19483TIP3   OH279863   5.841   6.191   3.296  0.4485 -0.2202  0.1010
19483TIP3    H179864   5.915   6.247   3.320  0.3722 -0.6350  1.3540
19483TIP3    H279865   5.770   6.252   3.278  0.6015  0.1288  0.6527
19484TIP3   OH279866   5.239   6.198   4.581 -0.0062  0.3101 -0.1930
19484TIP3    H179867   5.217   6.199   4.674  2.0047 -1.6945  0.3415
19484TIP3    H279868   5.296   6.275   4.570  0.9187 -0.2537  0.5512
19485TIP3   OH279869   6.016   4.050   3.216  0.2814 -0.2883 -0.3940
19485TIP3    H179870   6.026   4.111   3.144  1.1865 -0.8558 -0.7662
19485TIP3    H279871   5.932   4.008   3.202 -1.4880  2.5613  1.1917
19486TIP3   OH279872   2.174   6.117  12.030 -0.9189  0.3156  0.5086
19486TIP3    H179873   2.200   6.142  11.942  0.6847 -1.2808  0.5008
19486TIP3    H279874   2.100   6.058  12.018  0.0392 -0.8354  0.1498
19487TIP3   OH279875   1.917   0.092   2.442  0.1472 -0.2114 -0.0343
19487TIP3    H179876   1.890   0.165   2.387  0.4432 -0.3183 -0.3231
19487TIP3    H279877   2.013   0.098   2.444  0.2450 -1.3083 -1.0349
19488TIP3   OH279878   3.913   4.888  13.860 -1.0181 -0.2745 -0.1398
19488TIP3    H179879   3.878   4.811  13.816  2.3978 -1.9561 -0.1659
19488TIP3    H279880   3.894   4.873  13.953 -0.6964 -1.0168 -0.1871
19489TIP3   OH279881   6.114   4.690  14.085  0.2270 -0.4132  0.5502
19489TIP3    H179882   6.065   4.763  14.046  0.5031 -0.8435 -0.6040
19489TIP3    H279883   6.056   4.615  14.077  0.7437 -0.7493 -0.0795
19490TIP3   OH279884   4.005   4.377   0.137  0.0668 -0.1443 -0.3533
19490TIP3    H179885   3.943   4.422   0.194  0.5213 -1.5099  1.2638
19490TIP3    H279886   3.959   4.367   0.054 -1.5983 -0.4901  0.6000
19491TIP3   OH279887   5.040   0.802  15.320  0.5812  0.1135  0.1629
19491TIP3    H179888   5.125   0.835  15.352  0.6710 -0.5133  0.5893
19491TIP3    H279889   5.043   0.708  15.338 -0.4041  0.1673  0.6156
19492TIP3   OH279890   3.075   3.418   6.137 -0.3130 -0.0160  0.5852
19492TIP3    H179891   3.016   3.377   6.074 -0.7514  0.3054  0.7819
19492TIP3    H279892   3.021   3.483   6.182  0.4680  1.0707 -0.0124
19493TIP3   OH279893   0.350   6.315   1.845  0.1770  0.5084  0.0156
19493TIP3    H179894   0.368   6.405   1.815  0.6642  0.1009 -0.9337
19493TIP3    H279895   0.422   6.296   1.905 -0.7270  1.2787  1.3637
19494TIP3   OH279896   3.068   1.084   4.467 -0.2052  0.0446 -0.0552
19494TIP3    H179897   3.104   1.170   4.489 -0.3943 -0.0555  0.6622
19494TIP3    H279898   3.100   1.066   4.379 -2.2526  1.9924 -1.2745
19495TIP3   OH279899   5.460   4.476  16.210 -0.0238 -0.1770 -0.5801
19495TIP3    H179900   5.373   4.496  16.247  0.3593 -0.4344  0.4919
19495TIP3    H279901   5.521   4.509  16.276  0.6808 -0.5966 -1.0276
19496TIP3   OH279902   0.866   4.758  16.242 -0.5000 -0.6895  0.0867
19496TIP3    H179903   0.790   4.786  16.191 -0.8189 -2.0084 -0.1590
19496TIP3    H279904   0.851   4.666  16.260  0.8561 -0.8670  0.3734
19497TIP3   OH279905   0.909   6.707   0.279 -0.5684 -0.2286  0.1888
19497TIP3    H179906   0.846   6.661   0.335 -0.7385  1.0251  1.0546
19497TIP3    H279907   0.854   6.764   0.224 -0.2780 -0.0826  0.0503
19498TIP3   OH279908   3.571   5.318   3.655 -0.7684  0.2001  0.3218
19498TIP3    H179909   3.665   5.329   3.642 -0.5913  1.1287  2.2149
19498TIP3    H279910   3.541   5.272   3.576  1.4827 -1.3320  0.3078
19499TIP3   OH279911   2.776   4.826   1.439  0.2868  0.5465  0.2017
19499TIP3    H179912   2.819   4.905   1.405 -0.1963  0.9234  0.4552
19499TIP3    H279913   2.701   4.859   1.489  1.0137  0.0074  1.6816
19500TIP3   OH279914   4.266   3.954   5.204 -0.0401  1.0406  0.2965
19500TIP3    H179915   4.201   3.976   5.270  0.4030 -1.3914  1.5851
19500TIP3    H279916   4.323   3.890   5.246  1.3643  0.8209 -1.8354
19501TIP3   OH279917   5.674   6.452   5.682  0.4847  0.2898 -0.5316
19501TIP3    H179918   5.755   6.484   5.644  0.2891  1.6691  0.1769
19501TIP3    H279919   5.689   6.358   5.696  1.9380  0.5296 -0.4227
19502TIP3   OH279920   4.394   3.958   3.414  0.4598  0.4046  0.6598
19502TIP3    H179921   4.396   3.887   3.478 -3.9778  1.0512  1.6975
19502TIP3    H279922   4.446   4.028   3.454  1.0969 -0.6470  1.6986
19503TIP3   OH279923   5.579   4.794  16.782 -0.0035 -0.0162 -0.2826
19503TIP3    H179924   5.606   4.788  16.690  2.3695  2.2927  0.2090
19503TIP3    H279925   5.483   4.789  16.779  0.1091 -1.5676 -2.7203
19504TIP3   OH279926   5.590   4.293  11.101  0.1860  0.8889  0.3149
19504TIP3    H179927   5.573   4.211  11.148 -0.0651  1.3284  1.0007
19504TIP3    H279928   5.552   4.279  11.014  1.0543 -0.1028  0.0846
19505TIP3   OH279929   0.477   3.566   1.535  0.4057 -0.2294 -0.3307
19505TIP3    H179930   0.548   3.531   1.480  1.1272 -1.2717  1.2460
19505TIP3    H279931   0.473   3.507   1.610 -1.8007  0.1212 -0.1321
19506TIP3   OH279932   2.189   5.453   0.566 -0.2365 -0.1206 -0.4033
19506TIP3    H179933   2.139   5.454   0.648 -0.4579 -3.5081 -0.4372
19506TIP3    H279934   2.124   5.472   0.498 -0.3177  1.3098  0.0555
19507TIP3   OH279935   4.334   0.675  16.488 -0.2260 -0.4117 -0.0585
19507TIP3    H179936   4.319   0.593  16.535  0.4015 -0.1931  0.5257
19507TIP3    H279937   4.429   0.681  16.479 -0.2598  0.3374  0.0551
19508TIP3   OH279938   3.960   2.705   5.308  0.2600 -0.2389 -0.1417
19508TIP3    H179939   4.007   2.674   5.230  0.6890  0.3475 -0.1144
19508TIP3    H279940   3.988   2.645   5.377 -1.4933 -1.8746 -0.8179
19509TIP3   OH279941   2.025   6.317  13.356  0.1721 -0.7988  0.0824
19509TIP3    H179942   1.942   6.294  13.398 -0.6319  0.6020 -0.6891
19509TIP3    H279943   2.036   6.252  13.287 -0.2554 -1.0353  0.2344
19510TIP3   OH279944   0.035   5.520   2.292  0.2138  0.1350  0.1103
19510TIP3    H179945  -0.029   5.582   2.257  0.3807  0.6462  0.6827
19510TIP3    H279946   0.078   5.483   2.215  1.5317  2.2500 -0.2123
19511TIP3   OH279947   0.705   1.775  11.427 -0.1177  0.2787  0.1169
19511TIP3    H179948   0.763   1.754  11.500 -1.0336 -1.4935  0.3711
19511TIP3    H279949   0.627   1.812  11.468 -0.7019 -0.8732  0.0841
19512TIP3   OH279950   2.750   1.849   0.465 -0.0716 -0.2080 -0.0883
19512TIP3    H179951   2.658   1.857   0.490  0.0412  1.0868 -0.0771
19512TIP3    H279952   2.799   1.871   0.545  0.2525 -0.6915 -0.1491
19513TIP3   OH279953   5.284   1.773  12.331 -1.0183  0.1351 -0.6562
19513TIP3    H179954   5.299   1.691  12.376 -1.2019  0.3679 -0.1702
19513TIP3    H279955   5.257   1.834  12.400 -0.9378  0.5851 -1.0197
19514TIP3   OH279956   2.671   6.365   3.146 -0.1877 -0.4019 -0.3502
19514TIP3    H179957   2.725   6.334   3.220 -1.8879 -1.1791  0.5972
19514TIP3    H279958   2.585   6.381   3.185 -0.5319  1.2368 -1.7619
19515TIP3   OH279959   4.353   4.328  11.279 -0.5345  0.5277  0.5885
19515TIP3    H179960   4.260   4.350  11.277 -0.9470 -1.0833  1.0258
19515TIP3    H279961   4.358   4.241  11.239  1.1298  1.6693 -1.8136
19516TIP3   OH279962   4.808   1.773   5.252 -0.0252 -0.1347 -0.0947
19516TIP3    H179963   4.867   1.706   5.286 -1.4703 -0.8582  1.0715
19516TIP3    H279964   4.720   1.739   5.271 -0.8109  1.0490 -1.5287
19517TIP3   OH279965   1.537   1.641   6.772 -0.3949  0.3201 -0.6181
19517TIP3    H179966   1.527   1.551   6.742 -0.7017 -0.1346  0.8366
19517TIP3    H279967   1.448   1.671   6.790 -0.3576  1.1440 -1.6936
19518TIP3   OH279968   2.331   4.521  12.584 -0.0996 -1.2291 -0.0117
19518TIP3    H179969   2.397   4.543  12.519 -0.1405  0.2977  0.4326
19518TIP3    H279970   2.259   4.582  12.567  0.0569 -0.5245  1.6840
19519TIP3   OH279971   3.161   2.750   0.965 -0.0474  0.1844  0.2276
19519TIP3    H179972   3.189   2.792   0.884 -1.5042  1.9785  0.6298
19519TIP3    H279973   3.119   2.669   0.937 -0.4173  0.7279 -0.8067
19520TIP3   OH279974   2.191   4.572  17.105  0.5590 -0.4000 -0.0958
19520TIP3    H179975   2.132   4.553  17.178 -0.8438 -1.4972 -1.4877
19520TIP3    H279976   2.183   4.666  17.091 -0.2143 -0.4048  0.2857
19521TIP3   OH279977   2.906   5.996   1.524 -0.2706  0.1348  0.0828
19521TIP3    H179978   2.865   5.909   1.530 -0.5650  0.3208  0.9591
19521TIP3    H279979   2.977   5.985   1.461  0.8867 -1.2224  1.5857
19522TIP3   OH279980   5.437   1.548  17.229  0.3263  0.1743  0.2491
19522TIP3    H179981   5.410   1.487  17.161 -0.1494 -0.0270  0.6132
19522TIP3    H279982   5.498   1.608  17.185 -0.4307  0.4086 -0.4959
19523TIP3   OH279983   4.086   2.486   4.485  0.1717 -0.3519  0.3353
19523TIP3    H179984   4.176   2.455   4.490  0.5442  0.7420  0.5590
19523TIP3    H279985   4.068   2.522   4.572  0.3895  1.7500 -0.4620
19524TIP3   OH279986   1.379   3.422  13.381 -0.5617  0.2347 -0.0032
19524TIP3    H179987   1.374   3.331  13.354 -2.0499  0.3483 -0.1095
19524TIP3    H279988   1.431   3.421  13.461 -0.3972 -0.6713 -0.1213
19525TIP3   OH279989   2.385   3.670  16.011  0.6816 -0.1574 -0.1355
19525TIP3    H179990   2.303   3.712  16.036  1.0511  1.2395 -1.2000
19525TIP3    H279991   2.359   3.583  15.982 -0.0766 -0.7668  2.2648
19526TIP3   OH279992   0.716   1.255  10.933  0.1163 -0.0078 -0.2652
19526TIP3    H179993   0.640   1.312  10.940  0.5643  0.5223  0.4080
19526TIP3    H279994   0.681   1.172  10.901 -0.3258  1.1006 -2.7993
19527TIP3   OH279995   5.712   6.158   6.042 -0.8133  0.0788 -0.4691
19527TIP3    H179996   5.743   6.080   6.088 -2.1167  0.7531  1.6071
19527TIP3    H279997   5.777   6.225   6.063 -1.8598  0.6178  1.1778
19528TIP3   OH279998   1.691   1.233   0.475  0.2622  0.0241 -0.5950
19528TIP3    H179999   1.737   1.258   0.395  0.4882  0.2322 -0.3985
19528TIP3    H280000   1.751   1.173   0.520  0.4575  0.5055 -0.2077
19529TIP3   OH280001   4.689   4.699   5.827  0.4013 -0.2812 -0.1790
19529TIP3    H180002   4.736   4.750   5.762 -0.9504  0.4976 -0.5629
19529TIP3    H280003   4.597   4.713   5.807 -0.0786  1.1086  2.7334
19530TIP3   OH280004   0.803   4.813   0.816 -0.6618 -0.2405  0.2002
19530TIP3    H180005   0.715   4.825   0.779 -0.1489 -0.5813 -1.1635
19530TIP3    H280006   0.827   4.724   0.791  1.3972  0.9574 -2.3113
19531TIP3   OH280007   2.112   5.800   0.787  0.2166 -0.2289 -0.0750
19531TIP3    H180008   2.026   5.766   0.761 -0.3791  0.4804  0.9045
19531TIP3    H280009   2.167   5.722   0.797 -0.5835 -0.7622  0.2438
19532TIP3   OH280010   0.607   4.671   3.680  0.3078  0.0438 -0.0138
19532TIP3    H180011   0.601   4.766   3.694  2.2733  0.1005  0.6194
19532TIP3    H280012   0.555   4.655   3.602 -0.5207  1.5658  0.1979
19533TIP3   OH280013   1.315   5.755  14.298  0.3584  0.2910  0.1441
19533TIP3    H180014   1.274   5.805  14.227 -1.9140 -0.7013  0.7139
19533TIP3    H280015   1.339   5.671  14.257 -1.5383 -0.5294  0.6777
19534TIP3   OH280016   5.294   1.502   1.442  0.0364  0.5451 -0.4964
19534TIP3    H180017   5.223   1.566   1.445  1.0054  1.6309 -0.2602
19534TIP3    H280018   5.356   1.533   1.508 -0.7870 -2.2256  1.6730
19535TIP3   OH280019   3.712   5.788   1.440  0.3999  0.9263 -0.0399
19535TIP3    H180020   3.664   5.715   1.402  0.5717  2.6550 -3.8197
19535TIP3    H280021   3.778   5.746   1.496 -1.1291 -1.6922 -0.1036
19536TIP3   OH280022   0.841   4.457   2.183  0.4876 -0.1969 -0.0716
19536TIP3    H180023   0.815   4.537   2.137  0.1036 -0.2585  0.0310
19536TIP3    H280024   0.895   4.410   2.120 -0.1292 -0.3347 -0.5091
19537TIP3   OH280025   3.590   5.434  16.117 -0.1554  0.6225  0.0470
19537TIP3    H180026   3.561   5.350  16.082 -0.1922  0.6946 -0.0932
19537TIP3    H280027   3.510   5.479  16.142 -0.2460  1.2809 -1.3693
19538TIP3   OH280028   3.046   1.977  14.199  0.3890  0.1733 -0.0161
19538TIP3    H180029   3.095   1.946  14.275  2.9589  1.5260 -1.0693
19538TIP3    H280030   2.968   2.019  14.236  1.7477  1.0604  1.8858
19539TIP3   OH280031   6.385   2.973   1.386  0.9031  0.1089  0.2589
19539TIP3    H180032   6.460   2.973   1.445  1.6337 -2.0264 -0.6465
19539TIP3    H280033   6.324   3.036   1.425  2.3097  0.3810  2.0696
19540TIP3   OH280034   3.207   1.154  10.900 -0.4497  0.4124  0.1030
19540TIP3    H180035   3.139   1.087  10.890 -1.2655  0.7281  2.8843
19540TIP3    H280036   3.289   1.107  10.885 -0.9807 -1.3782  2.4203
19541TIP3   OH280037   2.091   6.027  13.939 -0.7634  0.5495 -0.3876
19541TIP3    H180038   2.036   5.949  13.924 -0.5163  0.2949  0.0220
19541TIP3    H280039   2.114   6.022  14.031  0.8143  0.1012 -0.8009
19542TIP3   OH280040   3.875   4.539   4.166 -0.0869 -0.3878  0.1955
19542TIP3    H180041   3.828   4.575   4.091  0.0143  0.7420  0.6683
19542TIP3    H280042   3.827   4.569   4.242  1.1909  0.4939  0.6756
19543TIP3   OH280043   5.011   4.231   1.811 -0.2308 -0.1199 -0.6958
19543TIP3    H180044   4.971   4.258   1.728 -1.4899 -2.5416 -0.9271
19543TIP3    H280045   5.075   4.164   1.785  0.5588  0.3083  0.1399
19544TIP3   OH280046   5.915   3.309   2.709  0.0332  0.3969 -0.3340
19544TIP3    H180047   5.959   3.227   2.731 -0.2277  0.1768 -0.6276
19544TIP3    H280048   5.846   3.318   2.774  0.2611  0.5404 -0.1136
19545TIP3   OH280049   0.803   6.393  13.960  0.1597  0.7547 -0.4854
19545TIP3    H180050   0.851   6.314  13.936 -0.8518  0.6601 -2.2711
19545TIP3    H280051   0.861   6.465  13.933 -0.1642  0.6369 -1.4991
19546TIP3   OH280052   0.331   3.385  10.896  0.1673 -0.4466 -0.2783
19546TIP3    H180053   0.423   3.375  10.919  0.2819 -1.0083 -0.9518
19546TIP3    H280054   0.330   3.385  10.800 -0.7844 -3.2208 -0.3332
19547TIP3   OH280055   5.687   2.414  12.670  0.0365  0.1205  0.2790
19547TIP3    H180056   5.617   2.457  12.718 -1.0787 -2.5576  1.1534
19547TIP3    H280057   5.751   2.390  12.737  0.5614  0.2579 -0.1698
19548TIP3   OH280058   3.542   0.423   1.283  0.2660  0.3365 -0.6558
19548TIP3    H180059   3.630   0.419   1.246 -0.5618 -0.8127 -2.5384
19548TIP3    H280060   3.538   0.347   1.342  0.7264  0.7503 -0.0751
19549TIP3   OH280061   6.024   6.598   4.282  0.0198 -0.3301  0.3205
19549TIP3    H180062   6.026   6.646   4.200 -0.5056 -0.4602  0.2278
19549TIP3    H280063   5.959   6.529   4.267 -0.0209 -0.3985  0.8183
19550TIP3   OH280064   0.383   3.767   1.005  0.5311 -0.2061  0.0177
19550TIP3    H180065   0.427   3.807   0.929  0.9744 -1.6673 -0.5149
19550TIP3    H280066   0.403   3.674   0.997  0.0821 -0.4420  1.6223
19551TIP3   OH280067   6.733   4.457  15.537  0.0670  0.1110  0.1918
19551TIP3    H180068   6.826   4.447  15.553  0.3911  0.2923 -1.4328
19551TIP3    H280069   6.696   4.370  15.552  0.1843  0.4711  2.6830
19552TIP3   OH280070   1.168   5.673  12.175  0.3096 -0.0041 -0.0603
19552TIP3    H180071   1.212   5.757  12.164  1.9127 -0.7091  0.9095
19552TIP3    H280072   1.198   5.620  12.101 -0.2926  0.0863 -0.3777
19553TIP3   OH280073   4.793   3.037   4.545  0.5577 -0.3174  0.3522
19553TIP3    H180074   4.843   2.958   4.566 -1.4621 -1.5242  0.7328
19553TIP3    H280075   4.816   3.056   4.454  1.3618 -1.1137  0.3777
19554TIP3   OH280076   4.850   6.244  12.705  0.6099  0.3157  0.0135
19554TIP3    H180077   4.814   6.235  12.794  0.3260  0.8671 -0.0407
19554TIP3    H280078   4.932   6.291  12.717  0.1419  1.1771 -0.0976
19555TIP3   OH280079   6.666   6.089   4.456 -0.4654 -0.2183  0.4198
19555TIP3    H180080   6.688   6.018   4.517  1.1984 -2.3675 -2.5209
19555TIP3    H280081   6.584   6.062   4.417 -0.3475 -0.0053  0.0312
19556TIP3   OH280082   6.319   1.328  16.546 -0.0963  0.0616  0.3201
19556TIP3    H180083   6.381   1.318  16.473  0.3439  0.8210  0.5875
19556TIP3    H280084   6.325   1.245  16.593  0.3804 -0.0457  0.0846
19557TIP3   OH280085   6.677   6.766  15.086 -0.0448  0.4651 -0.2094
19557TIP3    H180086   6.699   6.682  15.045 -0.8761  0.5663 -0.8805
19557TIP3    H280087   6.761   6.811  15.094 -0.0637  1.2380 -3.6061
19558TIP3   OH280088   0.931   0.198   6.367  1.0525  0.7993 -0.4316
19558TIP3    H180089   0.898   0.280   6.329 -1.7882  0.2982  0.7921
19558TIP3    H280090   0.965   0.223   6.452  0.9685  0.8211 -0.4056
19559TIP3   OH280091   4.187   2.980  16.901 -0.6735 -0.2119 -0.1874
19559TIP3    H180092   4.228   3.025  16.975  1.7263  0.2844 -1.7515
19559TIP3    H280093   4.256   2.976  16.834 -2.7394 -0.7498 -2.3562
19560TIP3   OH280094   6.471   5.761   0.806  0.0112  0.3700  0.5698
19560TIP3    H180095   6.446   5.675   0.771 -2.8191  0.9917  0.9540
19560TIP3    H280096   6.542   5.742   0.867  2.2690 -1.2037 -2.3634
19561TIP3   OH280097   4.471   3.866   5.349  0.0204  0.2074  0.3690
19561TIP3    H180098   4.503   3.947   5.310  1.6058 -1.1013 -1.1216
19561TIP3    H280099   4.539   3.840   5.411  0.3789 -0.8936 -0.4604
19562TIP3   OH280100   2.516   6.694  15.492 -0.5810 -0.2099  0.2111
19562TIP3    H180101   2.597   6.644  15.496  0.2066  0.5344 -3.6973
19562TIP3    H280102   2.453   6.634  15.453 -0.5620  0.7178 -1.2780
19563TIP3   OH280103   5.894   2.012  15.016 -0.4946  0.1674  0.0444
19563TIP3    H180104   5.880   2.033  15.108 -0.0058  2.0716 -0.2841
19563TIP3    H280105   5.970   1.953  15.015 -0.5445  0.0946  0.8683
19564TIP3   OH280106   1.016   0.942   3.433 -0.3217 -0.1274 -0.1197
19564TIP3    H180107   1.040   1.031   3.457  0.6610 -0.3227 -0.3373
19564TIP3    H280108   0.930   0.928   3.472 -0.7833  1.1476 -0.6544
19565TIP3   OH280109   0.279   0.423  13.337  0.0017 -0.3738  0.1834
19565TIP3    H180110   0.221   0.380  13.401 -0.9159  1.9622  0.9634
19565TIP3    H280111   0.222   0.481  13.288  1.3805  0.6939 -0.1941
19566TIP3   OH280112   4.501   5.029   3.558 -0.4031  0.1136  0.2673
19566TIP3    H180113   4.593   5.048   3.541  0.2875 -1.8758  1.5787
19566TIP3    H280114   4.459   5.036   3.472  1.2051 -0.1749 -0.5727
19567TIP3   OH280115   2.549   4.424   4.082  0.1426 -0.0548  0.5019
19567TIP3    H180116   2.606   4.354   4.051  0.5288  1.0517 -1.3491
19567TIP3    H280117   2.604   4.476   4.140  1.0786  1.0388 -1.3218
19568TIP3   OH280118   5.226   2.095   0.522  0.4739  0.1274  0.1624
19568TIP3    H180119   5.319   2.095   0.497  1.0238 -1.1288  2.1125
19568TIP3    H280120   5.194   2.010   0.491  0.2426  0.0960  0.4952
19569TIP3   OH280121   5.443   5.787   3.099  0.5821 -0.1357 -0.1333
19569TIP3    H180122   5.455   5.693   3.112 -0.5467 -0.1695  0.6678
19569TIP3    H280123   5.532   5.821   3.094  1.0020 -1.1509  0.2228
19570TIP3   OH280124   2.364   1.360  10.275  0.3170  0.0162 -0.0803
19570TIP3    H180125   2.367   1.278  10.325  4.2762  0.2602  0.2514
19570TIP3    H280126   2.312   1.419  10.329  0.5491 -1.1585  1.4720
19571TIP3   OH280127   4.074   1.311  14.139 -0.7466 -0.3220  0.3975
19571TIP3    H180128   4.106   1.399  14.158 -1.2260 -0.3103  1.1556
19571TIP3    H280129   4.080   1.304  14.044  1.3610 -0.2703  0.4916
19572TIP3   OH280130   1.450   5.217  13.234 -0.2427  0.2016 -0.1577
19572TIP3    H180131   1.411   5.301  13.259  1.0269  0.4802  0.9873
19572TIP3    H280132   1.519   5.239  13.173 -0.1791 -0.0487 -0.1775
19573TIP3   OH280133   2.530   3.787   3.500  0.1232 -0.1003  0.2926
19573TIP3    H180134   2.458   3.814   3.443  0.8602  1.0566 -0.1167
19573TIP3    H280135   2.605   3.781   3.441  0.5160 -0.5925  0.8435
19574TIP3   OH280136   5.882   5.825   4.025  0.4553  0.1365  0.0470
19574TIP3    H180137   5.827   5.828   4.104  0.2941  1.1450 -0.0997
19574TIP3    H280138   5.828   5.780   3.960  0.6505 -0.8560  0.5510
19575TIP3   OH280139   5.171   1.464  15.859  1.1760 -0.3813 -0.4147
19575TIP3    H180140   5.259   1.499  15.872  0.5723  0.2908  2.0076
19575TIP3    H280141   5.143   1.435  15.946 -1.4611  0.5277 -0.9170
19576TIP3   OH280142   3.730   6.160   5.806  0.5900  0.2442 -0.3237
19576TIP3    H180143   3.721   6.116   5.891 -1.6256  2.7917  0.8546
19576TIP3    H280144   3.672   6.111   5.748 -0.7164  0.6625  0.6004
19577TIP3   OH280145   3.914   3.151  16.280 -0.0839  0.2177  0.0961
19577TIP3    H180146   3.863   3.074  16.305 -0.1941  1.2267  3.2021
19577TIP3    H280147   3.884   3.172  16.192 -3.2213 -0.6768  0.8823
19578TIP3   OH280148   1.700   3.827   0.307  0.0864 -0.2294  0.0982
19578TIP3    H180149   1.642   3.864   0.240 -1.2729 -1.9103  0.3253
19578TIP3    H280150   1.785   3.821   0.264 -0.3356  0.4582 -0.8583
19579TIP3   OH280151   1.936   1.978   0.350  0.2485  0.7395 -0.5046
19579TIP3    H180152   2.012   1.938   0.307 -0.6769 -2.0891  0.3507
19579TIP3    H280153   1.879   1.904   0.371 -1.4454  2.5232  1.4304
19580TIP3   OH280154   5.783   4.533   5.117 -0.3397 -0.3630 -0.5089
19580TIP3    H180155   5.721   4.513   5.187 -1.1776  1.0055 -0.8411
19580TIP3    H280156   5.854   4.580   5.161 -0.7334  0.2543 -0.5279
19581TIP3   OH280157   4.840   4.381   4.967 -0.2275  0.5702 -0.4253
19581TIP3    H180158   4.817   4.401   5.058  2.7281  0.8690  0.3008
19581TIP3    H280159   4.925   4.338   4.973 -0.3690 -0.1234 -3.0063
19582TIP3   OH280160   1.579   0.521   3.474  0.6606 -0.1350  0.2655
19582TIP3    H180161   1.584   0.471   3.556  1.8367  0.5285  0.6114
19582TIP3    H280162   1.639   0.476   3.415  3.6032  2.1912  1.3300
19583TIP3   OH280163   0.159   4.937   3.252  0.1047  0.0784  0.4598
19583TIP3    H180164   0.104   4.966   3.325 -0.0191  0.1467  0.3416
19583TIP3    H280165   0.215   5.012   3.233  0.8653 -0.3068  1.1678
19584TIP3   OH280166   5.745   6.304  12.635  0.5732 -0.0713  0.0886
19584TIP3    H180167   5.667   6.250  12.651 -1.9687  2.7337 -2.2816
19584TIP3    H280168   5.791   6.260  12.563 -0.1604 -0.3796 -0.1971
19585TIP3   OH280169   3.632   4.464   3.079  0.3969 -0.0224  1.1754
19585TIP3    H180170   3.618   4.460   2.984 -1.4540  2.7171  1.2844
19585TIP3    H280171   3.693   4.537   3.091 -0.3851  0.4748  2.1669
19586TIP3   OH280172   0.253   5.429   1.301  0.1424 -0.3967 -0.2110
19586TIP3    H180173   0.239   5.354   1.243  1.0650 -1.1394  0.4948
19586TIP3    H280174   0.235   5.506   1.247 -0.7114 -1.1297 -0.9717
19587TIP3   OH280175   1.542   1.250   6.047 -0.4508  0.1242  0.0402
19587TIP3    H180176   1.527   1.265   5.953  0.9646  1.4313  0.0075
19587TIP3    H280177   1.465   1.289   6.089  0.9834  3.5243 -0.3422
19588TIP3   OH280178   0.641   5.634  12.345 -0.1268  0.4923  0.6101
19588TIP3    H180179   0.637   5.539  12.349 -0.6227  0.4906  0.0904
19588TIP3    H280180   0.733   5.654  12.328 -0.5762 -0.0344 -2.8106
19589TIP3   OH280181   5.004   6.783  14.825  0.3311  0.5597 -0.0789
19589TIP3    H180182   4.987   6.689  14.821 -2.0316  0.8762  1.7372
19589TIP3    H280183   4.929   6.823  14.781 -1.0974  1.7795  3.3519
19590TIP3   OH280184   2.447   5.182   0.026 -0.0153  0.4031  0.4727
19590TIP3    H180185   2.414   5.261  -0.016 -0.1920  0.0544 -0.0633
19590TIP3    H280186   2.418   5.111  -0.032  0.3650 -0.0270  0.8072
19591TIP3   OH280187   4.810   5.797  12.299 -0.1756 -0.3122 -0.0173
19591TIP3    H180188   4.865   5.769  12.371 -0.3921 -0.6059  0.0346
19591TIP3    H280189   4.845   5.751  12.222 -0.6300 -0.8503  0.0943
19592TIP3   OH280190   6.371   4.863  12.618  0.0165  0.0956 -0.1951
19592TIP3    H180191   6.419   4.945  12.632  1.2766 -0.7141  0.3362
19592TIP3    H280192   6.328   4.875  12.533  0.5622  1.1331 -0.3329
19593TIP3   OH280193   1.633   3.680   6.362 -0.4140 -0.1317 -0.2206
19593TIP3    H180194   1.655   3.668   6.269 -0.7594 -1.1850 -0.1714
19593TIP3    H280195   1.655   3.596   6.402 -0.0585  0.3929  0.7004
19594TIP3   OH280196   6.485   1.656  11.805 -0.0987  0.1485 -0.8781
19594TIP3    H180197   6.569   1.701  11.813  0.3465 -0.6581 -0.9379
19594TIP3    H280198   6.507   1.563  11.812 -0.8839 -0.1100 -1.7369
19595TIP3   OH280199   5.433   1.162   1.144  0.1742  0.1365  0.4997
19595TIP3    H180200   5.488   1.181   1.068  0.3775  0.8560  0.8147
19595TIP3    H280201   5.361   1.224   1.138  0.5483  0.6690  1.2433
19596TIP3   OH280202   0.896   5.616   2.698  0.6141  0.2214 -0.1745
19596TIP3    H180203   0.981   5.655   2.719  0.8972 -0.5154  0.0943
19596TIP3    H280204   0.897   5.606   2.603  0.7305  0.4532 -0.1972
19597TIP3   OH280205   1.724   0.308   0.015  0.1441 -0.4014 -0.0034
19597TIP3    H180206   1.775   0.358   0.078 -0.9181 -0.9024  1.2764
19597TIP3    H280207   1.679   0.242   0.067  0.0446 -1.4750 -1.4231
19598TIP3   OH280208   6.503   6.558   5.175 -0.2137  0.8785  0.1345
19598TIP3    H180209   6.484   6.464   5.169 -0.0401  0.8624 -0.1365
19598TIP3    H280210   6.473   6.594   5.092  0.1179  0.9966  0.0681
19599TIP3   OH280211   6.769   3.049  17.080 -0.2923  0.2099 -0.1161
19599TIP3    H180212   6.747   3.104  17.155 -0.1969 -1.2268  0.9864
19599TIP3    H280213   6.865   3.042  17.083 -0.3719 -0.7538  0.2836
19600TIP3   OH280214   3.216   6.079   2.159  0.3939  0.1145 -0.4822
19600TIP3    H180215   3.274   6.047   2.090  1.8497 -1.9242  1.5964
19600TIP3    H280216   3.215   6.009   2.224 -1.2746  1.7877  1.3887
19601TIP3   OH280217   2.241   1.319  12.972  0.1532 -0.0495 -0.2552
19601TIP3    H180218   2.252   1.394  13.031  1.3989 -0.8781  0.6087
19601TIP3    H280219   2.148   1.299  12.976 -0.6912  3.0406 -2.5077
19602TIP3   OH280220   4.936   0.350  11.893  0.3623  0.7889 -0.2207
19602TIP3    H180221   4.987   0.334  11.813 -0.4436 -0.8843 -0.4203
19602TIP3    H280222   4.996   0.329  11.965  0.3125 -0.1291 -0.4385
19603TIP3   OH280223   0.677   2.249  16.474 -0.3058  0.0465  0.1606
19603TIP3    H180224   0.591   2.275  16.508 -0.8882 -0.1154 -1.1640
19603TIP3    H280225   0.683   2.291  16.388  0.4470 -0.8898 -0.2571
19604TIP3   OH280226   5.506   2.681  14.212  0.3375 -0.2717 -0.5494
19604TIP3    H180227   5.518   2.682  14.117  0.0532  0.6762 -0.5811
19604TIP3    H280228   5.414   2.658  14.224  0.1378  0.4899 -0.5419
19605TIP3   OH280229   3.270   0.972   3.882  0.2907  0.5380  0.1227
19605TIP3    H180230   3.356   0.946   3.916  0.6276  1.3027 -0.1479
19605TIP3    H280231   3.289   1.031   3.809 -0.4437 -0.3312 -0.7910
19606TIP3   OH280232   4.805   3.052  10.580  0.2058  0.1605  0.5133
19606TIP3    H180233   4.791   3.115  10.509  0.9964 -0.3891 -0.1463
19606TIP3    H280234   4.859   3.099  10.644 -0.7378  0.7490  0.8980
19607TIP3   OH280235   3.508   0.345  12.855  0.6330  0.0473  0.3703
19607TIP3    H180236   3.574   0.311  12.795  1.2121  0.1758  0.9312
19607TIP3    H280237   3.454   0.269  12.876  0.3136  0.0380 -0.4469
19608TIP3   OH280238   6.422   6.651   5.908  0.0143  0.2256 -0.4381
19608TIP3    H180239   6.337   6.653   5.864 -0.2718  0.5496  0.1171
19608TIP3    H280240   6.402   6.620   5.997  0.3407  1.2093 -0.0141
19609TIP3   OH280241   5.288   3.024   1.146 -0.0664 -0.0808 -0.0260
19609TIP3    H180242   5.213   2.966   1.133 -0.3363 -0.0317  1.2376
19609TIP3    H280243   5.254   3.112   1.127  0.0163 -0.1874 -0.7016
19610TIP3   OH280244   2.760   1.475   4.235  0.5525  0.0275  0.3351
19610TIP3    H180245   2.840   1.525   4.252  0.4416  0.3023  0.0510
19610TIP3    H280246   2.689   1.539   4.245  0.1948 -0.6528  2.6758
19611TIP3   OH280247   1.591   1.412  16.869  0.2352 -0.0298 -0.3548
19611TIP3    H180248   1.684   1.431  16.856 -0.2183  0.8638 -2.2897
19611TIP3    H280249   1.547   1.495  16.857 -1.0070 -0.8176 -1.3286
19612TIP3   OH280250   5.376   2.206  13.126 -0.5127 -0.2110 -0.7212
19612TIP3    H180251   5.419   2.141  13.183 -0.2230 -0.4241 -1.1849
19612TIP3    H280252   5.378   2.286  13.178 -1.4972 -0.7269  0.1461
19613TIP3   OH280253   2.949   0.526  16.583 -0.1105  0.4906 -0.0688
19613TIP3    H180254   2.982   0.468  16.514 -0.4123 -0.0229  0.2158
19613TIP3    H280255   2.954   0.473  16.663 -1.0996  0.5964  0.0692
19614TIP3   OH280256   6.029   0.850  10.869  0.5322  0.8946 -0.2674
19614TIP3    H180257   6.118   0.817  10.857  0.9033  1.3232  1.1688
19614TIP3    H280258   6.039   0.924  10.929 -0.6723  1.5783 -0.9007
19615TIP3   OH280259   2.179   1.421  12.665 -0.3691 -0.5347 -0.3367
19615TIP3    H180260   2.199   1.332  12.638 -0.3758 -0.8768  0.7496
19615TIP3    H280261   2.087   1.418  12.690 -0.4301 -0.1721 -0.5151
19616TIP3   OH280262   1.835   1.170   5.572 -0.2683  0.1587 -0.5282
19616TIP3    H180263   1.772   1.232   5.534 -0.1709  0.6471  0.1037
19616TIP3    H280264   1.849   1.105   5.503 -0.4520  0.7851 -1.1617
19617TIP3   OH280265   4.951   4.497   4.351 -0.2248  0.1361 -0.1432
19617TIP3    H180266   5.044   4.486   4.367 -0.4449  0.8205  1.7707
19617TIP3    H280267   4.946   4.562   4.281  0.7212  1.8209  1.2975
19618TIP3   OH280268   2.187   3.770  15.657  0.3418 -0.3261  0.0330
19618TIP3    H180269   2.217   3.836  15.720  1.5161  1.7080 -2.5500
19618TIP3    H280270   2.248   3.697  15.667 -0.3408 -0.6346  2.2047
19619TIP3   OH280271   4.816   1.697   6.368  0.1434 -0.0434 -0.0142
19619TIP3    H180272   4.897   1.682   6.417  1.1287  1.8139 -1.0342
19619TIP3    H280273   4.799   1.790   6.379 -0.1406  0.2090 -2.4100
19620TIP3   OH280274   0.198   1.636   3.915  0.9116  0.3632 -0.4721
19620TIP3    H180275   0.119   1.624   3.967  1.1305  0.9065 -0.0111
19620TIP3    H280276   0.167   1.668   3.830  0.4345 -1.9413 -1.1998
19621TIP3   OH280277   5.262   4.651  10.665  0.3966  0.3558 -0.3764
19621TIP3    H180278   5.194   4.626  10.603  0.3406  0.5021 -0.3746
19621TIP3    H280279   5.276   4.573  10.719 -1.1782  0.9381  0.9228
19622TIP3   OH280280   3.496   2.364  14.282 -0.2061 -0.2782  0.2984
19622TIP3    H180281   3.408   2.366  14.244 -0.4163 -0.6708  0.7599
19622TIP3    H280282   3.529   2.276  14.262  0.1950 -0.0346 -0.1248
19623TIP3   OH280283   3.053   3.134   2.447 -0.5582 -0.4415  0.7166
19623TIP3    H180284   3.065   3.210   2.390 -0.4549 -0.7351  0.3497
19623TIP3    H280285   2.959   3.116   2.443 -0.4970 -0.6762  0.3699
19624TIP3   OH280286   4.908   1.961   2.956 -0.2691 -0.4396  0.1243
19624TIP3    H180287   4.977   1.990   3.015 -0.1865  0.9784 -0.6422
19624TIP3    H280288   4.833   2.016   2.978 -0.9493 -1.5112  0.4968
19625TIP3   OH280289   4.483   3.704   2.573 -0.1597  0.7647  0.1646
19625TIP3    H180290   4.568   3.661   2.577  0.6197  2.0069 -1.8878
19625TIP3    H280291   4.485   3.768   2.644 -0.2547 -0.7140  1.5070
19626TIP3   OH280292   4.132   2.683  15.419 -0.2040  0.3874 -0.2073
19626TIP3    H180293   4.135   2.744  15.345  1.7614 -1.4436 -1.6954
19626TIP3    H280294   4.075   2.726  15.482  0.5717  3.4585 -1.4737
19627TIP3   OH280295   3.058   2.812  12.095  0.3544 -0.1050  0.4207
19627TIP3    H180296   2.974   2.850  12.120  0.4910 -0.8970  2.1018
19627TIP3    H280297   3.040   2.719  12.085  0.5859  0.0063 -1.2508
19628TIP3   OH280298   4.747   3.714   3.306 -0.2999 -0.1603  0.3211
19628TIP3    H180299   4.754   3.651   3.378 -0.0214  0.8362  1.1820
19628TIP3    H280300   4.770   3.799   3.346 -2.5014  0.7950 -0.3454
19629TIP3   OH280301   5.959   5.946  10.785 -0.6599  0.0586 -0.4727
19629TIP3    H180302   5.937   5.927  10.694  2.3468 -0.1329 -1.2164
19629TIP3    H280303   5.904   6.021  10.808 -2.1574 -0.4966 -2.1114
19630TIP3   OH280304   4.843   6.103  12.977 -0.2468  0.3938 -1.3897
19630TIP3    H180305   4.762   6.127  13.022 -0.0994  1.3959 -1.6390
19630TIP3    H280306   4.834   6.010  12.959 -2.1439  0.8588 -3.0174
19631TIP3   OH280307   2.393   0.098  12.923 -0.0876  0.2213 -0.0230
19631TIP3    H180308   2.359   0.186  12.909 -0.7067 -0.0505 -0.2432
19631TIP3    H280309   2.423   0.069  12.837  1.4084  0.7490  0.3098
19632TIP3   OH280310   3.856   0.026   6.350 -0.3476 -0.1708 -0.1497
19632TIP3    H180311   3.879  -0.058   6.391 -0.0710 -0.0416 -0.0429
19632TIP3    H280312   3.939   0.064   6.323 -0.3098  0.9049  1.4171
19633TIP3   OH280313   4.383   4.855  13.162 -0.2949  0.3181  0.0506
19633TIP3    H180314   4.298   4.878  13.124 -1.2126 -2.4959  0.3002
19633TIP3    H280315   4.401   4.767  13.129  3.1816  1.3727 -1.0727
19634TIP3   OH280316   3.438   3.265  16.671  0.6403 -0.5001  0.4506
19634TIP3    H180317   3.343   3.253  16.675  0.0096  1.6611 -4.2018
19634TIP3    H280318   3.461   3.307  16.754 -2.9241  1.2874  0.6403
19635TIP3   OH280319   6.289   4.745  15.127 -0.0383  0.0571 -0.1609
19635TIP3    H180320   6.289   4.800  15.049  1.4379  1.0696  0.5458
19635TIP3    H280321   6.332   4.664  15.098 -1.7482 -0.5549 -1.0556
19636TIP3   OH280322   3.322   2.059  11.010  0.2622 -0.2002  0.0749
19636TIP3    H180323   3.403   2.096  11.046 -1.3551  1.4298  2.1469
19636TIP3    H280324   3.314   2.097  10.923  0.6057  1.3328  0.7067
19637TIP3   OH280325   3.924   1.616   4.993 -0.1040  0.3836  0.3279
19637TIP3    H180326   3.863   1.688   4.984  1.1349  1.4678  0.3678
19637TIP3    H280327   3.871   1.537   4.981 -1.0934  1.3454 -1.8548
19638TIP3   OH280328   2.422   3.732   3.050 -0.3399  0.1879  0.3196
19638TIP3    H180329   2.340   3.762   3.089 -0.9738 -1.2335  0.0976
19638TIP3    H280330   2.481   3.721   3.124 -0.8306 -0.2713  0.6502
19639TIP3   OH280331   1.721   4.733  12.712  0.7668  0.1767  0.1391
19639TIP3    H180332   1.781   4.756  12.784  0.5791 -0.5348  0.5293
19639TIP3    H280333   1.634   4.750  12.748  0.4548 -3.6124  1.4013
19640TIP3   OH280334   0.244   1.371  13.705 -0.2265 -0.4152  0.1121
19640TIP3    H180335   0.150   1.382  13.693  0.0948 -0.8382 -3.0303
19640TIP3    H280336   0.281   1.457  13.683  0.3171 -0.9758 -1.1835
19641TIP3   OH280337   1.986   3.348   3.837 -0.2854  0.6563  0.3623
19641TIP3    H180338   1.941   3.427   3.807  0.2635  0.3828 -1.2730
19641TIP3    H280339   2.037   3.376   3.913 -0.6018  1.7212  0.1891
19642TIP3   OH280340   4.433   5.235  13.979 -0.2730  0.4411 -0.0098
19642TIP3    H180341   4.358   5.285  13.947 -0.7662  0.9204  1.8255
19642TIP3    H280342   4.467   5.190  13.902 -2.7728 -0.2095 -0.7707
19643TIP3   OH280343   2.902   3.013   6.154  0.1404  0.1521  0.2678
19643TIP3    H180344   2.838   3.051   6.093 -0.0588 -0.4534  0.0955
19643TIP3    H280345   2.871   2.924   6.169  1.1179 -0.2565 -0.0715
19644TIP3   OH280346   1.342   5.254  15.040  0.2253 -0.1757 -0.1073
19644TIP3    H180347   1.285   5.234  15.114  1.0247 -2.1001 -0.0079
19644TIP3    H280348   1.400   5.323  15.072 -0.6810  0.3468  0.4307
19645TIP3   OH280349   1.170   2.147  17.098  0.6992  0.4729 -0.2891
19645TIP3    H180350   1.164   2.052  17.102 -0.2996  0.5721  0.7395
19645TIP3    H280351   1.246   2.164  17.042  1.1500 -0.9274 -0.1113
19646TIP3   OH280352   2.493   3.490   6.346 -0.6616 -0.1259  0.5012
19646TIP3    H180353   2.467   3.563   6.289  1.3381 -0.0619 -0.3793
19646TIP3    H280354   2.583   3.509   6.370 -0.1767 -2.1782  0.4565
19647TIP3   OH280355   4.211   6.623  12.938  0.2103 -0.2917 -0.4132
19647TIP3    H180356   4.169   6.550  12.895  0.4956 -0.9156  0.3509
19647TIP3    H280357   4.159   6.639  13.016  0.2525  0.2067 -0.4816
19648TIP3   OH280358   5.770   3.064   4.318 -0.6925  0.4376  0.4866
19648TIP3    H180359   5.772   3.158   4.301 -0.2851  0.2958 -0.2880
19648TIP3    H280360   5.686   3.049   4.360 -0.6095  1.2019  0.9491
19649TIP3   OH280361   3.581   0.176   2.349 -0.4244 -0.6101 -0.6142
19649TIP3    H180362   3.631   0.242   2.397 -2.9181 -0.5315  2.0012
19649TIP3    H280363   3.594   0.198   2.257  0.9591  1.8758  0.1327
19650TIP3   OH280364   2.348   6.574   1.582 -0.3075  0.1483 -0.5633
19650TIP3    H180365   2.302   6.615   1.509 -1.6337 -2.7830 -1.4225
19650TIP3    H280366   2.416   6.521   1.541 -0.6674 -1.0285  0.3312
19651TIP3   OH280367   3.484   6.032   5.168 -0.4513  0.1752  0.4419
19651TIP3    H180368   3.534   5.950   5.171 -1.2724 -0.4653 -1.6900
19651TIP3    H280369   3.550   6.101   5.169  0.3182 -0.5604  0.8059
19652TIP3   OH280370   2.517   3.281  12.033  0.8497  0.1892  0.3904
19652TIP3    H180371   2.579   3.270  12.105  2.1582  1.2137 -0.5489
19652TIP3    H280372   2.523   3.200  11.982  1.2320  0.1814  0.4477
19653TIP3   OH280373   5.128   6.768   0.910  0.4244 -0.7187 -0.1126
19653TIP3    H180374   5.087   6.709   0.973 -0.3868 -1.4661 -1.3268
19653TIP3    H280375   5.150   6.712   0.836  0.9736  0.2324 -0.6714
19654TIP3   OH280376   0.478   3.413  14.766 -0.1280 -0.0614 -0.0061
19654TIP3    H180377   0.475   3.483  14.832  0.7504  2.1118 -2.1752
19654TIP3    H280378   0.387   3.404  14.737  0.1270  2.2112 -1.6843
19655TIP3   OH280379   3.203   3.613   2.682 -0.6071  0.1565 -0.5239
19655TIP3    H180380   3.136   3.658   2.732  1.9946  1.4062  1.9266
19655TIP3    H280381   3.238   3.679   2.623  2.5758  1.2523  2.4344
19656TIP3   OH280382   0.632   0.125   6.177 -0.1385  0.6632  0.3165
19656TIP3    H180383   0.592   0.090   6.257 -2.6214  0.0983 -1.1263
19656TIP3    H280384   0.558   0.161   6.128  1.4283  1.4059 -1.5286
19657TIP3   OH280385   2.032   5.402   4.142  0.3596  0.0588 -0.3646
19657TIP3    H180386   2.014   5.322   4.093 -1.1213  0.6153 -0.7539
19657TIP3    H280387   2.099   5.447   4.091  2.5982 -1.7765  0.8108
19658TIP3   OH280388   6.136   6.275  13.129 -0.8606  0.0234  0.0970
19658TIP3    H180389   6.162   6.229  13.208  1.8839 -3.5318 -2.6841
19658TIP3    H280390   6.197   6.349  13.123  0.6807 -1.2307 -0.0165
19659TIP3   OH280391   1.182   1.732  12.063 -0.3674 -0.4459  0.2986
19659TIP3    H180392   1.224   1.647  12.067  1.2942  0.4263  2.8815
19659TIP3    H280393   1.139   1.741  12.149  0.0757  1.5868  0.3308
19660TIP3   OH280394   1.862   3.888   4.367  0.7457 -0.0591 -0.0273
19660TIP3    H180395   1.932   3.839   4.411  0.5884  1.2793  1.7516
19660TIP3    H280396   1.907   3.960   4.323  0.4717  0.9490  1.3268
19661TIP3   OH280397   0.816   3.976  14.044 -0.3121  0.5452 -0.0355
19661TIP3    H180398   0.739   3.921  14.032 -0.0927 -0.4121  2.6633
19661TIP3    H280399   0.782   4.055  14.087  0.2234  0.0227  1.3700
19662TIP3   OH280400   5.885   3.355  15.064  0.7170  0.0022  0.0130
19662TIP3    H180401   5.938   3.434  15.072  0.0092  0.6495 -1.5897
19662TIP3    H280402   5.847   3.359  14.976 -1.4977 -0.7553  0.8851
19663TIP3   OH280403   4.512   3.152   4.173  0.3779 -0.2716 -0.0371
19663TIP3    H180404   4.480   3.065   4.196 -2.3662  0.6022 -0.2875
19663TIP3    H280405   4.532   3.193   4.257  4.1217 -1.9372 -0.0167
19664TIP3   OH280406   5.140   2.649  14.879  0.2004 -0.3332  0.2487
19664TIP3    H180407   5.070   2.700  14.838 -1.5909 -2.9473 -0.0188
19664TIP3    H280408   5.185   2.606  14.807  1.1012  0.0824  0.5509
19665TIP3   OH280409   0.197   6.465   4.460 -0.1893 -0.1721  0.2075
19665TIP3    H180410   0.178   6.375   4.434  0.0999 -1.1052  3.0248
19665TIP3    H280411   0.111   6.503   4.480 -0.1925 -0.2927  0.4247
19666TIP3   OH280412   6.182   3.854   3.397 -0.7357  0.0270 -0.1652
19666TIP3    H180413   6.101   3.895   3.365 -1.3825 -0.2302  1.1291
19666TIP3    H280414   6.210   3.910   3.470 -0.4210 -0.6038  0.1958
19667TIP3   OH280415   4.298   3.651  13.095 -0.2735 -0.8110  0.0919
19667TIP3    H180416   4.229   3.662  13.030 -0.3304  0.5353  0.3757
19667TIP3    H280417   4.252   3.644  13.178 -0.1408 -1.5483  0.1116
19668TIP3   OH280418   5.933   0.136  16.196  0.4619 -0.0188 -0.5457
19668TIP3    H180419   5.840   0.160  16.189  0.3154 -0.3228  0.2350
19668TIP3    H280420   5.931   0.046  16.229  1.0270 -0.3165 -1.3319
19669TIP3   OH280421   1.085   1.301   0.366 -0.1127  0.1385  0.2193
19669TIP3    H180422   1.004   1.284   0.414 -0.2555  0.2096  0.0049
19669TIP3    H280423   1.056   1.316   0.276  0.2380 -0.8753 -0.0654
19670TIP3   OH280424   6.063   3.404   5.019 -0.7556 -0.5063 -0.0172
19670TIP3    H180425   6.116   3.483   5.023 -0.2902 -0.8490  0.6478
19670TIP3    H280426   6.010   3.406   5.098 -2.3774  0.2682 -1.0874
19671TIP3   OH280427   4.366   0.391   0.346 -0.2088  0.0322 -0.2348
19671TIP3    H180428   4.331   0.384   0.435  1.0288  0.1205  0.2724
19671TIP3    H280429   4.337   0.477   0.315 -0.8736 -0.1158 -0.0164
19672TIP3   OH280430   0.109   3.623  13.269  0.0964 -0.3607  0.5456
19672TIP3    H180431   0.094   3.711  13.304  3.4872  0.2825  0.4679
19672TIP3    H280432   0.122   3.636  13.175  0.0933 -1.0179  0.4496
19673TIP3   OH280433   2.490   1.559   2.127 -0.2699 -0.1738 -0.3560
19673TIP3    H180434   2.506   1.583   2.036  0.4645 -2.9432 -1.0241
19673TIP3    H280435   2.575   1.572   2.171 -0.0158 -0.9660 -0.5977
19674TIP3   OH280436   4.407   0.710   4.045  0.0719 -0.1249  0.2575
19674TIP3    H180437   4.456   0.679   4.121 -2.0744 -0.5573  1.4911
19674TIP3    H280438   4.385   0.801   4.066  1.5774  0.5447 -0.9440
19675TIP3   OH280439   5.177   3.752  16.067  0.6157 -0.2160 -0.3930
19675TIP3    H180440   5.150   3.660  16.078  0.8364 -0.1557  0.7352
19675TIP3    H280441   5.252   3.762  16.125 -1.2726  1.4667  1.8666
19676TIP3   OH280442   6.571   0.941  11.721 -0.1461  0.1819  0.1200
19676TIP3    H180443   6.538   0.865  11.673 -0.5984  0.4380  0.0302
19676TIP3    H280444   6.500   1.004  11.719 -0.3014  0.0656  1.4301
19677TIP3   OH280445   4.214   6.237  13.587  0.6814 -0.1428 -0.3463
19677TIP3    H180446   4.181   6.326  13.600  0.1374 -0.3483 -0.3115
19677TIP3    H280447   4.303   6.250  13.554  0.3562  0.4218 -1.0298
19678TIP3   OH280448   4.380   2.740   3.134  0.0282  0.0646 -0.1604
19678TIP3    H180449   4.417   2.712   3.050  1.3253  0.4973  0.2424
19678TIP3    H280450   4.315   2.805   3.112 -0.2022 -0.4113 -0.8797
19679TIP3   OH280451   1.212   5.007   1.432 -0.4729 -0.5995 -0.0389
19679TIP3    H180452   1.250   4.987   1.517 -2.7676 -2.2898  0.6302
19679TIP3    H280453   1.122   4.976   1.438 -0.9127  0.0171 -2.8081
19680TIP3   OH280454   5.456   3.084  11.668  0.2372 -0.4554 -0.3782
19680TIP3    H180455   5.435   2.991  11.663  0.1212 -0.7110  3.1544
19680TIP3    H280456   5.547   3.090  11.639  0.9923 -2.0465  1.5423
19681TIP3   OH280457   0.236   2.791  14.285 -0.0120 -1.0212 -0.1649
19681TIP3    H180458   0.243   2.727  14.356 -0.4880 -0.3485  0.4974
19681TIP3    H280459   0.215   2.874  14.329  0.1101 -0.5102 -1.0543
19682TIP3   OH280460   6.610   5.810  11.262 -0.0106 -0.2525  0.0140
19682TIP3    H180461   6.604   5.714  11.257  0.3868 -0.2443 -0.7492
19682TIP3    H280462   6.604   5.829  11.355  2.4947 -1.2216  0.4096
19683TIP3   OH280463   0.936   0.057  11.713 -0.2585 -0.1600  0.3176
19683TIP3    H180464   1.012   0.004  11.688 -0.4996  0.0918 -0.9702
19683TIP3    H280465   0.974   0.136  11.752  0.1566  0.2088 -0.8141
19684TIP3   OH280466   3.003   2.492  12.685 -0.4809 -0.3145 -0.1837
19684TIP3    H180467   3.048   2.420  12.728 -1.3528 -0.1762  0.9930
19684TIP3    H280468   2.917   2.495  12.727 -0.9375  0.5508 -1.1577
19685TIP3   OH280469   6.279   3.117  17.180  0.3378  0.1013 -0.8757
19685TIP3    H180470   6.202   3.161  17.144  0.2426  1.2462  0.6958
19685TIP3    H280471   6.352   3.177  17.163  0.3557  0.4620  0.4811
19686TIP3   OH280472   0.237   3.596  15.657 -0.1352  0.2822 -0.3570
19686TIP3    H180473   0.259   3.689  15.646 -0.7467  0.5755  0.7651
19686TIP3    H280474   0.321   3.551  15.650 -0.1714  0.6527 -3.5742
19687TIP3   OH280475   4.305   6.060   0.830 -0.0350  0.4237 -0.1674
19687TIP3    H180476   4.341   6.010   0.903 -0.7576 -0.3824 -0.3528
19687TIP3    H280477   4.229   6.105   0.867 -0.1201  0.3873 -0.2962
19688TIP3   OH280478   1.346   0.958   3.875  0.3387  0.8483 -0.0045
19688TIP3    H180479   1.269   1.005   3.908 -0.1690  0.1571 -0.1894
19688TIP3    H280480   1.416   1.023   3.877 -0.0135  1.2036  1.1069
19689TIP3   OH280481   2.151   5.963  13.387 -0.7607  0.4997 -0.6007
19689TIP3    H180482   2.107   6.009  13.315 -1.7484 -0.2963 -0.5230
19689TIP3    H280483   2.103   5.881  13.395  2.6688 -1.8884 -2.6600
19690TIP3   OH280484   0.652   3.742   0.539 -0.1476 -0.7559  0.7972
19690TIP3    H180485   0.563   3.732   0.505 -0.6054 -0.1642  1.7956
19690TIP3    H280486   0.694   3.804   0.480 -0.4373 -0.9596  0.3815
19691TIP3   OH280487   5.295   2.522  12.072  0.1602  0.3273  0.0573
19691TIP3    H180488   5.314   2.437  12.112  0.7192  0.5921  0.3530
19691TIP3    H280489   5.242   2.567  12.138  0.5318  0.5138  0.2277
19692TIP3   OH280490   0.473   3.735  12.678  0.1596  0.1614 -0.6573
19692TIP3    H180491   0.533   3.699  12.611 -0.5373 -0.8265 -0.7641
19692TIP3    H280492   0.428   3.807  12.633 -0.2730 -0.4673 -1.2429
19693TIP3   OH280493   3.950   0.090   2.906  0.2916  0.1767 -0.3801
19693TIP3    H180494   3.859   0.112   2.922  0.8782  1.3399  1.4110
19693TIP3    H280495   3.987   0.074   2.992  1.1868 -2.8475 -1.2358
19694TIP3   OH280496   0.985   5.537   5.790 -0.0975  0.3808 -0.1183
19694TIP3    H180497   1.064   5.507   5.746 -0.4221 -2.8727  1.3305
19694TIP3    H280498   1.014   5.562   5.878 -0.2200  2.1304 -0.5626
19695TIP3   OH280499   0.498   5.420  13.357 -0.4627 -0.6455  0.2522
19695TIP3    H180500   0.463   5.337  13.388  0.1907 -0.8398  0.4790
19695TIP3    H280501   0.578   5.433  13.408 -1.2969  0.8173  1.2409
19696TIP3   OH280502   3.730   4.416  11.887 -0.5059  0.5484 -0.6537
19696TIP3    H180503   3.743   4.365  11.807  1.6981  1.7566 -1.1251
19696TIP3    H280504   3.749   4.506  11.861 -1.8137  1.2550  0.7595
19697TIP3   OH280505   6.232   3.959  16.440 -0.0075  0.0653 -0.1334
19697TIP3    H180506   6.216   3.926  16.351  1.9401 -0.1236 -0.4286
19697TIP3    H280507   6.225   4.054  16.432 -2.2981 -0.0603  0.0392
19698TIP3   OH280508   3.404   4.381   0.156 -0.0427 -0.0226  0.2718
19698TIP3    H180509   3.486   4.428   0.172  0.2458 -0.3882 -0.1439
19698TIP3    H280510   3.336   4.440   0.189  0.2913  0.8600 -0.5824
19699TIP3   OH280511   5.962   2.286   3.235 -0.7000  0.0692 -0.0027
19699TIP3    H180512   5.970   2.371   3.278 -1.9199  0.4985 -0.5939
19699TIP3    H280513   5.963   2.222   3.306 -0.1866  0.6096  0.4746
19700TIP3   OH280514   3.488   0.703   0.938  0.2251  0.2655  0.2892
19700TIP3    H180515   3.496   0.748   1.022 -2.0372  0.5909  0.3521
19700TIP3    H280516   3.464   0.773   0.876 -2.7335 -0.7180  0.2750
19701TIP3   OH280517   4.992   3.353  12.844 -0.5334 -0.1148 -0.1645
19701TIP3    H180518   4.994   3.444  12.872 -0.2991 -1.0270  3.0888
19701TIP3    H280519   4.916   3.316  12.888  0.5070 -1.9309  0.1679
19702TIP3   OH280520   2.758   3.712   5.418 -0.3928  0.1185  0.1767
19702TIP3    H180521   2.814   3.641   5.450 -0.3413  0.2046  0.2813
19702TIP3    H280522   2.676   3.702   5.466 -1.7210 -2.0552 -2.4090
19703TIP3   OH280523   1.027   4.441  11.576 -0.3908 -0.2085  0.2482
19703TIP3    H180524   0.947   4.487  11.602  0.4432  0.6601  1.3015
19703TIP3    H280525   0.999   4.351  11.562 -0.6597 -1.1069  5.6366
19704TIP3   OH280526   2.834   1.430  14.252 -0.1902 -0.3841 -0.2712
19704TIP3    H180527   2.839   1.449  14.158 -0.0302 -0.4847 -0.2832
19704TIP3    H280528   2.743   1.448  14.275 -0.4272 -1.1318 -0.6116
19705TIP3   OH280529   0.978   3.656   0.414 -0.7564  0.3521 -0.0942
19705TIP3    H180530   0.904   3.625   0.467  0.4950  0.5404  1.8409
19705TIP3    H280531   1.002   3.740   0.455  2.1174 -0.9118  0.9144
19706TIP3   OH280532   3.999   5.128  14.504  0.7105 -0.0844 -0.3929
19706TIP3    H180533   4.039   5.051  14.467  0.2203 -0.5996  0.1313
19706TIP3    H280534   3.991   5.109  14.598 -1.9085 -0.5513 -0.6529
19707TIP3   OH280535   3.905   0.502   1.287 -0.5988  0.1329  0.0038
19707TIP3    H180536   3.949   0.586   1.277 -0.7978  0.1901 -0.3946
19707TIP3    H280537   3.957   0.441   1.236  0.4317 -0.3127  1.5331
19708TIP3   OH280538   3.353   4.592  14.875  0.0970 -0.8127  0.1347
19708TIP3    H180539   3.353   4.648  14.953 -1.0854  0.7139 -0.9139
19708TIP3    H280540   3.261   4.589  14.848  0.2113 -2.8987 -0.1168
19709TIP3   OH280541   0.576   3.364  13.381  0.2798 -0.0412  0.0197
19709TIP3    H180542   0.573   3.294  13.316  1.7280 -2.4952  2.4726
19709TIP3    H280543   0.669   3.378  13.397  0.0078  2.6042 -0.5615
19710TIP3   OH280544   2.647   4.680  12.581 -0.4665 -0.0482 -0.2797
19710TIP3    H180545   2.593   4.648  12.508  0.6775 -1.7081 -0.4290
19710TIP3    H280546   2.733   4.696  12.541 -0.5729  1.6608  0.1539
19711TIP3   OH280547   6.784   3.761   5.876 -0.0913 -0.1795  0.3622
19711TIP3    H180548   6.749   3.677   5.846  0.9098 -0.7850  0.8645
19711TIP3    H280549   6.713   3.823   5.861 -0.2526 -0.8069 -1.5582
19712TIP3   OH280550   0.901   0.832  15.648 -0.1206  0.1260 -0.0797
19712TIP3    H180551   0.849   0.912  15.643 -0.5424 -0.0399  1.3770
19712TIP3    H280552   0.909   0.814  15.742  0.9324 -0.9143 -0.3503
19713TIP3   OH280553   0.145   3.932  16.556  0.0838 -0.6494  0.1286
19713TIP3    H180554   0.062   3.884  16.548 -0.5632  0.4107  0.2780
19713TIP3    H280555   0.195   3.908  16.478 -1.3770  0.5919 -1.2260
19714TIP3   OH280556   4.802   3.000   1.264  0.2083 -0.1657  0.3916
19714TIP3    H180557   4.874   2.953   1.307  0.9328  1.6782  1.2476
19714TIP3    H280558   4.841   3.081   1.232 -1.1185  0.0790 -0.6601
19715TIP3   OH280559   6.377   4.627   3.978 -0.3026  0.4003  0.7828
19715TIP3    H180560   6.445   4.617   4.044 -2.4527 -0.1335  2.9645
19715TIP3    H280561   6.319   4.695   4.013 -1.5738 -0.0208 -0.4763
19716TIP3   OH280562   3.171   3.312   2.247  0.2634  0.7295  0.0802
19716TIP3    H180563   3.250   3.359   2.273  0.2160  0.8422  0.0215
19716TIP3    H280564   3.131   3.368   2.181 -0.1047  0.8892  0.4400
19717TIP3   OH280565   3.428   6.755  11.541 -0.2121 -0.1323 -0.0792
19717TIP3    H180566   3.369   6.735  11.615 -1.4373  1.6218 -0.5529
19717TIP3    H280567   3.391   6.707  11.467 -0.8311  0.6451 -0.2809
19718TIP3   OH280568   2.160   4.713  12.013 -0.5482  0.5158  0.0696
19718TIP3    H180569   2.150   4.800  12.052 -0.3691  0.2585  0.7082
19718TIP3    H280570   2.118   4.654  12.076  0.5784 -0.0177  0.3393
19719TIP3   OH280571   2.501   0.496   2.415 -0.7847  0.5077 -0.5965
19719TIP3    H180572   2.500   0.556   2.489  0.4696 -0.2424  0.0417
19719TIP3    H280573   2.488   0.551   2.338 -0.2168  1.5210  0.0285
19720TIP3   OH280574   6.599   2.291  15.645 -0.4450 -0.2699  0.4190
19720TIP3    H180575   6.639   2.212  15.608 -0.8898  0.5119 -1.7876
19720TIP3    H280576   6.568   2.264  15.731  2.8434 -1.4859  1.2757
19721TIP3   OH280577   5.242   1.222  16.660  0.1684  0.6631  0.3403
19721TIP3    H180578   5.180   1.287  16.693  0.9632  1.1913  0.8019
19721TIP3    H280579   5.297   1.200  16.735  1.1068  0.8650 -0.2749
19722TIP3   OH280580   4.819   2.586   3.093 -0.0607 -0.1319  0.0715
19722TIP3    H180581   4.761   2.576   3.017 -1.2866  2.6944  0.5384
19722TIP3    H280582   4.903   2.611   3.055 -0.0408 -1.0157 -0.4740
19723TIP3   OH280583   0.179   2.774   1.322 -0.6944 -0.5985 -0.3027
19723TIP3    H180584   0.171   2.850   1.264 -0.1700 -0.3158 -0.0131
19723TIP3    H280585   0.263   2.735   1.298  0.1939  0.3306  1.2028
19724TIP3   OH280586   2.155   5.880  13.007 -0.2068  0.3828  0.1572
19724TIP3    H180587   2.180   5.787  13.009 -1.6213  0.0014  0.2518
19724TIP3    H280588   2.238   5.926  12.996  0.4139 -0.9363 -0.8342
19725TIP3   OH280589   6.107   0.304   2.853 -0.0273 -0.4928  0.4900
19725TIP3    H180590   6.112   0.382   2.908  0.0417 -0.9692  1.1680
19725TIP3    H280591   6.020   0.269   2.868 -0.9941  0.8747 -1.7937
19726TIP3   OH280592   3.910   2.769  12.930 -0.1550  0.6187 -0.1583
19726TIP3    H180593   3.914   2.761  13.025 -1.1554  0.7561 -0.0900
19726TIP3    H280594   3.986   2.720  12.898  0.3565  0.8384  0.7206
19727TIP3   OH280595   0.287   3.231   1.085  0.0718 -0.2455 -0.2261
19727TIP3    H180596   0.247   3.300   1.137  0.1018 -0.7525  0.4755
19727TIP3    H280597   0.216   3.199   1.029  0.0983  0.4540 -0.6636
19728TIP3   OH280598   5.722   2.417   0.511  0.0450 -0.4444 -0.0500
19728TIP3    H180599   5.768   2.380   0.587  1.6879 -0.8826 -1.2188
19728TIP3    H280600   5.649   2.465   0.548  0.6940 -0.8432  1.8041
19729TIP3   OH280601   5.177   2.555   2.212 -0.3277  0.4577  0.2091
19729TIP3    H180602   5.223   2.499   2.275  3.3010  0.8504 -1.9674
19729TIP3    H280603   5.101   2.588   2.261  0.4606 -1.9657  3.2476
19730TIP3   OH280604   6.437   4.717   3.363  0.5205  0.1751  0.6568
19730TIP3    H180605   6.422   4.627   3.335  2.4498 -0.2404  0.8517
19730TIP3    H280606   6.462   4.710   3.456 -0.7224  1.0427  1.0669
19731TIP3   OH280607   1.914   3.071   5.788  0.0525  0.5326 -0.4265
19731TIP3    H180608   2.001   3.032   5.796  0.2680  1.1385  0.3620
19731TIP3    H280609   1.928   3.152   5.739  0.3293  1.7902  1.6518
19732TIP3   OH280610   6.090   4.357  12.776 -0.3274 -0.5648  0.1680
19732TIP3    H180611   6.093   4.333  12.683 -1.1493 -0.4350  0.1067
19732TIP3    H280612   6.180   4.383  12.797 -0.2776  0.0348 -0.7626
19733TIP3   OH280613   1.595   3.833  12.983 -0.4235 -0.3220  0.0371
19733TIP3    H180614   1.634   3.921  12.978 -2.2949  0.4929 -0.7394
19733TIP3    H280615   1.533   3.838  13.055  0.3390 -1.3930  0.7884
19734TIP3   OH280616   0.653   1.745   6.087 -0.7352  0.7130  0.8525
19734TIP3    H180617   0.712   1.753   6.162  0.6379 -0.9289 -0.0244
19734TIP3    H280618   0.632   1.836   6.064  0.6954  1.3034  1.7728
19735TIP3   OH280619   1.859   5.138  14.226  0.0386 -0.4652  0.8200
19735TIP3    H180620   1.929   5.203  14.232  1.2292 -1.4783 -1.3392
19735TIP3    H280621   1.796   5.176  14.166 -0.3337 -0.3688  1.2721
19736TIP3   OH280622   1.403   6.239  16.174  0.0985  0.3111 -0.3352
19736TIP3    H180623   1.371   6.324  16.205 -0.4830 -1.1871  3.3713
19736TIP3    H280624   1.328   6.180  16.182  0.8783 -0.8799 -1.5613
19737TIP3   OH280625   5.747   3.011   3.290  0.6606  0.4212  0.1930
19737TIP3    H180626   5.764   3.105   3.282 -1.7242  0.8710  0.0236
19737TIP3    H280627   5.670   3.006   3.347 -0.4083 -1.3175 -1.3620
19738TIP3   OH280628   2.154   3.830  15.987 -0.1887  0.7951  0.3634
19738TIP3    H180629   2.120   3.895  15.925 -1.2798  0.0077  0.1255
19738TIP3    H280630   2.127   3.862  16.073  0.6241  1.4654  0.3730
19739TIP3   OH280631   0.880   6.370   1.757  0.3161 -0.5727 -0.2544
19739TIP3    H180632   0.957   6.401   1.709  0.2016  0.7951  0.4497
19739TIP3    H280633   0.902   6.280   1.781  0.8157 -0.9254 -1.9241
19740TIP3   OH280634   2.569   3.401  15.594 -0.0258 -0.6567 -0.8205
19740TIP3    H180635   2.587   3.437  15.507  2.9477  1.6929  0.6799
19740TIP3    H280636   2.505   3.461  15.632  1.7868  0.7710  0.0962
19741TIP3   OH280637   6.424   0.792  11.985 -0.8876 -0.2481  0.0018
19741TIP3    H180638   6.393   0.703  12.001 -1.5724  0.2009  1.2336
19741TIP3    H280639   6.382   0.817  11.903 -2.6660 -0.1837  0.8998
19742TIP3   OH280640   5.619   6.553  15.259 -0.4910  0.0796  0.3816
19742TIP3    H180641   5.655   6.640  15.277  3.4902 -1.5050  0.5168
19742TIP3    H280642   5.649   6.533  15.171 -2.5101 -0.6822 -0.1669
19743TIP3   OH280643   1.715   6.629  12.770  0.3444  0.2028  0.5714
19743TIP3    H180644   1.782   6.671  12.717  0.9348 -0.3468  0.8738
19743TIP3    H280645   1.712   6.680  12.851 -1.2888  1.6737 -0.3886
19744TIP3   OH280646   2.072   2.365   0.046  0.1893 -0.4428  0.2706
19744TIP3    H180647   2.060   2.270   0.034 -1.8426 -0.2372  0.4314
19744TIP3    H280648   2.113   2.395  -0.035  2.7168 -1.7584  1.0200
19745TIP3   OH280649   6.354   4.092   0.453  0.2373 -0.4708  0.3624
19745TIP3    H180650   6.262   4.066   0.447  0.5623 -1.5713 -0.0089
19745TIP3    H280651   6.400   4.010   0.470  1.2565 -0.0847 -0.5377
19746TIP3   OH280652   4.262   2.673  12.992  0.1635  0.1553 -0.4522
19746TIP3    H180653   4.214   2.756  12.982 -1.3516 -0.8711 -1.8885
19746TIP3    H280654   4.348   2.691  12.954 -0.3793  0.8982 -1.3551
19747TIP3   OH280655   1.191   0.089   5.027  0.2216 -0.1510 -0.0683
19747TIP3    H180656   1.155   0.146   5.096  0.5984  0.2496 -0.2012
19747TIP3    H280657   1.116   0.038   4.997  0.2386 -0.9692  1.2631
19748TIP3   OH280658   2.445   3.659   6.146  0.5375 -0.4527  0.5464
19748TIP3    H180659   2.475   3.596   6.080  1.5626  0.0830  0.4902
19748TIP3    H280660   2.523   3.709   6.168 -0.2659  0.7718  0.6315
19749TIP3   OH280661   0.001   0.617   3.693 -0.1695  0.1073 -0.6761
19749TIP3    H180662   0.033   0.529   3.711  1.1213  0.7248  0.1011
19749TIP3    H280663  -0.094   0.607   3.687  0.0533 -1.5098 -1.7116
19750TIP3   OH280664   1.605   0.525   2.082  0.3400  0.4470 -0.0755
19750TIP3    H180665   1.591   0.570   2.166 -2.2760  0.1614 -0.3080
19750TIP3    H280666   1.597   0.594   2.017  1.7587  0.5611 -0.1347
19751TIP3   OH280667   6.656   2.700   1.170 -0.1795  0.2948 -0.0822
19751TIP3    H180668   6.561   2.709   1.165 -0.3123  0.8343  2.8253
19751TIP3    H280669   6.688   2.789   1.182  0.6943  0.0831 -0.7833
19752TIP3   OH280670   2.080   0.867  16.716  0.3335 -0.0767  0.1174
19752TIP3    H180671   2.114   0.777  16.710  1.1533  0.2967 -1.1521
19752TIP3    H280672   2.133   0.908  16.785  0.0237 -0.5422  0.6313
19753TIP3   OH280673   5.757   5.193  10.896 -0.7840  0.3327 -0.2665
19753TIP3    H180674   5.851   5.199  10.913 -1.0684  1.8621  0.8368
19753TIP3    H280675   5.745   5.236  10.811 -0.6899  1.5833  0.3414
19754TIP3   OH280676   4.059   1.374  14.703 -0.3252  0.1916  0.0401
19754TIP3    H180677   4.042   1.324  14.623 -1.1022  1.1862 -0.4326
19754TIP3    H280678   4.154   1.370  14.714 -0.1802  0.2652 -1.0833
19755TIP3   OH280679   4.293   5.781   3.392 -0.1731  0.3329 -0.1273
19755TIP3    H180680   4.383   5.782   3.423  0.3958  1.4199 -1.7483
19755TIP3    H280681   4.240   5.796   3.471  1.0280 -0.6990  0.8888
19756TIP3   OH280682   6.067   1.988   2.702 -0.1658  0.2041 -0.1178
19756TIP3    H180683   6.122   2.065   2.714 -0.4754  0.0992  2.4483
19756TIP3    H280684   6.127   1.914   2.706 -0.2410  0.1801  0.8915
19757TIP3   OH280685   6.048   1.681  11.766 -0.3360 -0.8985  0.1914
19757TIP3    H180686   6.003   1.753  11.722 -1.3116 -1.3566  0.4200
19757TIP3    H280687   5.995   1.663  11.844  0.7137 -0.8971  0.9138
19758TIP3   OH280688   2.670   3.541   4.776  0.6191  0.0559  0.4551
19758TIP3    H180689   2.658   3.500   4.861 -1.1235  0.2413  0.3081
19758TIP3    H280690   2.613   3.491   4.717  0.5299  0.9951 -0.2605
19759TIP3   OH280691   5.974   5.999  13.590 -0.6860  0.3872 -0.3219
19759TIP3    H180692   5.992   5.915  13.633  1.3220 -0.4611 -2.6613
19759TIP3    H280693   5.910   5.977  13.523 -0.3187  0.7448 -0.7942
19760TIP3   OH280694   5.138   1.910   5.805  0.4145  0.0911 -0.2539
19760TIP3    H180695   5.232   1.930   5.815  0.5185 -0.0216 -0.9693
19760TIP3    H280696   5.120   1.928   5.712 -0.1766 -0.2875 -0.2103
19761TIP3   OH280697   4.864   5.958  12.031  0.1730  0.2533  0.2400
19761TIP3    H180698   4.877   6.041  11.985 -0.1984  0.0391 -0.2574
19761TIP3    H280699   4.823   5.901  11.966  0.6469 -0.3951  0.5065
19762TIP3   OH280700   1.961   5.799  13.178 -0.7530 -0.3321  0.1553
19762TIP3    H180701   2.028   5.854  13.138 -0.5401 -1.8678 -1.6469
19762TIP3    H280702   1.910   5.765  13.105 -1.9983 -1.0983  1.3553
19763TIP3   OH280703   5.155   0.735   5.056 -0.1368 -0.4594 -0.2560
19763TIP3    H180704   5.155   0.729   4.961 -1.4206 -0.0981 -0.2953
19763TIP3    H280705   5.071   0.698   5.083  0.0735 -0.2650  0.7134
19764TIP3   OH280706   1.372   2.298  12.165  0.3302  0.0625 -0.2190
19764TIP3    H180707   1.328   2.338  12.090  0.9236  1.3368  0.0993
19764TIP3    H280708   1.357   2.204  12.154 -0.9872  0.3498 -1.0430
19765TIP3   OH280709   1.882   6.417  12.774 -0.3620  0.0912 -0.7598
19765TIP3    H180710   1.822   6.483  12.807  0.2600 -0.2500  1.1343
19765TIP3    H280711   1.830   6.365  12.713 -1.9147 -0.0047  0.6131
19766TIP3   OH280712   3.476   2.152  13.231  0.4272  0.0940  0.2166
19766TIP3    H180713   3.459   2.150  13.137 -3.2238 -1.6399  0.8297
19766TIP3    H280714   3.430   2.230  13.263 -0.1815 -0.5148  0.8531
19767TIP3   OH280715   6.084   6.031  16.754  0.3280 -0.5271 -0.0354
19767TIP3    H180716   6.058   6.013  16.664  0.0495 -0.5101  0.0425
19767TIP3    H280717   6.095   5.944  16.794 -0.2289 -0.5329  0.1101
19768TIP3   OH280718   5.083   1.593  14.810  0.8072 -0.0665  0.5743
19768TIP3    H180719   5.053   1.503  14.822  0.6425 -0.0405  0.3673
19768TIP3    H280720   5.178   1.587  14.816  0.7921 -0.2411  0.6538
19769TIP3   OH280721   2.998   3.959   3.337 -0.0849 -0.2730 -0.5639
19769TIP3    H180722   3.091   3.978   3.350 -0.1049  1.1211 -2.2983
19769TIP3    H280723   2.953   4.040   3.364 -0.6107 -0.0820 -1.9474
19770TIP3   OH280724   3.874   4.974  15.534  0.5760 -0.2296  0.4198
19770TIP3    H180725   3.856   4.908  15.601  0.1621  1.9758  2.5727
19770TIP3    H280726   3.788   5.002  15.504  0.7224  0.0557  0.2624
19771TIP3   OH280727   0.053   3.965  13.973  0.5547  0.8682 -0.0708
19771TIP3    H180728   0.087   3.964  14.063  1.3823 -0.0439 -0.3796
19771TIP3    H280729  -0.001   3.885  13.967  0.5651  0.8845 -0.4079
19772TIP3   OH280730   1.993   3.000   6.569  0.3091  0.3343  0.5812
19772TIP3    H180731   1.918   3.052   6.598 -0.5684 -0.3466 -0.4154
19772TIP3    H280732   1.961   2.952   6.493  1.1806 -1.4562  1.3085
19773TIP3   OH280733   6.058   4.449   6.208 -0.0867 -0.2503 -0.1961
19773TIP3    H180734   6.144   4.487   6.190 -0.2931  0.2129 -0.2165
19773TIP3    H280735   6.045   4.464   6.302 -1.0237  1.5272 -0.5791
19774TIP3   OH280736   5.136   3.717  11.574  0.1764 -0.1106 -0.4377
19774TIP3    H180737   5.088   3.795  11.602 -0.3838 -0.6860  0.2137
19774TIP3    H280738   5.192   3.696  11.648  1.9691  0.9582 -1.4545
19775TIP3   OH280739   6.053   5.712   3.711 -0.2421  0.5705  0.1295
19775TIP3    H180740   5.982   5.687   3.771 -0.4835  1.4774  0.2255
19775TIP3    H280741   6.009   5.753   3.637  0.0592 -0.4998 -0.6711
19776TIP3   OH280742   4.541   1.024   1.370 -0.1506  0.6387 -0.0359
19776TIP3    H180743   4.475   1.091   1.352 -2.0044 -1.1525 -0.0986
19776TIP3    H280744   4.586   1.013   1.286 -0.3287  1.2695 -0.2214
19777TIP3   OH280745   5.481   5.877  13.612 -0.2482 -0.3462  0.1919
19777TIP3    H180746   5.525   5.958  13.584 -1.5494  1.2069  2.4674
19777TIP3    H280747   5.552   5.812  13.617  0.5227  0.1477 -3.4166
19778TIP3   OH280748   5.304   2.518   3.510 -0.1147 -0.1708  0.4264
19778TIP3    H180749   5.334   2.441   3.558  0.5623 -1.2280 -1.6366
19778TIP3    H280750   5.236   2.486   3.452  1.0985  0.4823 -1.4181
19779TIP3   OH280751   1.541   2.641   1.184  0.1283  0.2522 -0.4708
19779TIP3    H180752   1.565   2.553   1.153  0.5550  0.5474 -1.0041
19779TIP3    H280753   1.603   2.699   1.139  0.0161  0.8005  0.0821
19780TIP3   OH280754   0.451   3.599  10.655 -0.1397 -0.3777 -0.2650
19780TIP3    H180755   0.445   3.506  10.634 -1.1713 -0.1689 -0.9477
19780TIP3    H280756   0.392   3.641  10.593  1.4702  0.8950 -0.9692
19781TIP3   OH280757   1.045   0.041   0.540 -0.1300 -0.2018  0.2889
19781TIP3    H180758   0.981   0.004   0.480  1.8385 -0.3630 -1.7609
19781TIP3    H280759   1.102  -0.032   0.564 -0.9258 -0.1581  2.4502
19782TIP3   OH280760   6.641   3.904  16.165 -1.1316  0.0337 -0.3955
19782TIP3    H180761   6.563   3.961  16.163  0.6957  2.6333  0.5264
19782TIP3    H280762   6.644   3.871  16.254  0.3515  2.1710  0.3759
19783TIP3   OH280763   6.638   6.775   5.961  0.0193 -0.3689 -0.1454
19783TIP3    H180764   6.551   6.734   5.961 -0.2792  0.2617  0.6227
19783TIP3    H280765   6.673   6.758   6.049 -0.7873  2.4485  0.7622
19784TIP3   OH280766   2.727   4.303   2.617  0.7449 -0.1012  0.0559
19784TIP3    H180767   2.641   4.268   2.598  0.2249  0.2330  1.6826
19784TIP3    H280768   2.730   4.386   2.570  0.6697 -0.7024 -1.0215
19785TIP3   OH280769   3.066   0.104  10.516  0.2547 -0.0801 -0.3346
19785TIP3    H180770   3.007   0.123  10.588 -2.1245  0.8025 -2.4377
19785TIP3    H280771   3.122   0.181  10.509 -0.0491  0.1743  0.0694
19786TIP3   OH280772   2.235   4.740  14.180 -0.2282 -0.2183  0.1884
19786TIP3    H180773   2.149   4.758  14.141  0.3791  0.7492 -0.7486
19786TIP3    H280774   2.281   4.824  14.176  0.9564 -0.8572  0.1865
19787TIP3   OH280775   3.394   5.466  12.697  0.0075 -0.0967 -0.3304
19787TIP3    H180776   3.452   5.508  12.634 -0.6017 -0.2145 -0.9773
19787TIP3    H280777   3.399   5.522  12.775 -0.5306  0.9929 -1.0708
19788TIP3   OH280778   3.521   5.177   5.060  0.2568  0.6279  0.8102
19788TIP3    H180779   3.434   5.155   5.026  0.0209  1.4135  0.8937
19788TIP3    H280780   3.570   5.095   5.053 -0.3796  0.2661  0.4282
19789TIP3   OH280781   5.494   4.447  14.212 -0.3143 -0.0333  0.7849
19789TIP3    H180782   5.529   4.524  14.256  0.4950  0.5602 -0.8380
19789TIP3    H280783   5.567   4.416  14.157 -2.0785  0.8050 -2.1097
19790TIP3   OH280784   0.830   3.272   2.395 -0.1052  0.4833 -0.2960
19790TIP3    H180785   0.815   3.320   2.313  1.1811 -0.3658 -1.0424
19790TIP3    H280786   0.925   3.270   2.405 -0.1957 -0.7497  0.4153
19791TIP3   OH280787   1.237   5.690   2.148  0.0358  0.1304  0.4555
19791TIP3    H180788   1.242   5.596   2.159  0.1642  0.2725  1.6203
19791TIP3    H280789   1.250   5.704   2.054  0.6170 -0.9653  0.3706
19792TIP3   OH280790   3.383   3.836   3.541  0.1692  0.0822 -0.3737
19792TIP3    H180791   3.392   3.760   3.483 -0.2558 -0.2487 -0.0087
19792TIP3    H280792   3.440   3.816   3.616  0.6547  0.4718 -0.6401
19793TIP3   OH280793   6.603   2.884   3.310 -0.2996 -0.0781  0.0769
19793TIP3    H180794   6.618   2.793   3.336 -0.9797 -0.3207 -0.3728
19793TIP3    H280795   6.670   2.934   3.357 -0.9784 -0.6113  1.6411
19794TIP3   OH280796   2.270   2.283  16.800  0.3363 -0.0595  0.6988
19794TIP3    H180797   2.229   2.370  16.804  0.8430  0.1358  1.6864
19794TIP3    H280798   2.209   2.230  16.748  0.1077  0.9300 -0.0624
19795TIP3   OH280799   4.005   0.203  14.722 -0.1371 -0.2903 -0.2037
19795TIP3    H180800   3.945   0.258  14.671 -0.1489 -0.6319 -0.5593
19795TIP3    H280801   4.057   0.265  14.772 -0.0209  0.0625 -0.7506
19796TIP3   OH280802   4.142   3.541  15.215 -0.1319  0.1077  0.1227
19796TIP3    H180803   4.092   3.511  15.139 -1.0335 -0.1306  0.7978
19796TIP3    H280804   4.078   3.542  15.286  0.4863  1.2624  0.6589
19797TIP3   OH280805   1.758   2.292   2.276  0.1729 -0.2180 -0.3939
19797TIP3    H180806   1.733   2.200   2.264 -1.5334  0.2625 -0.6566
19797TIP3    H280807   1.698   2.324   2.344  1.5481  0.3897  0.5431
19798TIP3   OH280808   6.085   4.453   5.246  0.7707  0.3015  0.5222
19798TIP3    H180809   6.066   4.534   5.293  2.1270  0.7000  0.4170
19798TIP3    H280810   6.026   4.388   5.284 -0.5720  1.4129  0.3692
19799TIP3   OH280811   0.904   3.171  16.301 -0.1599 -0.2658 -0.5295
19799TIP3    H180812   0.890   3.089  16.254 -0.2088  0.8582 -2.5384
19799TIP3    H280813   0.892   3.148  16.393  0.4620 -2.6389 -0.9982
19800TIP3   OH280814   5.523   0.243  10.292 -0.2694  0.4693 -0.2308
19800TIP3    H180815   5.612   0.274  10.309 -0.2941  0.2033  0.3752
19800TIP3    H280816   5.531   0.149  10.280 -0.4581  0.4565 -0.2672
19801TIP3   OH280817   5.525   1.143  11.209  0.7653 -0.1740  0.6215
19801TIP3    H180818   5.515   1.050  11.228 -0.2996 -0.1947 -0.0440
19801TIP3    H280819   5.460   1.186  11.264  2.9052  0.4031  2.7962
19802TIP3   OH280820   5.987   5.066  16.105  0.1250  0.5160  0.7431
19802TIP3    H180821   6.038   5.109  16.036 -0.5869 -0.6455 -0.5128
19802TIP3    H280822   6.042   5.074  16.183  1.5301  0.6640 -0.2418
19803TIP3   OH280823   0.727   2.628  12.561 -0.6730  0.6327 -0.9237
19803TIP3    H180824   0.655   2.571  12.588 -1.2058  1.0480 -1.4573
19803TIP3    H280825   0.752   2.675  12.640 -1.3122  0.8499 -0.8523
19804TIP3   OH280826   5.589   6.642   4.675  0.3832  0.0000 -0.4458
19804TIP3    H180827   5.588   6.737   4.664  0.9708  0.0295 -0.2902
19804TIP3    H280828   5.662   6.627   4.735 -1.8106 -0.2533  2.2868
19805TIP3   OH280829   6.286   1.489   5.328 -0.1063 -0.1268  0.1162
19805TIP3    H180830   6.373   1.464   5.358  0.2987  1.6480  0.4844
19805TIP3    H280831   6.243   1.524   5.407 -1.1034 -0.8836 -0.0908
19806TIP3   OH280832   1.205   0.525  15.274  0.1141  0.6865 -0.1190
19806TIP3    H180833   1.214   0.551  15.366  1.4935 -1.1606  0.3006
19806TIP3    H280834   1.192   0.430  15.278  1.1272  0.4656 -1.8973
19807TIP3   OH280835   6.565   6.343   0.155  0.1453  0.5057 -0.0738
19807TIP3    H180836   6.618   6.301   0.223 -1.7420 -0.5439  0.7676
19807TIP3    H280837   6.508   6.274   0.122 -0.4882  1.5444 -1.1924
19808TIP3   OH280838   1.795   1.762   1.157  0.2845  0.1205 -0.0704
19808TIP3    H180839   1.859   1.697   1.126 -0.2407 -0.4648  0.0664
19808TIP3    H280840   1.730   1.766   1.087  0.6276  0.9314 -0.3391
19809TIP3   OH280841   2.336   2.273   0.344  0.0461 -0.4185 -0.2281
19809TIP3    H180842   2.308   2.359   0.312  0.7420 -0.1608 -0.1708
19809TIP3    H280843   2.283   2.257   0.421  0.1296  0.1101 -0.0553
19810TIP3   OH280844   1.968   2.416  10.656  0.1566 -0.4956  0.5439
19810TIP3    H180845   1.992   2.330  10.622  0.7590 -0.4477  0.8621
19810TIP3    H280846   2.051   2.461  10.669 -0.1722  0.2774  0.0110
19811TIP3   OH280847   1.586   4.709  13.464 -0.6235 -0.1433 -0.5018
19811TIP3    H180848   1.655   4.684  13.525 -0.2599  0.2424 -0.7510
19811TIP3    H280849   1.616   4.791  13.425 -1.2277  0.0374 -0.6015
19812TIP3   OH280850   6.605   6.655  11.370  0.3826  0.2107  0.0716
19812TIP3    H180851   6.649   6.616  11.294 -0.7999  0.3416 -0.7097
19812TIP3    H280852   6.561   6.581  11.412  1.9775 -0.0508  1.3035
19813TIP3   OH280853   0.820   0.642   5.071  0.2115 -0.0540 -0.0938
19813TIP3    H180854   0.763   0.627   5.146  0.3374  0.4241  0.1003
19813TIP3    H280855   0.906   0.657   5.109  0.3391 -0.1201 -0.3528
19814TIP3   OH280856   2.786   2.373  14.523 -0.2383 -0.1719  0.4022
19814TIP3    H180857   2.812   2.362  14.615 -0.9236  0.2363  0.6404
19814TIP3    H280858   2.816   2.461  14.500  1.8470 -1.0496 -0.4068
19815TIP3   OH280859   1.026   4.808   0.344 -0.7192  0.0222 -0.2251
19815TIP3    H180860   1.008   4.809   0.438  1.5759  0.7678  0.2522
19815TIP3    H280861   1.067   4.893   0.328 -0.7775 -0.2549 -1.8343
19816TIP3   OH280862   0.302   3.066   1.814  0.4453 -0.3813 -0.1322
19816TIP3    H180863   0.215   3.074   1.775  0.0073 -1.4625  0.5921
19816TIP3    H280864   0.347   3.147   1.789 -1.2391  0.8413  0.6859
19817TIP3   OH280865   5.156   0.554  15.412 -0.3140  0.0198 -0.5129
19817TIP3    H180866   5.113   0.568  15.497  0.1897  0.3431 -0.3128
19817TIP3    H280867   5.157   0.459  15.402  1.2529 -0.1010  0.6832
19818TIP3   OH280868   2.314   2.428   2.821  0.4719  0.1106 -0.5040
19818TIP3    H180869   2.386   2.394   2.768  0.1023 -0.5657 -0.5824
19818TIP3    H280870   2.239   2.430   2.761  0.4119  0.7474 -0.4066
19819TIP3   OH280871   2.105   5.785   2.920 -0.3098 -0.1929  0.2682
19819TIP3    H180872   2.200   5.770   2.924  0.0048  1.3899 -0.7556
19819TIP3    H280873   2.072   5.748   3.002  1.1562 -1.0246  0.5079
19820TIP3   OH280874   0.662   5.595   2.837  0.1753  0.0650 -0.5171
19820TIP3    H180875   0.742   5.627   2.795  1.9530 -0.5883  2.2506
19820TIP3    H280876   0.692   5.553   2.917 -3.0387  0.6139  1.0565
19821TIP3   OH280877   5.337   0.152   3.521 -0.0827 -0.6346  0.1152
19821TIP3    H180878   5.282   0.135   3.598 -0.4742  0.2319  0.0286
19821TIP3    H280879   5.285   0.121   3.447 -0.3795  0.0101  0.0512
19822TIP3   OH280880   3.532   6.689  12.262  0.4750 -0.0651  0.1325
19822TIP3    H180881   3.573   6.775  12.261  2.3609 -0.9288  0.8794
19822TIP3    H280882   3.441   6.707  12.285  0.0082  2.0252 -3.0359
19823TIP3   OH280883   2.233   0.152  12.575 -0.0800 -0.0303 -0.1310
19823TIP3    H180884   2.312   0.206  12.576 -0.2871  0.2804  0.5499
19823TIP3    H280885   2.204   0.152  12.666 -1.6338  1.0195 -0.5964
19824TIP3   OH280886   4.686   0.855  13.725  0.2207 -0.4133 -0.2382
19824TIP3    H180887   4.781   0.869  13.730  0.4900 -2.2065  0.0127
19824TIP3    H280888   4.661   0.888  13.639  1.0040  0.4450 -0.1442
19825TIP3   OH280889   2.820   4.293  12.030  0.2657  0.5254 -0.0166
19825TIP3    H180890   2.756   4.246  11.976  1.5852  0.4536 -1.5606
19825TIP3    H280891   2.820   4.382  11.994  2.3792  0.0494 -1.2976
19826TIP3   OH280892   6.390   4.155   5.418  0.8947 -0.1211 -0.4767
19826TIP3    H180893   6.383   4.076   5.472  1.6157  0.0165 -0.1812
19826TIP3    H280894   6.382   4.228   5.479  0.1610  0.0428 -0.7598
19827TIP3   OH280895   4.639   0.095   5.757 -0.7985  0.3574 -0.2276
19827TIP3    H180896   4.631   0.147   5.677 -1.0690 -0.1756 -0.5555
19827TIP3    H280897   4.591   0.144   5.823 -0.5818  0.7983 -0.3999
19828TIP3   OH280898   4.410   4.214   4.770 -0.1527  0.1147  0.2134
19828TIP3    H180899   4.352   4.183   4.839 -2.1698  2.5744 -0.3232
19828TIP3    H280900   4.412   4.309   4.780  1.3559  0.3259 -1.6740
19829TIP3   OH280901   0.025   0.882   5.667  0.1323  0.1114 -0.2361
19829TIP3    H180902  -0.036   0.843   5.730  1.1168  1.0776  1.3386
19829TIP3    H280903   0.085   0.934   5.720  2.8261 -1.4214 -1.6580
19830TIP3   OH280904   3.888   2.418   1.812 -0.4712  0.1693  0.3073
19830TIP3    H180905   3.963   2.423   1.872 -0.7875  1.6589  0.6016
19830TIP3    H280906   3.854   2.330   1.822  1.2834 -0.5391  0.1430
19831TIP3   OH280907   5.872   0.851  16.584  0.3569 -0.3288  0.2725
19831TIP3    H180908   5.943   0.815  16.638 -0.6999 -1.0932  1.1653
19831TIP3    H280909   5.897   0.827  16.494  0.1500 -2.5363  0.7652
19832TIP3   OH280910   5.569   5.864   4.748  0.1306 -0.0308  0.2308
19832TIP3    H180911   5.485   5.908   4.756  0.3176 -0.0020  2.2954
19832TIP3    H280912   5.550   5.771   4.761  0.5065  0.0546  1.4530
19833TIP3   OH280913   1.905   5.449   5.476 -0.0720  0.0577  0.0216
19833TIP3    H180914   1.964   5.439   5.551  1.3051 -1.2610 -1.1926
19833TIP3    H280915   1.948   5.400   5.406 -2.0757  0.0163 -1.2085
19834TIP3   OH280916   3.886   6.734  12.324 -0.6195  0.4341 -0.0399
19834TIP3    H180917   3.878   6.674  12.250  1.2523  0.0019  0.0820
19834TIP3    H280918   3.901   6.820  12.284  0.6727  0.1535 -0.1583
19835TIP3   OH280919   1.458   4.078   6.256 -0.4198 -0.2563 -0.6080
19835TIP3    H180920   1.431   4.132   6.329  1.6329 -0.3643  0.2641
19835TIP3    H280921   1.432   3.989   6.281  0.2819 -0.2946 -0.0043
19836TIP3   OH280922   3.866   5.565   1.499  0.5339 -0.7613  0.1887
19836TIP3    H180923   3.838   5.501   1.434 -1.2810 -0.4006  0.5905
19836TIP3    H280924   3.956   5.540   1.520  0.9709 -1.1725 -2.0694
19837TIP3   OH280925   3.898   2.326  11.568  0.0368  0.9140 -0.3244
19837TIP3    H180926   3.921   2.325  11.661  0.0127 -3.6861 -0.2543
19837TIP3    H280927   3.975   2.289  11.524 -0.8460  0.8865 -1.8839
19838TIP3   OH280928   5.860   4.048   5.843 -0.5855 -0.1013  0.2593
19838TIP3    H180929   5.950   4.013   5.844 -0.0734  1.1328 -1.2876
19838TIP3    H280930   5.865   4.127   5.896 -0.4960  0.5862 -0.7667
19839TIP3   OH280931   1.088   5.850   0.962 -0.2418 -0.6114 -0.7874
19839TIP3    H180932   1.156   5.842   1.028 -2.0389 -1.8813  0.9848
19839TIP3    H280933   1.091   5.767   0.915  1.3641  0.4819 -2.6773
19840TIP3   OH280934   2.548   2.518  15.289  0.7191  0.1816 -0.3736
19840TIP3    H180935   2.574   2.600  15.330  1.4387  0.3543 -1.1499
19840TIP3    H280936   2.460   2.501  15.321  0.1675  1.7943 -1.0138
19841TIP3   OH280937   0.250   4.804   0.613 -0.0010 -0.6838 -0.0006
19841TIP3    H180938   0.252   4.787   0.707 -0.6040 -1.7484 -0.1748
19841TIP3    H280939   0.330   4.764   0.579 -0.5798 -1.7068 -0.1677
19842TIP3   OH280940   4.894   1.246  13.633 -0.1382 -0.2763 -0.0276
19842TIP3    H180941   4.908   1.222  13.725  0.4338  1.5439  0.3822
19842TIP3    H280942   4.971   1.298  13.610 -0.6671 -0.0465 -1.3091
19843TIP3   OH280943   0.035   0.523  14.162  0.3027 -0.1012 -0.8717
19843TIP3    H180944   0.078   0.602  14.128 -1.5816  0.0882 -2.8555
19843TIP3    H280945   0.051   0.456  14.096 -1.7793 -0.2317 -1.2679
19844TIP3   OH280946   1.746   3.069  17.084  0.0574  0.0893  0.1067
19844TIP3    H180947   1.805   3.019  17.141  0.5830  0.0517 -0.4652
19844TIP3    H280948   1.803   3.103  17.015 -0.4851  0.5769 -0.1043
19845TIP3   OH280949   3.707   5.466   2.043 -0.2370 -0.1422  0.0942
19845TIP3    H180950   3.701   5.374   2.069  0.1119 -0.2105 -0.0796
19845TIP3    H280951   3.669   5.514   2.117 -1.5949 -0.5016 -0.3521
19846TIP3   OH280952   6.145   3.404   4.538  0.2513  0.0278 -0.4079
19846TIP3    H180953   6.145   3.339   4.468  0.5755  0.9580 -1.2982
19846TIP3    H280954   6.078   3.374   4.600 -0.1198 -0.7457 -1.1797
19847TIP3   OH280955   2.176   2.182  14.594 -0.6820 -0.0214  0.5148
19847TIP3    H180956   2.148   2.256  14.648  1.0212  0.1807  1.1589
19847TIP3    H280957   2.248   2.217  14.540 -0.3884 -0.9931  0.2545
19848TIP3   OH280958   5.353   1.805   1.311  0.1580  0.1966 -0.0235
19848TIP3    H180959   5.378   1.737   1.375 -1.4789  0.4997  0.9603
19848TIP3    H280960   5.263   1.783   1.287  0.9680 -0.3282 -2.8062
19849TIP3   OH280961   0.835   4.859  14.947 -0.2268  0.2551 -0.4721
19849TIP3    H180962   0.920   4.902  14.940  1.1245 -2.3145 -0.3179
19849TIP3    H280963   0.809   4.843  14.856  0.0716 -0.0951 -0.4997
19850TIP3   OH280964   2.200   5.548   3.947  0.5481  0.3336  0.1126
19850TIP3    H180965   2.156   5.617   3.996 -2.6179  1.0557 -3.5365
19850TIP3    H280966   2.290   5.580   3.935 -0.0546  2.4136  1.0149
19851TIP3   OH280967   2.990   5.028   0.743 -0.1270  0.0519 -0.6430
19851TIP3    H180968   3.029   4.955   0.790 -0.5892 -1.5324 -2.6362
19851TIP3    H280969   2.896   5.019   0.757 -0.1374  0.7432 -0.2402
19852TIP3   OH280970   2.722   3.915   6.002 -0.1246  0.2368  0.2894
19852TIP3    H180971   2.726   3.857   6.077 -1.3427  0.3859  0.4781
19852TIP3    H280972   2.673   3.991   6.033  0.2611  0.7568 -0.3570
19853TIP3   OH280973   3.275   4.639  13.100 -0.2392 -0.2131  0.1167
19853TIP3    H180974   3.215   4.712  13.108  1.5549  1.3825 -0.5905
19853TIP3    H280975   3.288   4.608  13.190  1.1416  2.1610  0.7851
19854TIP3   OH280976   3.014   2.826  11.543 -0.1686  0.5517  0.4973
19854TIP3    H180977   2.927   2.818  11.505 -0.0711 -0.8183  0.5641
19854TIP3    H280978   3.068   2.764  11.495  0.4512  0.3766  1.3989
19855TIP3   OH280979   2.970   1.269   1.745  0.0674  1.0070 -0.0521
19855TIP3    H180980   3.060   1.300   1.734  0.3408  0.0263 -0.7279
19855TIP3    H280981   2.980   1.178   1.774 -0.7010  1.3049  1.1543
19856TIP3   OH280982   3.374   1.626  13.348  0.4317  0.3388 -0.2664
19856TIP3    H180983   3.425   1.697  13.310  1.4510 -0.5836 -0.6122
19856TIP3    H280984   3.399   1.548  13.299 -4.1405  0.4319 -3.1355
19857TIP3   OH280985   5.473   4.422   5.076 -0.3714  0.2469 -0.2363
19857TIP3    H180986   5.460   4.327   5.085 -0.0870  0.2616  0.3907
19857TIP3    H280987   5.552   4.440   5.126 -0.7966  0.9151  0.2094
19858TIP3   OH280988   0.443   6.670  14.063 -0.0663 -0.2531  0.2464
19858TIP3    H180989   0.470   6.727  14.136  1.0896  0.9013 -1.0588
19858TIP3    H280990   0.483   6.710  13.986 -1.3530 -1.4306 -1.0402
19859TIP3   OH280991   4.826   5.607  11.750  0.4143  0.3961  0.4632
19859TIP3    H180992   4.822   5.629  11.843  1.9209  0.2722  0.5547
19859TIP3    H280993   4.828   5.512  11.748  0.1221  0.3936  0.2879
19860TIP3   OH280994   1.491   5.838  15.331 -0.0164 -0.0270 -0.1869
19860TIP3    H180995   1.416   5.780  15.335  2.5316 -3.3781  1.5917
19860TIP3    H280996   1.495   5.866  15.240 -0.0708 -4.4467 -1.6735
19861TIP3   OH280997   3.743   4.755   1.814  0.2349  0.1020 -0.5884
19861TIP3    H180998   3.828   4.751   1.770  0.9907  3.8805  0.3210
19861TIP3    H280999   3.699   4.675   1.788  3.4436 -1.1877 -2.4040
19862TIP3   OH281000   6.066   1.678   3.540  0.7241 -0.2547 -0.3197
19862TIP3    H181001   6.020   1.621   3.602  1.8239 -0.9920 -0.1812
19862TIP3    H281002   6.143   1.628   3.513  1.5855  1.0687 -0.3748
19863TIP3   OH281003   3.330   3.265  15.494  0.0367  0.1190  0.4569
19863TIP3    H181004   3.369   3.320  15.562  0.4682  0.6183 -0.1995
19863TIP3    H281005   3.348   3.310  15.412 -1.4297  0.0662  0.0900
19864TIP3   OH281006   0.387   5.434  12.052  0.1804  0.1587 -0.4255
19864TIP3    H181007   0.452   5.369  12.080  1.0506  0.7798 -0.9812
19864TIP3    H281008   0.397   5.438  11.957 -0.1130  0.8574 -0.4264
19865TIP3   OH281009   0.125   4.533   0.657 -0.7374 -0.6100  0.1370
19865TIP3    H181010   0.036   4.502   0.645 -0.6871 -1.4158  1.7511
19865TIP3    H281011   0.180   4.460   0.629 -0.6056 -1.1865  1.8839
19866TIP3   OH281012   4.464   6.600  10.680  0.0592 -0.4035  0.0620
19866TIP3    H181013   4.534   6.649  10.638  0.5240 -0.8853  0.2788
19866TIP3    H281014   4.448   6.647  10.762 -0.4772  0.2189 -0.3914
19867TIP3   OH281015   1.338   5.905  12.164 -0.0445 -0.0327  0.1516
19867TIP3    H181016   1.422   5.859  12.162  0.1368  0.3115 -1.4238
19867TIP3    H281017   1.351   5.980  12.105 -0.8565  1.0938  1.3763
19868TIP3   OH281018   2.720   3.700   3.280  0.2143  0.2470  0.1112
19868TIP3    H181019   2.677   3.622   3.246 -0.0331  0.1920  0.5479
19868TIP3    H281020   2.788   3.720   3.215  2.4196 -2.1830  1.5895
19869TIP3   OH281021   5.383   3.184   0.710  0.0829 -0.0195  0.5615
19869TIP3    H181022   5.309   3.236   0.677 -0.8645 -1.6429  0.0853
19869TIP3    H281023   5.460   3.235   0.684 -0.6519 -0.8570 -3.6126
19870TIP3   OH281024   1.485   6.539  13.792 -0.1151 -0.4877  0.1216
19870TIP3    H181025   1.560   6.522  13.850  0.3121  0.4864 -0.1303
19870TIP3    H281026   1.523   6.583  13.716 -0.8662 -0.5074 -0.2681
19871TIP3   OH281027   3.266   4.927  14.384  0.7479 -0.0781 -0.5978
19871TIP3    H181028   3.306   4.997  14.436  0.4584 -0.9852  0.8710
19871TIP3    H281029   3.173   4.951  14.381  0.7822  0.0350 -0.8182
19872TIP3   OH281030   4.753   0.898   3.499  0.2608 -0.1857  0.0734
19872TIP3    H181031   4.702   0.937   3.570 -0.9168 -2.8584  0.7622
19872TIP3    H281032   4.687   0.863   3.439  1.2143 -2.5302  0.3268
19873TIP3   OH281033   0.044   4.559  11.314 -0.2270 -0.2202  0.1490
19873TIP3    H181034   0.094   4.582  11.236 -0.0975  2.0012  0.8685
19873TIP3    H281035  -0.047   4.573  11.289 -0.1277  1.5244  0.7045
19874TIP3   OH281036   2.058   1.251  16.086 -0.1508 -0.4951 -0.1072
19874TIP3    H181037   2.008   1.313  16.033  0.0591  0.5285  0.8590
19874TIP3    H281038   1.992   1.197  16.128 -0.4004  0.0230  0.1766
19875TIP3   OH281039   0.876   3.403  15.833 -0.1517 -0.2940  0.2593
19875TIP3    H181040   0.922   3.435  15.910  0.2393  0.1807 -0.1640
19875TIP3    H281041   0.939   3.415  15.761 -1.1440  0.9252 -0.4223
19876TIP3   OH281042   4.948   6.487  14.858  0.1330 -0.2810 -0.2249
19876TIP3    H181043   4.876   6.434  14.824 -0.8029 -0.0292  1.3398
19876TIP3    H281044   5.008   6.424  14.898 -0.0823 -0.3198  0.0336
19877TIP3   OH281045   5.643   5.973  11.532  0.1922  0.3505 -0.2212
19877TIP3    H181046   5.580   6.035  11.569  0.4022  0.2108  0.3795
19877TIP3    H281047   5.607   5.887  11.555  0.4555  0.2672 -0.1276
19878TIP3   OH281048   5.003   5.434  11.489 -0.5464  0.1745 -0.3382
19878TIP3    H181049   5.085   5.389  11.470  0.1969  1.3187  0.1391
19878TIP3    H281050   4.954   5.373  11.545 -0.8832 -1.3492 -2.2526
19879TIP3   OH281051   4.958   3.546   2.780  0.2760  0.6750  0.0806
19879TIP3    H181052   4.971   3.633   2.818 -1.3018  1.2042 -0.5407
19879TIP3    H281053   4.874   3.517   2.816 -0.1404  0.2333 -1.2275
19880TIP3   OH281054   0.151   4.561  16.433  0.2659  0.0543 -0.2405
19880TIP3    H181055   0.106   4.477  16.422  0.1905  0.1325 -0.5525
19880TIP3    H281056   0.126   4.591  16.520 -0.5530  0.2492 -0.5360
19881TIP3   OH281057   1.667   6.635  13.101 -0.1463  0.1569 -0.3607
19881TIP3    H181058   1.760   6.615  13.105 -0.0979  0.5534  0.6638
19881TIP3    H281059   1.624   6.557  13.138 -0.1047  0.7806  1.0373
19882TIP3   OH281060   0.237   6.767  10.383 -0.2362  0.2933 -0.7376
19882TIP3    H181061   0.325   6.777  10.417 -1.3005  1.6351  1.7271
19882TIP3    H281062   0.212   6.677  10.407 -0.8046  1.0674  1.7577
19883TIP3   OH281063   2.968   2.911  15.168 -0.0611  0.0007 -0.4975
19883TIP3    H181064   2.912   2.988  15.161 -0.2320 -0.0883 -0.1378
19883TIP3    H281065   2.945   2.857  15.092  1.1151  0.9832 -1.5738
19884TIP3   OH281066   1.462   4.604   4.362  0.1925 -0.4215  0.1299
19884TIP3    H181067   1.495   4.575   4.276  0.7907  0.5182  0.0395
19884TIP3    H281068   1.540   4.609   4.417  0.0238  0.5257  0.2878
19885TIP3   OH281069   6.179   5.206  15.618  0.0424 -0.1919  0.2169
19885TIP3    H181070   6.132   5.183  15.538 -0.9920 -1.8474  1.2528
19885TIP3    H281071   6.266   5.233  15.589 -0.9466  1.1870 -1.6040
19886TIP3   OH281072   5.428   0.975   1.759  0.1108  0.1295 -0.0302
19886TIP3    H181073   5.430   1.062   1.720  0.9034  0.5053  0.8257
19886TIP3    H281074   5.516   0.963   1.796  0.0904 -1.1232 -0.3330
19887TIP3   OH281075   3.183   4.364   5.847 -0.1580 -0.7370 -0.0291
19887TIP3    H181076   3.238   4.431   5.805  1.7947 -3.3065 -1.7541
19887TIP3    H281077   3.215   4.360   5.937  0.8586 -0.5409 -0.3739
19888TIP3   OH281078   2.743   3.929  14.222  0.8950  0.3393 -0.3232
19888TIP3    H181079   2.761   3.871  14.296  0.2690  0.7688  0.1767
19888TIP3    H281080   2.810   3.907  14.157  1.0447 -0.5053  0.1040
19889TIP3   OH281081   6.307   3.136   1.859  0.2339 -0.1203 -0.1759
19889TIP3    H181082   6.290   3.145   1.953 -0.4162 -0.8427 -0.2204
19889TIP3    H281083   6.350   3.051   1.851  0.7344  0.1562 -0.4803
19890TIP3   OH281084   1.916   1.534  13.121 -0.3681 -0.6608  0.1489
19890TIP3    H181085   1.827   1.551  13.150 -0.6019  0.7959 -1.3554
19890TIP3    H281086   1.954   1.621  13.108  0.6833 -1.2760 -0.9888
19891TIP3   OH281087   6.306   0.048  16.391  0.2341  0.0596 -0.0617
19891TIP3    H181088   6.226   0.027  16.440  0.7101  0.2645  0.8289
19891TIP3    H281089   6.328  -0.033  16.346  0.3029 -0.4226  0.8215
19892TIP3   OH281090   0.257   0.163   5.369  0.4476 -0.3492 -0.7244
19892TIP3    H181091   0.193   0.220   5.411 -0.6323 -1.4850 -0.7938
19892TIP3    H281092   0.342   0.201   5.393 -0.1679 -0.2599  1.4715
19893TIP3   OH281093   5.096   3.993  10.720 -0.0024  0.1296  0.0172
19893TIP3    H181094   5.015   3.957  10.756  0.1686 -0.4470 -0.1632
19893TIP3    H281095   5.097   4.084  10.748 -0.8481  0.2104 -0.2006
19894TIP3   OH281096   3.568   6.662   5.496  1.2508 -0.0963  0.5379
19894TIP3    H181097   3.566   6.672   5.591  0.6934  1.4776  0.3745
19894TIP3    H281098   3.579   6.752   5.463 -2.6613 -0.1074 -1.0200
19895TIP3   OH281099   4.472   5.027   3.829  0.7158  0.4510  0.2563
19895TIP3    H181100   4.512   5.114   3.830 -1.1204  1.3530 -1.0131
19895TIP3    H281101   4.472   5.002   3.736 -0.3922 -0.1194  0.4087
19896TIP3   OH281102   3.082   2.632  16.895  0.5412  0.0504 -0.3783
19896TIP3    H181103   3.085   2.546  16.852  0.5301 -0.3045  0.3161
19896TIP3    H281104   3.063   2.694  16.825  0.9851 -0.4680 -0.9632
19897TIP3   OH281105   3.809   5.339   3.554 -0.2497  0.7396  0.0355
19897TIP3    H181106   3.903   5.331   3.568 -0.3397  0.9111  0.7639
19897TIP3    H281107   3.800   5.358   3.461  0.4084  0.2730 -0.1281
19898TIP3   OH281108   6.017   4.594   3.957  0.4802 -0.3864 -0.2320
19898TIP3    H181109   5.974   4.636   4.032  1.7031  0.0655  0.2243
19898TIP3    H281110   5.987   4.644   3.881 -3.0898 -2.6261 -0.4463
19899TIP3   OH281111   5.711   4.704  14.806  0.2521 -0.6529 -0.1522
19899TIP3    H181112   5.776   4.669  14.746 -1.5299 -0.8687 -2.0089
19899TIP3    H281113   5.762   4.750  14.872  2.4053 -2.9033 -0.1663
19900TIP3   OH281114   1.386   4.015   2.482  0.5169  0.0748  0.0184
19900TIP3    H181115   1.377   3.966   2.564 -0.5217  0.0921 -0.0764
19900TIP3    H281116   1.350   3.956   2.416  2.2870 -0.3514 -0.5817
19901TIP3   OH281117   0.497   3.498  11.617 -0.0473  0.0092 -0.5891
19901TIP3    H181118   0.513   3.477  11.710 -0.0322 -0.2054 -0.6419
19901TIP3    H281119   0.449   3.423  11.584 -2.0966  1.1027 -0.1796
19902TIP3   OH281120   3.486   1.013  12.463 -0.2284  0.1382 -0.0724
19902TIP3    H181121   3.493   1.105  12.437 -0.5436 -0.6215 -3.0912
19902TIP3    H281122   3.469   0.966  12.381 -2.0023 -2.4069  1.6599
19903TIP3   OH281123   6.686   4.285   1.204  0.4334 -0.1502  0.1508
19903TIP3    H181124   6.651   4.340   1.134 -0.9883 -0.2647  0.7516
19903TIP3    H281125   6.685   4.342   1.282  2.5740  0.1699 -0.0365
19904TIP3   OH281126   0.452   1.569  11.486  0.0507 -0.0544  0.3277
19904TIP3    H181127   0.506   1.516  11.544  0.0458  0.6458  0.9767
19904TIP3    H281128   0.463   1.659  11.518  0.1302  0.3537 -0.8079
19905TIP3   OH281129   2.154   1.118  13.959  0.5692 -0.7202 -0.3170
19905TIP3    H181130   2.199   1.049  14.008  0.1543 -0.7934 -0.0402
19905TIP3    H281131   2.151   1.192  14.019  1.1151 -0.4181 -0.6521
19906TIP3   OH281132   1.418   4.141  16.861  0.0009  0.5319  0.3977
19906TIP3    H181133   1.498   4.175  16.822  0.6015  0.5873  1.6638
19906TIP3    H281134   1.425   4.046  16.852 -0.3086  0.5845 -0.4732
19907TIP3   OH281135   4.648   2.056  16.511  0.1876  0.1218 -0.4294
19907TIP3    H181136   4.709   2.045  16.584 -2.1190  1.1134  1.7373
19907TIP3    H281137   4.658   2.147  16.485 -0.7940  0.4429  0.3209
19908TIP3   OH281138   2.152   0.899   6.102 -0.4902 -0.5212  0.0019
19908TIP3    H181139   2.140   0.953   6.181  0.1105 -2.0473  1.1439
19908TIP3    H281140   2.073   0.846   6.098 -0.4518 -0.5489 -0.3481
19909TIP3   OH281141   2.879   5.884   6.083  0.1116  0.2015  0.1273
19909TIP3    H181142   2.867   5.979   6.078 -0.8381  0.1320  1.0010
19909TIP3    H281143   2.969   5.874   6.115  0.5171  0.7888 -0.7926
19910TIP3   OH281144   5.626   5.639  13.915 -0.2886 -0.0912  0.4867
19910TIP3    H181145   5.621   5.546  13.937 -0.2795 -0.3910 -0.7329
19910TIP3    H281146   5.653   5.641  13.823  1.9188  1.1498  1.1127
19911TIP3   OH281147   2.512   0.147   0.682  0.1508  0.1095  0.2659
19911TIP3    H181148   2.531   0.148   0.589 -3.1199  3.7532 -0.4527
19911TIP3    H281149   2.553   0.226   0.716  1.4381 -1.2583  2.0030
19912TIP3   OH281150   4.240   5.017  14.035 -0.6074 -0.5620 -0.4607
19912TIP3    H181151   4.294   5.094  14.053  1.8471 -2.5298  1.0721
19912TIP3    H281152   4.160   5.031  14.086 -0.3544  1.1056 -0.4940
19913TIP3   OH281153   6.363   2.031  15.522  0.1184 -0.1511  0.0778
19913TIP3    H181154   6.296   1.970  15.490  1.2948 -0.6289 -1.5527
19913TIP3    H281155   6.313   2.099  15.568 -1.1324 -2.8457  2.8140
19914TIP3   OH281156   6.779   0.803  15.408  0.2476  0.1982  0.3898
19914TIP3    H181157   6.765   0.874  15.346 -0.0058 -0.0755  0.1348
19914TIP3    H281158   6.758   0.841  15.494 -1.0594  0.0864  0.1273
19915TIP3   OH281159   5.317   6.476  15.098 -0.2232 -0.2327  0.4273
19915TIP3    H181160   5.235   6.443  15.062  0.0713 -1.6911  1.0662
19915TIP3    H281161   5.377   6.401  15.093  1.2295  0.9621 -0.5104
19916TIP3   OH281162   6.482   5.891  11.731  0.0664  0.1034 -0.3483
19916TIP3    H181163   6.420   5.862  11.664  1.1669 -1.0491 -0.9118
19916TIP3    H281164   6.446   5.859  11.814 -0.1601 -0.4711 -0.6619
19917TIP3   OH281165   0.685   5.593  16.070 -0.7287 -0.1187 -0.0217
19917TIP3    H181166   0.704   5.653  15.998  0.1177 -1.1111 -0.6441
19917TIP3    H281167   0.602   5.552  16.046 -0.9917  0.3293  0.1018
19918TIP3   OH281168   5.215   3.860   1.313  0.7161  0.1727 -0.0952
19918TIP3    H181169   5.171   3.941   1.337 -0.6416 -0.2198 -1.2199
19918TIP3    H281170   5.303   3.887   1.286  0.5337  1.1632  0.2822
19919TIP3   OH281171   4.590   2.048  15.321  0.1927 -0.5259 -0.2734
19919TIP3    H181172   4.495   2.053  15.307  0.4185  0.0662 -1.6721
19919TIP3    H281173   4.625   2.124  15.274  1.5788 -2.0645 -1.8163
19920TIP3   OH281174   6.011   1.648  12.734 -0.2126 -0.2600 -0.1819
19920TIP3    H181175   5.917   1.638  12.720 -0.1177  0.8887 -1.7635
19920TIP3    H281176   6.020   1.675  12.825 -1.3804 -0.8092  0.0927
19921TIP3   OH281177   3.380   1.424   2.403  0.0007 -0.2382  0.5570
19921TIP3    H181178   3.328   1.483   2.457  0.4319 -0.1108  0.8346
19921TIP3    H281179   3.334   1.422   2.319  0.1372  0.7029  0.4544
19922TIP3   OH281180   1.057   2.858  15.537  0.4527  0.0646  0.0176
19922TIP3    H181181   0.976   2.828  15.496  0.8231  0.0458 -0.7207
19922TIP3    H281182   1.033   2.938  15.583 -0.1647 -0.4060  0.5138
19923TIP3   OH281183   0.435   2.032   1.313 -0.8134  0.0570  0.2672
19923TIP3    H181184   0.503   2.096   1.336  1.3385 -2.2402  0.5119
19923TIP3    H281185   0.457   2.005   1.223 -1.4397 -0.6543  0.3201
19924TIP3   OH281186   4.750   5.761  16.649 -0.2074 -0.4740  0.2558
19924TIP3    H181187   4.834   5.761  16.605 -0.1434  0.0488  0.3814
19924TIP3    H281188   4.692   5.809  16.590 -0.5611 -1.3213 -0.1021
19925TIP3   OH281189   0.706   0.814   3.351  0.0154 -0.7106 -0.1437
19925TIP3    H181190   0.634   0.751   3.344 -0.2200 -0.7160  2.0166
19925TIP3    H281191   0.755   0.803   3.270 -1.0137 -2.4466 -0.5584
19926TIP3   OH281192   0.608   1.851  14.629 -0.0005  0.3915 -0.0316
19926TIP3    H181193   0.672   1.802  14.577  1.1989  0.5346  1.2951
19926TIP3    H281194   0.635   1.943  14.620 -0.1730  0.4774  0.3238
19927TIP3   OH281195   4.647   4.201   3.929 -0.0306 -0.2217 -0.4588
19927TIP3    H181196   4.564   4.236   3.898 -1.7652 -3.6276  0.1233
19927TIP3    H281197   4.626   4.157   4.012  2.2595 -1.4692 -0.4847
19928TIP3   OH281198   3.960   6.665   2.398 -0.1826  0.3113  0.0552
19928TIP3    H181199   4.040   6.718   2.407 -0.0702  0.8102 -3.3175
19928TIP3    H281200   3.920   6.696   2.317 -1.6934 -2.7134 -0.4119
19929TIP3   OH281201   1.002   3.333  15.373  0.0085 -0.5023 -0.7462
19929TIP3    H181202   1.097   3.329  15.379 -0.0396 -1.3363 -0.4610
19929TIP3    H281203   0.984   3.404  15.312  0.8447 -1.1670 -1.7795
19930TIP3   OH281204   1.756   0.254   0.915  0.4763  0.0229  0.0993
19930TIP3    H181205   1.735   0.307   0.839  1.3435 -0.4374 -0.4684
19930TIP3    H281206   1.834   0.204   0.889 -1.0352 -2.4466  0.1592
19931TIP3   OH281207   2.268   2.059   0.558  0.1787  0.0899  0.3216
19931TIP3    H181208   2.178   2.026   0.563  0.4288 -0.4774  1.3542
19931TIP3    H281209   2.278   2.111   0.639  0.6355  0.5284 -0.0133
19932TIP3   OH281210   3.217   3.208   1.982 -0.3099 -0.2060  0.8794
19932TIP3    H181211   3.274   3.131   1.976 -0.4554 -0.4003  1.7777
19932TIP3    H281212   3.154   3.184   2.050  0.5105  1.2464  2.2019
19933TIP3   OH281213   5.284   1.458  12.268  0.4011  0.0572  0.1827
19933TIP3    H181214   5.223   1.385  12.258  0.0555  0.2129  1.0961
19933TIP3    H281215   5.347   1.446  12.197 -0.1759 -0.6093 -0.2285
19934TIP3   OH281216   6.418   4.509  15.075  0.0108 -0.0152  0.3540
19934TIP3    H181217   6.505   4.525  15.111  0.6754 -0.6192 -0.9549
19934TIP3    H281218   6.409   4.414  15.076 -1.3864  0.0930  2.1785
19935TIP3   OH281219   5.792   4.592  16.972  0.0053 -0.3426 -0.4126
19935TIP3    H181220   5.770   4.660  17.035  1.2806 -0.1276 -0.1883
19935TIP3    H281221   5.709   4.573  16.927 -0.5359  0.7515  0.1003
19936TIP3   OH281222   3.570   6.571   6.464 -0.3547  0.3827 -0.1812
19936TIP3    H181223   3.575   6.546   6.372  0.2222  0.7471 -0.2524
19936TIP3    H281224   3.642   6.633   6.476  0.3796 -0.6622  0.8344
19937TIP3   OH281225   2.269   6.297  15.966 -0.0166  0.2107 -0.0756
19937TIP3    H181226   2.208   6.355  15.920 -2.6777 -1.1483  1.5671
19937TIP3    H281227   2.249   6.311  16.059  2.0780 -0.4085  0.4922
19938TIP3   OH281228   0.252   0.238   2.703  0.5100  0.0544 -0.0221
19938TIP3    H181229   0.195   0.308   2.735  0.6881 -0.6134  1.8773
19938TIP3    H281230   0.208   0.204   2.626 -1.2218  0.1675  0.8856
19939TIP3   OH281231   3.910   3.120  14.465  0.3112  0.5061 -0.3793
19939TIP3    H181232   3.896   3.212  14.443  0.2683  0.6354  0.1769
19939TIP3    H281233   3.824   3.089  14.492  0.4170  0.4176 -0.1487
19940TIP3   OH281234   1.797   3.251   1.366 -0.2133 -0.3765 -0.1407
19940TIP3    H181235   1.880   3.298   1.355  0.0050 -1.0064 -1.3447
19940TIP3    H281236   1.749   3.271   1.286 -1.2056 -0.0593  0.5330
19941TIP3   OH281237   5.512   6.691   1.269 -0.1779  0.0136  0.3062
19941TIP3    H181238   5.600   6.659   1.288 -0.2386 -0.9190 -0.9259
19941TIP3    H281239   5.500   6.674   1.175 -1.7468 -0.0546  0.5053
19942TIP3   OH281240   1.508   4.246  12.894 -0.2540  0.6048  0.3648
19942TIP3    H181241   1.560   4.181  12.941 -0.4937 -1.3059 -1.9088
19942TIP3    H281242   1.569   4.318  12.877  1.4012 -1.1720 -1.3751
19943TIP3   OH281243   3.629   1.845  12.205  0.6911  0.4519 -0.0460
19943TIP3    H181244   3.633   1.779  12.275 -1.9222  0.7939  0.4843
19943TIP3    H281245   3.539   1.841  12.174  1.5737  0.9558 -2.8119
19944TIP3   OH281246   3.708   1.900   3.632 -0.3408  0.1999 -0.3178
19944TIP3    H181247   3.686   1.896   3.539 -2.6843 -0.1076  0.2032
19944TIP3    H281248   3.740   1.812   3.653 -0.0207  0.2050 -0.7943
19945TIP3   OH281249   6.601   0.086  12.891 -0.4961 -0.1893 -0.0599
19945TIP3    H181250   6.535   0.138  12.844 -0.1541  0.6513  0.3850
19945TIP3    H281251   6.552   0.046  12.963 -0.9906 -1.3616 -1.0215
19946TIP3   OH281252   4.437   3.117   4.873 -0.0110  0.5582 -0.5112
19946TIP3    H181253   4.372   3.117   4.803  0.2273  2.2075 -0.7497
19946TIP3    H281254   4.414   3.191   4.929  1.0521  0.5501 -0.0313
19947TIP3   OH281255   6.509   3.751  12.099 -0.4948  0.4449 -0.1903
19947TIP3    H181256   6.489   3.790  12.184 -0.0761  0.2727 -0.0103
19947TIP3    H281257   6.481   3.817  12.035 -2.0987 -0.0044  0.0311
19948TIP3   OH281258   3.891   6.214  12.667 -0.4649 -0.4732  0.0288
19948TIP3    H181259   3.941   6.207  12.586 -0.0294 -2.0300  0.4065
19948TIP3    H281260   3.860   6.125  12.684 -2.5508  0.2792  0.3235
19949TIP3   OH281261   1.493   5.397   3.780 -0.2098 -0.1947  0.1811
19949TIP3    H181262   1.495   5.464   3.711 -1.3732 -0.1899  0.1351
19949TIP3    H281263   1.427   5.429   3.841 -1.6578 -1.9016 -0.4579
19950TIP3   OH281264   3.387   5.767   5.005  0.7172 -0.1347  0.0013
19950TIP3    H181265   3.301   5.793   4.973 -0.0932 -1.8058  0.7680
19950TIP3    H281266   3.448   5.828   4.963 -0.7510  0.5354 -1.1869
19951TIP3   OH281267   0.230   6.495  10.417  0.4537  0.3870  0.2126
19951TIP3    H181268   0.317   6.460  10.435  0.6270  2.0879  3.1755
19951TIP3    H281269   0.181   6.422  10.381  1.8367 -1.9081  2.7766
19952TIP3   OH281270   1.986   4.870  16.970 -0.0251 -0.5658 -0.0706
19952TIP3    H181271   1.930   4.867  17.047  0.6336 -0.3533  0.4248
19952TIP3    H281272   1.927   4.855  16.896 -0.9397  0.9093  0.3459
19953TIP3   OH281273   2.289   2.336   2.012 -0.5689  0.2595 -0.3592
19953TIP3    H181274   2.338   2.261   1.978 -0.0185  0.4257  0.0557
19953TIP3    H281275   2.326   2.411   1.965 -1.3213  0.2451 -0.9898
19954TIP3   OH281276   6.658   0.739   2.240  0.3870  0.3562 -0.3944
19954TIP3    H181277   6.748   0.739   2.207  0.6459  1.9160  0.2703
19954TIP3    H281278   6.643   0.829   2.270 -1.7778  0.4197 -1.5462
19955TIP3   OH281279   0.020   6.201   3.413  0.2840 -0.2411 -0.1460
19955TIP3    H181280  -0.055   6.238   3.367 -0.1758 -0.3381  0.5207
19955TIP3    H281281   0.028   6.254   3.492  0.6353 -0.5291  0.0119
19956TIP3   OH281282   6.623   0.694   1.690 -0.2279  0.1750 -0.0705
19956TIP3    H181283   6.713   0.682   1.661  0.1649  0.6705  0.9102
19956TIP3    H281284   6.617   0.787   1.713  0.1466 -0.6192  3.5336
19957TIP3   OH281285   4.378   3.244   3.324 -0.7888  0.4979  0.2512
19957TIP3    H181286   4.447   3.179   3.320  0.4998  1.6018  3.2766
19957TIP3    H281287   4.297   3.193   3.326  0.1314 -0.9494  0.9462
19958TIP3   OH281288   0.680   2.073  15.958 -0.1906 -0.4124  0.3812
19958TIP3    H181289   0.598   2.023  15.962 -0.0020 -1.1652 -3.3027
19958TIP3    H281290   0.749   2.007  15.958  0.1916 -0.0425 -1.0417
19959TIP3   OH281291   3.185   2.920   5.687 -0.2651  0.1735 -0.4011
19959TIP3    H181292   3.098   2.891   5.657  0.0729 -0.7088 -0.5597
19959TIP3    H281293   3.245   2.854   5.651  0.3640  0.2232  0.5487
19960TIP3   OH281294   6.534   5.746   1.570  0.9089  0.7262  0.5203
19960TIP3    H181295   6.505   5.832   1.600  0.3803  1.7465 -2.6990
19960TIP3    H281296   6.456   5.690   1.578 -0.0098  1.6709 -1.3906
19961TIP3   OH281297   4.234   2.421   0.913 -0.0438 -0.1006  0.5526
19961TIP3    H181298   4.158   2.439   0.969  0.0326  1.0384  0.2915
19961TIP3    H281299   4.206   2.347   0.858 -0.8955  0.1894  0.5933
19962TIP3   OH281300   6.445   5.072   2.898 -0.2369  0.2173  0.6220
19962TIP3    H181301   6.470   5.008   2.965 -1.0697  0.7921  1.4953
19962TIP3    H281302   6.367   5.034   2.857 -0.2464  0.2781  0.5845
19963TIP3   OH281303   5.365   2.166   2.630 -0.4887  0.4157  0.6458
19963TIP3    H181304   5.434   2.224   2.663 -0.5914  0.3858  0.9163
19963TIP3    H281305   5.287   2.221   2.628 -0.5985  0.2740  0.9562
19964TIP3   OH281306   1.953   3.354  17.200  0.4082 -0.1844 -0.1090
19964TIP3    H181307   1.955   3.318  17.289  3.6729 -1.0303 -0.4717
19964TIP3    H281308   1.949   3.449  17.213 -1.5834 -0.3710  0.8825
19965TIP3   OH281309   3.509   2.211   4.567 -0.4157  0.2874  0.2076
19965TIP3    H181310   3.470   2.130   4.534 -1.5477  0.8915  0.0243
19965TIP3    H281311   3.510   2.200   4.662 -0.3933 -0.0257  0.1698
19966TIP3   OH281312   3.004   5.282   0.830  0.0138 -0.7625  0.1551
19966TIP3    H181313   3.008   5.198   0.786  0.7521 -0.0970 -1.0569
19966TIP3    H281314   2.929   5.327   0.790 -2.1327 -1.8896  2.7179
19967TIP3   OH281315   4.641   0.252   1.275  0.0024  0.2875 -0.4104
19967TIP3    H181316   4.576   0.207   1.221  0.1181 -0.4690  0.0736
19967TIP3    H281317   4.603   0.339   1.290 -1.4682 -0.5617  0.8957
19968TIP3   OH281318   5.994   2.257  13.734  0.8210 -0.2471 -0.7455
19968TIP3    H181319   5.905   2.291  13.723  0.4804 -1.0493 -0.5100
19968TIP3    H281320   6.051   2.331  13.713  0.0798  0.6047  0.2132
19969TIP3   OH281321   4.788   4.535   2.476  0.6129 -1.1660 -0.0089
19969TIP3    H181322   4.829   4.578   2.401  0.2741 -1.6696 -0.4822
19969TIP3    H281323   4.797   4.598   2.547  0.7849 -0.6166 -0.5125
19970TIP3   OH281324   0.342   3.898   2.950  0.4549 -0.1099 -0.9299
19970TIP3    H181325   0.388   3.864   2.873  2.2364 -0.3982  0.2402
19970TIP3    H281326   0.377   3.847   3.023 -1.0439  0.3250  0.1149
19971TIP3   OH281327   0.788   3.046  15.150 -0.1784  0.6680  0.0294
19971TIP3    H181328   0.756   2.997  15.074 -0.0619  0.1460  0.3127
19971TIP3    H281329   0.814   3.131  15.115  1.0929 -0.0216 -0.7387
19972TIP3   OH281330   6.487   5.055  15.841 -0.3255  0.6766 -0.9325
19972TIP3    H181331   6.582   5.062  15.842 -0.3902  1.5385 -0.6926
19972TIP3    H281332   6.459   5.105  15.764 -0.5508 -0.0563 -1.3333
19973TIP3   OH281333   0.954   5.660  15.221  0.0441  0.1632  0.1977
19973TIP3    H181334   0.953   5.625  15.132  1.0911 -0.0305  0.2619
19973TIP3    H281335   0.935   5.584  15.277 -1.9717  0.5397  0.0712
19974LIG     O181336   1.989   4.934  16.236  0.1064 -0.3517 -0.4697
19974LIG     O281337   1.711   5.303  16.144 -0.6327 -0.1149  0.6800
19974LIG     N181338   1.771   5.263  16.364  0.3762  0.0853 -0.5424
19974LIG     N281339   1.944   5.013  16.531 -0.6948  0.5263  0.7494
19974LIG     N381340   1.842   5.119  16.187  0.6001  0.1508 -0.1414
19974LIG     N481341   1.820   5.185  16.584  0.0346  0.5103 -0.8141
19974LIG     C181342   1.909   5.069  16.410  0.6765  1.1766 -0.1778
19974LIG     C281343   1.833   5.176  16.452 -0.0233  0.2895  0.0244
19974LIG     C381344   1.924   5.033  16.278 -0.2237 -0.4712 -0.2225
19974LIG     C481345   1.771   5.233  16.227  0.0132 -0.4661  0.4980
19974LIG     C581346   1.896   5.090  16.631  0.0515  0.2933  0.2050
19974LIG     C681347   1.714   5.389  16.408  0.0388  0.0836 -0.2438
19974LIG     C781348   2.017   4.890  16.551 -0.0734 -0.5466 -0.3237
19974LIG     C881349   1.850   5.095  16.040  0.7643  0.3833  0.9274
19974LIG     H181350   1.916   5.066  16.735  0.4660 -2.0543 -0.3654
19974LIG     H281351   1.734   5.479  16.345  0.7361 -1.0578 -1.6902
19974LIG     H381352   1.745   5.412  16.512 -0.4186 -3.2539  0.6942
19974LIG     H481353   1.603   5.380  16.407 -0.1764  2.5150 -0.8387
19974LIG     H581354   2.055   4.832  16.464  0.8920  1.3600 -1.2216
19974LIG     H681355   1.957   4.826  16.618 -1.3306  3.2063  2.2789
19974LIG     H781356   2.110   4.925  16.600 -0.3400  1.6093 -1.3023
19974LIG     H881357   1.760   5.048  15.994  1.5902 -2.3056  1.9188
19974LIG     H981358   1.933   5.027  16.010  0.3066  0.7491 -1.2952
19974LIG    H1081359   1.867   5.200  16.008  2.6861 -1.2155 -3.7245
   6.78697   6.78697  17.23950
